chitosan Film  in water:acetic acid 2%
10903
    1CHTO  H203    1   4.349   6.805   2.829
    1CHTO   O82    2   4.327   6.857   0.031
    1CHTO  C123    3   4.406   6.817   0.145
    1CHTO  H227    4   4.380   6.883   0.229
    1CHTO   O77    5   4.361   6.681   0.172
    1CHTO  C118    6   4.419   6.621   0.289
    1CHTO  H222    7   4.397   6.683   0.378
    1CHTO  C125    8   4.353   6.479   0.308
    1CHTO   O84    9   4.213   6.491   0.335
    1CHTO  H205   10   4.177   6.405   0.347
    1CHTO  C114   11   4.571   6.609   0.270
    1CHTO  H218   12   4.591   6.543   0.185
    1CHTO  C116   13   4.636   6.748   0.238
    1CHTO  H220   14   4.630   6.812   0.328
    1CHTO   O79   15   4.775   6.727   0.210
    1CHTO  H201   16   4.821   6.700   0.287
    1CHTO  C120   17   4.561   6.818   0.117
    1CHTO  H224   18   4.584   6.757   0.026
    1CHTO   N21   19   4.613   6.955   0.091
    1CHTO  H211   20   4.646   7.002   0.183
    1CHTO  H212   21   4.538   7.016   0.043
    1CHTO   O75   22   4.621   6.551   0.392
    1CHTO  C112   23   4.730   6.432   0.366
    1CHTO  H216   24   4.783   6.453   0.271
    1CHTO   O73   25   4.657   6.309   0.360
    1CHTO  C113   26   4.739   6.196   0.324
    1CHTO  H217   27   4.788   6.216   0.226
    1CHTO  C124   28   4.649   6.074   0.306
    1CHTO   O83   29   4.557   6.088   0.197
    1CHTO  H204   30   4.504   6.011   0.190
    1CHTO  C109   31   4.848   6.171   0.432
    1CHTO  H213   32   4.795   6.139   0.523
    1CHTO  C110   33   4.930   6.301   0.459
    1CHTO  H214   34   4.994   6.320   0.373
    1CHTO   O78   35   5.016   6.277   0.572
    1CHTO  H200   36   5.073   6.350   0.585
    1CHTO  C111   37   4.836   6.424   0.482
    1CHTO  H215   38   4.781   6.409   0.577
    1CHTO   N19   39   4.909   6.552   0.494
    1CHTO  H207   40   4.968   6.571   0.405
    1CHTO  H208   41   4.975   6.549   0.580
    1CHTO   O74   42   4.936   6.065   0.386
    1CHTO  C115   43   4.972   5.954   0.493
    1CHTO  H219   44   4.943   5.984   0.594
    1CHTO   O76   45   4.897   5.820   0.465
    1CHTO  C122   46   4.912   5.777   0.329
    1CHTO  H226   47   4.841   5.834   0.269
    1CHTO  C126   48   4.863   5.628   0.322
    1CHTO   O85   49   4.856   5.580   0.187
    1CHTO  H206   50   4.826   5.492   0.186
    1CHTO  C121   51   5.060   5.794   0.272
    1CHTO  H225   52   5.087   5.704   0.215
    1CHTO   O81   53   5.065   5.903   0.179
    1CHTO  H202   54   5.009   5.886   0.106
    1CHTO  C119   55   5.164   5.814   0.387
    1CHTO  H223   56   5.159   5.720   0.443
    1CHTO  C117   57   5.128   5.933   0.486
    1CHTO  H221   58   5.167   6.030   0.454
    1CHTO   N20   59   5.189   5.910   0.621
    1CHTO  H209   60   5.146   5.822   0.666
    1CHTO  H210   61   5.171   5.996   0.684
    1CHTO   O80   62   5.313   5.814   0.338
    1CHTO  C103   63   5.397   5.684   0.349
    1CHTO  H190   64   5.372   5.629   0.439
    1CHTO  C101   65   5.388   5.585   0.226
    1CHTO  H188   66   5.401   5.643   0.134
    1CHTO   O68   67   5.248   5.521   0.225
    1CHTO  H168   68   5.237   5.468   0.148
    1CHTO   C99   69   5.501   5.472   0.234
    1CHTO  H186   70   5.473   5.403   0.315
    1CHTO   N17   71   5.508   5.388   0.108
    1CHTO  H174   72   5.476   5.287   0.129
    1CHTO  H175   73   5.608   5.390   0.066
    1CHTO   C97   74   5.640   5.530   0.274
    1CHTO  H184   75   5.685   5.580   0.187
    1CHTO   O64   76   5.629   5.618   0.387
    1CHTO  C104   77   5.545   5.732   0.365
    1CHTO  H191   78   5.575   5.787   0.275
    1CHTO  C108   79   5.561   5.829   0.482
    1CHTO   O71   80   5.694   5.880   0.488
    1CHTO  H171   81   5.701   5.941   0.560
    1CHTO   O62   82   5.726   5.425   0.325
    1CHTO   C91   83   5.856   5.408   0.265
    1CHTO  H178   84   5.853   5.444   0.162
    1CHTO   C92   85   5.885   5.255   0.257
    1CHTO  H179   86   5.869   5.210   0.357
    1CHTO   O66   87   5.784   5.196   0.172
    1CHTO  H166   88   5.792   5.102   0.172
    1CHTO   C93   89   6.030   5.222   0.204
    1CHTO  H180   90   6.034   5.254   0.099
    1CHTO   N16   91   6.063   5.078   0.204
    1CHTO  H172   92   6.055   5.038   0.305
    1CHTO  H173   93   5.997   5.025   0.138
    1CHTO   C94   94   6.136   5.305   0.285
    1CHTO  H181   95   6.139   5.277   0.390
    1CHTO   O61   96   6.102   5.445   0.279
    1CHTO   C95   97   5.977   5.478   0.341
    1CHTO  H182   98   5.978   5.444   0.445
    1CHTO  C106   99   5.963   5.635   0.346
    1CHTO   O69  100   5.958   5.694   0.215
    1CHTO  H169  101   5.878   5.670   0.173
    1CHTO   O63  102   6.284   5.288   0.218
    1CHTO   C96  103   6.394   5.369   0.287
    1CHTO  H183  104   6.347   5.434   0.361
    1CHTO   C98  105   6.472   5.461   0.188
    1CHTO  H185  106   6.403   5.524   0.131
    1CHTO   O67  107   6.554   5.552   0.263
    1CHTO  H167  108   6.500   5.608   0.316
    1CHTO  C102  109   6.569   5.378   0.091
    1CHTO  H189  110   6.644   5.451   0.055
    1CHTO   N18  111   6.504   5.326   2.842
    1CHTO  H176  112   6.464   5.407   2.784
    1CHTO  H177  113   6.424   5.258   2.869
    1CHTO  C105  114   6.644   5.267   0.171
    1CHTO  H192  115   6.608   5.168   0.141
    1CHTO   O65  116   6.628   5.277   0.314
    1CHTO  C100  117   6.493   5.269   0.361
    1CHTO  H187  118   6.457   5.166   0.345
    1CHTO  C107  119   6.494   5.295   0.513
    1CHTO   O70  120   6.568   5.196   0.585
    1CHTO  H170  121   6.522   5.114   0.583
    1CHTO   O57  122   6.795   5.284   0.132
    1CHTO   C85  123   6.886   5.173   0.138
    1CHTO  H157  124   6.838   5.090   0.082
    1CHTO   C83  125   6.904   5.121   0.285
    1CHTO  H155  126   6.807   5.084   0.319
    1CHTO   O56  127   6.939   5.231   0.371
    1CHTO  H135  128   6.941   5.203   0.460
    1CHTO   C81  129   7.006   5.003   0.286
    1CHTO  H153  130   6.969   4.926   0.220
    1CHTO   N14  131   7.017   4.937   0.419
    1CHTO  H141  132   6.920   4.904   0.451
    1CHTO  H142  133   7.082   4.853   0.412
    1CHTO   C79  134   7.145   5.052   0.230
    1CHTO  H151  135   7.210   4.964   0.224
    1CHTO   O52  136   7.130   5.103   0.094
    1CHTO   C86  137   7.029   5.208   0.079
    1CHTO  H158  138   7.073   5.296   0.131
    1CHTO   C90  139   7.016   5.248   2.804
    1CHTO   O60  140   7.136   5.308   2.755
    1CHTO  H138  141   7.205   5.245   2.753
    1CHTO   O50  142   7.211   5.150   0.313
    1CHTO   C73  143   7.343   5.204   0.329
    1CHTO  H145  144   7.377   5.248   0.234
    1CHTO   C74  145   7.444   5.093   0.372
    1CHTO  H146  146   7.442   5.015   0.294
    1CHTO   O54  147   7.576   5.150   0.368
    1CHTO  H133  148   7.640   5.085   0.387
    1CHTO   C75  149   7.403   5.037   0.513
    1CHTO  H147  150   7.305   4.989   0.505
    1CHTO   N13  151   7.493   4.930   0.564
    1CHTO  H139  152   7.459   4.895   0.660
    1CHTO  H140  153   7.594   4.969   0.576
    1CHTO   C76  154   7.388   5.157   0.618
    1CHTO  H148  155   7.486   5.201   0.635
    1CHTO   O49  156   7.298   5.260   0.564
    1CHTO   C77  157   7.340   5.315   0.438
    1CHTO  H149  158   7.439   5.358   0.447
    1CHTO   C88  159   7.247   5.431   0.398
    1CHTO   O58  160   7.258   5.544   0.495
    1CHTO  H136  161   7.230   5.517   0.581
    1CHTO   O51  162   7.319   5.102   0.756
    1CHTO   C78  163   7.246   5.211   0.845
    1CHTO  H150  164   7.218   5.301   0.786
    1CHTO   C80  165   7.334   5.256   0.963
    1CHTO  H152  166   7.359   5.166   1.025
    1CHTO   O55  167   7.455   5.311   0.909
    1CHTO  H134  168   7.508   5.243   0.871
    1CHTO   C84  169   7.257   5.361   1.053
    1CHTO  H156  170   7.242   5.449   0.991
    1CHTO   N15  171   7.335   5.405   1.174
    1CHTO  H143  172   7.431   5.358   1.178
    1CHTO  H144  173   7.349   5.512   1.172
    1CHTO   C87  174   7.118   5.306   1.095
    1CHTO  H159  175   7.131   5.227   1.169
    1CHTO   O53  176   7.042   5.249   0.972
    1CHTO   C82  177   7.114   5.150   0.897
    1CHTO  H154  178   7.135   5.064   0.960
    1CHTO   C89  179   7.025   5.100   0.780
    1CHTO   O59  180   6.985   5.206   0.692
    1CHTO  H137  181   6.926   5.264   0.736
    1CHTO   O45  182   7.018   5.423   1.162
    1CHTO   C67  183   7.011   5.553   1.099
    1CHTO  H124  184   7.111   5.595   1.088
    1CHTO   C65  185   6.941   5.548   0.959
    1CHTO  H122  186   6.992   5.470   0.903
    1CHTO   O44  187   6.958   5.672   0.889
    1CHTO  H102  188   7.049   5.688   0.872
    1CHTO   C63  189   6.793   5.500   0.979
    1CHTO  H120  190   6.794   5.407   1.036
    1CHTO   N11  191   6.721   5.458   0.854
    1CHTO  H108  192   6.779   5.386   0.801
    1CHTO  H109  193   6.626   5.416   0.879
    1CHTO   C61  194   6.717   5.606   1.067
    1CHTO  H118  195   6.623   5.556   1.097
    1CHTO   O40  196   6.787   5.639   1.191
    1CHTO   C68  197   6.933   5.651   1.197
    1CHTO  H125  198   6.962   5.622   1.301
    1CHTO   C72  199   6.973   5.800   1.180
    1CHTO   O48  200   7.113   5.824   1.201
    1CHTO  H105  201   7.163   5.784   1.132
    1CHTO   O38  202   6.686   5.728   0.995
    1CHTO   C55  203   6.567   5.799   1.038
    1CHTO  H112  204   6.557   5.790   1.147
    1CHTO   C56  205   6.437   5.746   0.962
    1CHTO  H113  206   6.457   5.753   0.854
    1CHTO   O42  207   6.416   5.606   0.990
    1CHTO  H100  208   6.403   5.593   1.082
    1CHTO   C57  209   6.309   5.831   1.000
    1CHTO  H114  210   6.287   5.808   1.104
    1CHTO   N10  211   6.188   5.796   0.921
    1CHTO  H106  212   6.099   5.816   0.979
    1CHTO  H107  213   6.184   5.853   0.829
    1CHTO   C58  214   6.340   5.983   0.989
    1CHTO  H115  215   6.350   6.011   0.881
    1CHTO   O37  216   6.462   6.017   1.058
    1CHTO   C59  217   6.579   5.952   1.008
    1CHTO  H116  218   6.589   5.969   0.901
    1CHTO   C70  219   6.700   6.015   1.078
    1CHTO   O46  220   6.717   6.154   1.046
    1CHTO  H103  221   6.645   6.203   1.080
    1CHTO   O39  222   6.223   6.069   1.060
    1CHTO   C60  223   6.234   6.211   1.038
    1CHTO  H117  224   6.339   6.240   1.040
    1CHTO   C62  225   6.175   6.251   0.900
    1CHTO  H119  226   6.232   6.194   0.823
    1CHTO   O43  227   6.037   6.211   0.891
    1CHTO  H101  228   6.003   6.230   0.806
    1CHTO   C66  229   6.198   6.408   0.876
    1CHTO  H123  230   6.305   6.429   0.886
    1CHTO   N12  231   6.160   6.452   0.739
    1CHTO  H110  232   6.245   6.496   0.689
    1CHTO  H111  233   6.118   6.370   0.682
    1CHTO   C69  234   6.127   6.490   0.987
    1CHTO  H126  235   6.017   6.479   0.978
    1CHTO   O41  236   6.172   6.439   1.130
    1CHTO   C64  237   6.163   6.288   1.152
    1CHTO  H121  238   6.057   6.257   1.154
    1CHTO   C71  239   6.226   6.254   1.289
    1CHTO   O47  240   6.150   6.310   1.396
    1CHTO  H104  241   6.187   6.284   1.478
    1CHTO   O34  242   6.163   6.641   0.978
    1CHTO   C49  243   6.118   6.786   0.984
    1CHTO   H91  244   6.021   6.786   1.034
    1CHTO   C47  245   6.103   6.838   0.840
    1CHTO   H89  246   6.063   6.942   0.847
    1CHTO   O33  247   6.006   6.757   0.771
    1CHTO   H70  248   5.992   6.790   0.684
    1CHTO   C45  249   6.249   6.839   0.771
    1CHTO   H87  250   6.292   6.738   0.781
    1CHTO    N8  251   6.246   6.874   0.627
    1CHTO   H75  252   6.344   6.863   0.584
    1CHTO   H76  253   6.212   6.976   0.614
    1CHTO   C43  254   6.346   6.935   0.857
    1CHTO   H85  255   6.446   6.923   0.814
    1CHTO   O29  256   6.345   6.898   0.997
    1CHTO   C50  257   6.219   6.874   1.063
    1CHTO   H92  258   6.241   6.821   1.157
    1CHTO   C54  259   6.157   7.008   1.113
    1CHTO   O36  260   6.041   6.988   1.195
    1CHTO   H72  261   5.970   6.958   1.142
    1CHTO   O27  262   6.312   7.074   0.841
    1CHTO   C37  263   6.352   7.211   0.857
    1CHTO   H79  264   6.339   7.242   0.961
    1CHTO   C38  265   6.501   7.232   0.819
    1CHTO   H80  266   6.518   7.190   0.718
    1CHTO   O31  267   6.582   7.158   0.912
    1CHTO   H68  268   6.571   7.066   0.900
    1CHTO   C39  269   6.540   7.385   0.818
    1CHTO   H81  270   6.540   7.419   0.922
    1CHTO    N7  271   6.678   7.411   0.764
    1CHTO   H73  272   6.701   7.516   0.769
    1CHTO   H74  273   6.751   7.355   0.822
    1CHTO   C40  274   6.433   7.472   0.741
    1CHTO   H82  275   6.443   7.459   0.633
    1CHTO   O26  276   6.300   7.440   0.787
    1CHTO   C41  277   6.264   7.300   0.766
    1CHTO   H83  278   6.280   7.273   0.661
    1CHTO   C52  279   6.113   7.283   0.797
    1CHTO   O35  280   6.027   7.362   0.704
    1CHTO   H71  281   6.041   7.453   0.717
    1CHTO   O28  282   6.443   7.612   0.775
    1CHTO   C42  283   6.447   7.721   0.676
    1CHTO   H84  284   6.486   7.676   0.585
    1CHTO   C44  285   6.546   7.836   0.714
    1CHTO   H86  286   6.522   7.870   0.815
    1CHTO   O32  287   6.678   7.779   0.717
    1CHTO   H69  288   6.686   7.720   0.790
    1CHTO   C48  289   6.538   7.962   0.617
    1CHTO   H90  290   6.577   7.933   0.520
    1CHTO    N9  291   6.626   8.075   0.665
    1CHTO   H77  292   6.729   8.042   0.670
    1CHTO   H78  293   6.617   8.159   0.598
    1CHTO   C51  294   6.388   8.005   0.601
    1CHTO   H93  295   6.351   8.030   0.701
    1CHTO   O30  296   6.318   7.893   0.546
    1CHTO   C46  297   6.305   7.779   0.642
    1CHTO   H88  298   6.260   7.816   0.733
    1CHTO   C53  299   6.213   7.675   0.575
    1CHTO   O72  300   6.080   7.726   0.559
    1CHTO  H199  301   6.038   7.733   0.643
    1CHTO   O22  302   6.367   8.120   0.515
    1CHTO   C31  303   6.334   8.124   0.371
    1CHTO   H59  304   6.334   8.232   0.344
    1CHTO   C29  305   6.437   8.055   0.280
    1CHTO   H57  306   6.445   7.949   0.312
    1CHTO   O21  307   6.566   8.114   0.305
    1CHTO   H37  308   6.567   8.204   0.277
    1CHTO   C27  309   6.396   8.059   0.127
    1CHTO   H55  310   6.397   8.164   0.094
    1CHTO    N5  311   6.489   7.981   0.041
    1CHTO   H43  312   6.460   7.992   2.811
    1CHTO   H44  313   6.488   7.877   0.070
    1CHTO   C25  314   6.249   8.008   0.114
    1CHTO   H53  315   6.246   7.904   0.152
    1CHTO   O17  316   6.161   8.089   0.198
    1CHTO   C32  317   6.189   8.074   0.338
    1CHTO   H60  318   6.180   7.968   0.364
    1CHTO   C36  319   6.079   8.152   0.415
    1CHTO   O25  320   6.082   8.125   0.556
    1CHTO   H40  321   6.160   8.161   0.594
    1CHTO   O15  322   6.195   8.010   2.833
    1CHTO   C19  323   6.099   7.940   2.747
    1CHTO   H47  324   6.003   7.952   2.799
    1CHTO   C20  325   6.087   8.001   2.603
    1CHTO   H48  326   6.184   8.000   2.550
    1CHTO   O19  327   6.047   8.138   2.619
    1CHTO   H35  328   6.048   8.182   2.536
    1CHTO   C21  329   5.983   7.921   2.514
    1CHTO   H49  330   5.884   7.932   2.558
    1CHTO    N4  331   5.974   7.971   2.374
    1CHTO   H41  332   5.900   7.914   2.319
    1CHTO   H42  333   5.945   8.075   2.375
    1CHTO   C22  334   6.019   7.770   2.519
    1CHTO   H50  335   6.118   7.756   2.474
    1CHTO   O14  336   6.021   7.727   2.656
    1CHTO   C23  337   6.124   7.786   2.736
    1CHTO   H51  338   6.221   7.763   2.690
    1CHTO   C34  339   6.118   7.715   2.871
    1CHTO   O23  340   6.140   7.575   2.854
    1CHTO   H38  341   6.141   7.533   0.064
    1CHTO   O16  342   5.922   7.683   2.456
    1CHTO   C24  343   5.977   7.529   2.444
    1CHTO   H52  344   6.064   7.512   2.507
    1CHTO   C26  345   6.014   7.500   2.297
    1CHTO   H54  346   5.925   7.523   2.234
    1CHTO   O20  347   6.120   7.590   2.259
    1CHTO   H36  348   6.090   7.678   2.258
    1CHTO   C30  349   6.054   7.351   2.277
    1CHTO   H58  350   6.152   7.334   2.323
    1CHTO    N6  351   6.072   7.318   2.133
    1CHTO   H45  352   6.149   7.380   2.090
    1CHTO   H46  353   6.100   7.214   2.122
    1CHTO   C33  354   5.955   7.252   2.348
    1CHTO   H61  355   5.861   7.246   2.291
    1CHTO   O18  356   5.925   7.298   2.482
    1CHTO   C28  357   5.868   7.429   2.489
    1CHTO   H56  358   5.781   7.438   2.423
    1CHTO   C35  359   5.822   7.458   2.634
    1CHTO   O24  360   5.715   7.372   2.676
    1CHTO   H39  361   5.686   7.398   2.761
    1CHTO    O9  362   6.010   7.118   2.348
    1CHTO   C13  363   5.937   7.008   2.445
    1CHTO   H26  364   5.847   7.055   2.490
    1CHTO   C11  365   6.041   6.962   2.557
    1CHTO   H24  366   6.052   7.046   2.628
    1CHTO    O8  367   6.169   6.937   2.496
    1CHTO    H3  368   6.233   6.918   2.563
    1CHTO    C9  369   5.982   6.839   2.630
    1CHTO   H22  370   5.883   6.870   2.667
    1CHTO    N2  371   6.057   6.804   2.754
    1CHTO   H10  372   6.065   6.891   2.818
    1CHTO   H11  373   6.006   6.724   2.806
    1CHTO    C7  374   5.961   6.719   2.528
    1CHTO   H20  375   5.860   6.682   2.554
    1CHTO    O4  376   5.961   6.762   2.390
    1CHTO   C14  377   5.883   6.880   2.364
    1CHTO   H27  378   5.778   6.860   2.397
    1CHTO   C18  379   5.879   6.901   2.211
    1CHTO   O13  380   5.786   7.002   2.174
    1CHTO    H7  381   5.698   6.972   2.189
    1CHTO    O2  382   6.073   6.595   2.544
    1CHTO    C1  383   6.031   6.463   2.501
    1CHTO   H14  384   5.975   6.472   2.406
    1CHTO    C2  385   5.940   6.388   2.608
    1CHTO   H15  386   5.991   6.399   2.704
    1CHTO    O6  387   5.811   6.453   2.615
    1CHTO    H1  388   5.820   6.539   2.652
    1CHTO    C3  389   5.923   6.233   2.572
    1CHTO   H16  390   5.867   6.224   2.477
    1CHTO    N1  391   5.844   6.157   2.675
    1CHTO    H8  392   5.812   6.222   2.755
    1CHTO    H9  393   5.902   6.076   2.717
    1CHTO    C4  394   6.064   6.170   2.544
    1CHTO   H17  395   6.123   6.175   2.636
    1CHTO    O1  396   6.130   6.243   2.439
    1CHTO    C5  397   6.160   6.380   2.471
    1CHTO   H18  398   6.225   6.383   2.559
    1CHTO   C16  399   6.239   6.434   2.349
    1CHTO   O11  400   6.294   6.565   2.373
    1CHTO    H5  401   6.337   6.595   2.295
    1CHTO    O3  402   6.055   6.034   2.497
    1CHTO    C6  403   6.160   5.941   2.542
    1CHTO   H19  404   6.252   5.993   2.571
    1CHTO    C8  405   6.111   5.856   2.664
    1CHTO   H21  406   6.014   5.812   2.639
    1CHTO    O7  407   6.094   5.945   2.776
    1CHTO    H2  408   6.022   6.003   2.761
    1CHTO   C12  409   6.211   5.738   2.696
    1CHTO   H25  410   6.305   5.786   2.731
    1CHTO    N3  411   6.162   5.652   2.808
    1CHTO   H12  412   6.234   5.574   2.830
    1CHTO   H13  413   6.067   5.608   2.782
    1CHTO   C15  414   6.242   5.659   2.564
    1CHTO   H28  415   6.153   5.607   2.527
    1CHTO   O10  416   6.357   5.558   2.579
    1CHTO    H4  417   6.334   5.493   2.642
    1CHTO    O5  418   6.292   5.748   2.463
    1CHTO   C10  419   6.196   5.848   2.423
    1CHTO   H23  420   6.106   5.797   2.387
    1CHTO   C17  421   6.255   5.927   2.305
    1CHTO   O12  422   6.275   5.844   2.190
    1CHTO    H6  423   6.192   5.821   2.153
    2CHTO  H203  424   4.564   3.398   0.819
    2CHTO   O82  425   4.566   3.438   0.734
    2CHTO  C123  426   4.602   3.576   0.746
    2CHTO  H227  427   4.701   3.584   0.794
    2CHTO   O77  428   4.611   3.620   0.607
    2CHTO  C118  429   4.663   3.753   0.591
    2CHTO  H222  430   4.762   3.760   0.639
    2CHTO  C125  431   4.679   3.779   0.437
    2CHTO   O84  432   4.779   3.695   0.379
    2CHTO  H205  433   4.795   3.722   0.291
    2CHTO  C114  434   4.568   3.856   0.656
    2CHTO  H218  435   4.474   3.857   0.600
    2CHTO  C116  436   4.534   3.818   0.804
    2CHTO  H220  437   4.624   3.839   0.867
    2CHTO   O79  438   4.430   3.903   0.854
    2CHTO  H201  439   4.459   3.992   0.859
    2CHTO  C120  440   4.495   3.665   0.820
    2CHTO  H224  441   4.396   3.652   0.771
    2CHTO   N21  442   4.479   3.625   0.962
    2CHTO  H211  443   4.545   3.682   1.026
    2CHTO  H212  444   4.495   3.519   0.975
    2CHTO   O75  445   4.637   3.982   0.642
    2CHTO  C112  446   4.548   4.124   0.609
    2CHTO  H216  447   4.614   4.210   0.630
    2CHTO   O73  448   4.432   4.125   0.693
    2CHTO  C113  449   4.358   4.248   0.685
    2CHTO  H217  450   4.426   4.332   0.707
    2CHTO  C124  451   4.250   4.249   0.794
    2CHTO   O83  452   4.158   4.140   0.786
    2CHTO  H204  453   4.096   4.146   0.855
    2CHTO  C109  454   4.298   4.266   0.542
    2CHTO  H213  455   4.224   4.186   0.528
    2CHTO  C110  456   4.410   4.255   0.435
    2CHTO  H214  457   4.469   4.347   0.438
    2CHTO   O78  458   4.348   4.251   0.305
    2CHTO  H200  459   4.413   4.251   0.237
    2CHTO  C111  460   4.503   4.132   0.458
    2CHTO  H215  461   4.446   4.041   0.435
    2CHTO   N19  462   4.622   4.133   0.368
    2CHTO  H207  463   4.679   4.223   0.383
    2CHTO  H208  464   4.590   4.125   0.265
    2CHTO   O74  465   4.231   4.396   0.534
    2CHTO  C115  466   4.100   4.396   0.446
    2CHTO  H219  467   4.104   4.320   0.368
    2CHTO   O76  468   3.974   4.358   0.531
    2CHTO  C122  469   3.948   4.455   0.634
    2CHTO  H226  470   4.035   4.456   0.700
    2CHTO  C126  471   3.828   4.405   0.722
    2CHTO   O85  472   3.707   4.388   0.648
    2CHTO  H206  473   3.672   4.472   0.625
    2CHTO  C121  474   3.923   4.600   0.575
    2CHTO  H225  475   3.818   4.629   0.594
    2CHTO   O81  476   4.007   4.695   0.643
    2CHTO  H202  477   3.980   4.704   0.732
    2CHTO  C119  478   3.949   4.607   0.421
    2CHTO  H223  479   3.870   4.548   0.374
    2CHTO  C117  480   4.087   4.540   0.382
    2CHTO  H221  481   4.175   4.595   0.417
    2CHTO   N20  482   4.103   4.535   0.232
    2CHTO  H209  483   4.097   4.634   0.191
    2CHTO  H210  484   4.027   4.472   0.189
    2CHTO   O80  485   3.922   4.753   0.360
    2CHTO  C103  486   3.775   4.795   0.310
    2CHTO  H190  487   3.758   4.758   0.209
    2CHTO  C101  488   3.654   4.753   0.402
    2CHTO  H188  489   3.679   4.774   0.506
    2CHTO   O68  490   3.629   4.598   0.387
    2CHTO  H168  491   3.706   4.550   0.413
    2CHTO   C99  492   3.521   4.835   0.366
    2CHTO  H186  493   3.489   4.809   0.263
    2CHTO   N17  494   3.405   4.803   0.456
    2CHTO  H174  495   3.385   4.697   0.454
    2CHTO  H175  496   3.318   4.859   0.425
    2CHTO   C97  497   3.554   4.987   0.363
    2CHTO  H184  498   3.583   5.020   0.464
    2CHTO   O64  499   3.657   5.010   0.266
    2CHTO  C104  500   3.785   4.953   0.301
    2CHTO  H191  501   3.822   4.993   0.396
    2CHTO  C108  502   3.884   4.999   0.193
    2CHTO   O71  503   4.020   4.987   0.235
    2CHTO  H171  504   4.077   5.018   0.167
    2CHTO   O62  505   3.447   5.069   0.310
    2CHTO   C91  506   3.365   5.142   0.404
    2CHTO  H178  507   3.351   5.080   0.492
    2CHTO   C92  508   3.224   5.159   0.339
    2CHTO  H179  509   3.193   5.065   0.291
    2CHTO   O66  510   3.128   5.182   0.443
    2CHTO  H166  511   3.148   5.260   0.491
    2CHTO   C93  512   3.216   5.280   0.237
    2CHTO  H180  513   3.109   5.294   0.216
    2CHTO   N16  514   3.277   5.254   0.104
    2CHTO  H172  515   3.318   5.154   0.100
    2CHTO  H173  516   3.204   5.268   0.026
    2CHTO   C94  517   3.273   5.412   0.304
    2CHTO  H181  518   3.354   5.456   0.246
    2CHTO   O61  519   3.325   5.391   0.437
    2CHTO   C95  520   3.422   5.285   0.448
    2CHTO  H182  521   3.508   5.309   0.386
    2CHTO  C106  522   3.473   5.279   0.597
    2CHTO   O69  523   3.542   5.399   0.633
    2CHTO  H169  524   3.566   5.395   0.724
    2CHTO   O63  525   3.154   5.512   0.313
    2CHTO   C96  526   3.192   5.658   0.351
    2CHTO  H183  527   3.300   5.663   0.366
    2CHTO   C98  528   3.122   5.707   0.481
    2CHTO  H185  529   3.016   5.680   0.477
    2CHTO   O67  530   3.177   5.632   0.591
    2CHTO  H167  531   3.268   5.652   0.603
    2CHTO  C102  532   3.137   5.866   0.506
    2CHTO  H189  533   3.243   5.883   0.530
    2CHTO   N18  534   3.060   5.920   0.621
    2CHTO  H176  535   3.004   5.841   0.670
    2CHTO  H177  536   3.127   5.966   0.693
    2CHTO  C105  537   3.104   5.940   0.374
    2CHTO  H192  538   2.998   5.925   0.350
    2CHTO   O65  539   3.182   5.890   0.264
    2CHTO  C100  540   3.156   5.753   0.231
    2CHTO  H187  541   3.049   5.742   0.208
    2CHTO  C107  542   3.236   5.717   0.103
    2CHTO   O70  543   3.191   5.793   2.865
    2CHTO  H170  544   3.239   5.769   2.789
    2CHTO   O57  545   3.136   6.099   0.393
    2CHTO   C85  546   3.050   6.193   0.326
    2CHTO  H157  547   2.946   6.164   0.353
    2CHTO   C83  548   3.059   6.175   0.170
    2CHTO  H155  549   3.024   6.074   0.145
    2CHTO   O56  550   3.197   6.182   0.129
    2CHTO  H135  551   3.246   6.110   0.165
    2CHTO   C81  552   2.967   6.279   0.101
    2CHTO  H153  553   2.865   6.265   0.139
    2CHTO   N14  554   2.954   6.258   2.828
    2CHTO  H141  555   2.854   6.229   2.802
    2CHTO  H142  556   3.022   6.183   2.793
    2CHTO   C79  557   3.013   6.424   0.138
    2CHTO  H151  558   2.941   6.493   0.094
    2CHTO   O52  559   3.007   6.443   0.284
    2CHTO   C86  560   3.081   6.344   0.362
    2CHTO  H158  561   3.187   6.367   0.344
    2CHTO   C90  562   3.057   6.367   0.513
    2CHTO   O60  563   3.107   6.495   0.554
    2CHTO  H138  564   3.090   6.508   0.645
    2CHTO   O50  565   3.144   6.458   0.090
    2CHTO   C73  566   3.202   6.579   0.042
    2CHTO  H145  567   3.148   6.666   0.083
    2CHTO   C74  568   3.194   6.585   2.760
    2CHTO  H146  569   3.088   6.578   2.732
    2CHTO   O54  570   3.238   6.716   2.716
    2CHTO  H133  571   3.328   6.730   2.738
    2CHTO   C75  572   3.280   6.467   2.700
    2CHTO  H147  573   3.236   6.372   2.734
    2CHTO   N13  574   3.277   6.459   2.551
    2CHTO  H139  575   3.176   6.445   2.517
    2CHTO  H140  576   3.315   6.551   2.509
    2CHTO   C76  577   3.429   6.473   2.757
    2CHTO  H148  578   3.476   6.563   2.717
    2CHTO   O49  579   3.428   6.480   0.030
    2CHTO   C77  580   3.351   6.588   0.086
    2CHTO  H149  581   3.392   6.684   0.055
    2CHTO   C88  582   3.368   6.582   0.239
    2CHTO   O58  583   3.289   6.688   0.308
    2CHTO  H136  584   3.197   6.671   0.297
    2CHTO   O51  585   3.512   6.334   2.712
    2CHTO   C78  586   3.592   6.258   2.828
    2CHTO  H150  587   3.547   6.276   0.054
    2CHTO   C80  588   3.739   6.305   2.830
    2CHTO  H152  589   3.785   6.284   2.730
    2CHTO   O55  590   3.740   6.447   2.851
    2CHTO  H134  591   3.706   6.492   2.776
    2CHTO   C84  592   3.821   6.231   0.068
    2CHTO  H156  593   3.784   6.266   0.164
    2CHTO   N15  594   3.968   6.265   0.065
    2CHTO  H143  595   3.981   6.370   0.081
    2CHTO  H144  596   4.010   6.238   2.845
    2CHTO   C87  597   3.800   6.077   0.062
    2CHTO  H159  598   3.858   6.034   2.854
    2CHTO   O53  599   3.649   6.042   0.042
    2CHTO   C82  600   3.587   6.106   2.804
    2CHTO  H154  601   3.636   6.078   2.711
    2CHTO   C89  602   3.441   6.053   2.797
    2CHTO   O59  603   3.375   6.090   2.676
    2CHTO  H137  604   3.359   6.183   2.675
    2CHTO   O45  605   3.852   6.003   0.204
    2CHTO   C67  606   3.764   6.018   0.317
    2CHTO  H124  607   3.710   6.112   0.309
    2CHTO   C65  608   3.658   5.900   0.324
    2CHTO  H122  609   3.688   5.828   0.248
    2CHTO   O44  610   3.530   5.955   0.287
    2CHTO  H102  611   3.497   6.011   0.355
    2CHTO   C63  612   3.663   5.821   0.460
    2CHTO  H120  613   3.760   5.772   0.468
    2CHTO   N11  614   3.570   5.705   0.472
    2CHTO  H108  615   3.582   5.639   0.389
    2CHTO  H109  616   3.589   5.652   0.563
    2CHTO   C61  617   3.656   5.925   0.578
    2CHTO  H118  618   3.679   5.870   0.671
    2CHTO   O40  619   3.754   6.032   0.567
    2CHTO   C68  620   3.846   6.028   0.453
    2CHTO  H125  621   3.914   5.941   0.464
    2CHTO   C72  622   3.934   6.155   0.461
    2CHTO   O48  623   4.048   6.150   0.375
    2CHTO  H105  624   4.108   6.084   0.405
    2CHTO   O38  625   3.525   5.987   0.588
    2CHTO   C55  626   3.496   6.060   0.709
    2CHTO  H112  627   3.589   6.101   0.752
    2CHTO   C56  628   3.418   5.969   0.813
    2CHTO  H113  629   3.332   5.925   0.759
    2CHTO   O42  630   3.500   5.858   0.853
    2CHTO  H100  631   3.578   5.889   0.896
    2CHTO   C57  632   3.368   6.054   0.937
    2CHTO  H114  633   3.456   6.088   0.991
    2CHTO   N10  634   3.284   5.977   1.032
    2CHTO  H106  635   3.228   5.900   0.980
    2CHTO  H107  636   3.346   5.930   1.107
    2CHTO   C58  637   3.291   6.178   0.885
    2CHTO  H115  638   3.199   6.144   0.831
    2CHTO   O37  639   3.373   6.254   0.795
    2CHTO   C59  640   3.409   6.185   0.674
    2CHTO  H116  641   3.319   6.155   0.620
    2CHTO   C70  642   3.489   6.280   0.584
    2CHTO   O46  643   3.412   6.394   0.541
    2CHTO  H103  644   3.345   6.366   0.481
    2CHTO   O39  645   3.250   6.282   1.008
    2CHTO   C60  646   3.117   6.335   0.995
    2CHTO  H117  647   3.086   6.333   0.890
    2CHTO   C62  648   3.014   6.251   1.077
    2CHTO  H119  649   3.020   6.147   1.037
    2CHTO   O43  650   3.053   6.248   1.216
    2CHTO  H101  651   3.134   6.201   1.226
    2CHTO   C66  652   2.866   6.308   1.054
    2CHTO  H123  653   2.845   6.307   0.947
    2CHTO   N12  654   2.762   6.223   1.116
    2CHTO  H110  655   2.767   6.123   1.076
    2CHTO  H111  656   2.664   6.266   1.101
    2CHTO   C69  657   2.857   6.456   1.101
    2CHTO  H126  658   2.872   6.462   1.211
    2CHTO   O41  659   2.970   6.541   1.028
    2CHTO   C64  660   3.113   6.483   1.040
    2CHTO  H121  661   3.148   6.490   1.145
    2CHTO   C71  662   3.208   6.568   0.952
    2CHTO   O47  663   3.217   6.702   0.999
    2CHTO  H104  664   3.264   6.705   1.080
    2CHTO   O34  665   2.714   6.518   1.064
    2CHTO   C49  666   2.604   6.603   1.134
    2CHTO   H91  667   2.583   6.555   1.230
    2CHTO   C47  668   2.477   6.602   1.046
    2CHTO   H89  669   2.397   6.653   1.104
    2CHTO   O33  670   2.438   6.465   1.025
    2CHTO   H70  671   2.356   6.462   0.978
    2CHTO   C45  672   2.507   6.682   0.909
    2CHTO   H87  673   2.591   6.633   0.859
    2CHTO    N8  674   2.391   6.680   0.816
    2CHTO   H75  675   2.307   6.733   0.860
    2CHTO   H76  676   2.362   6.578   0.795
    2CHTO   C43  677   2.559   6.832   0.941
    2CHTO   H85  678   2.594   6.871   0.846
    2CHTO   O29  679   2.664   6.830   1.040
    2CHTO   C50  680   2.649   6.749   1.158
    2CHTO   H92  681   2.749   6.743   1.204
    2CHTO   C54  682   2.564   6.818   1.267
    2CHTO   O36  683   2.626   6.939   1.312
    2CHTO   H72  684   2.572   6.979   1.378
    2CHTO   O27  685   2.455   6.921   0.985
    2CHTO   C37  686   2.378   7.042   0.965
    2CHTO   H79  687   2.294   7.022   0.898
    2CHTO   C38  688   2.319   7.089   1.102
    2CHTO   H80  689   2.400   7.091   1.176
    2CHTO   O31  690   2.222   6.991   1.143
    2CHTO   H68  691   2.149   6.989   1.084
    2CHTO   C39  692   2.255   7.234   1.093
    2CHTO   H81  693   2.167   7.227   1.028
    2CHTO    N7  694   2.208   7.286   1.226
    2CHTO   H73  695   2.260   7.376   1.253
    2CHTO   H74  696   2.102   7.304   1.224
    2CHTO   C40  697   2.356   7.332   1.023
    2CHTO   H82  698   2.443   7.348   1.088
    2CHTO   O26  699   2.394   7.279   0.895
    2CHTO   C41  700   2.467   7.154   0.902
    2CHTO   H83  701   2.557   7.167   0.963
    2CHTO   C52  702   2.511   7.120   0.758
    2CHTO   O35  703   2.607   7.220   0.703
    2CHTO   H71  704   2.689   7.213   0.749
    2CHTO   O28  705   2.299   7.460   0.989
    2CHTO   C42  706   2.379   7.583   0.990
    2CHTO   H84  707   2.326   7.648   0.921
    2CHTO   C44  708   2.527   7.573   0.937
    2CHTO   H86  709   2.579   7.496   0.994
    2CHTO   O32  710   2.521   7.528   0.800
    2CHTO   H69  711   2.478   7.592   0.746
    2CHTO   C48  712   2.608   7.708   0.951
    2CHTO   H90  713   2.570   7.778   0.877
    2CHTO    N9  714   2.754   7.690   0.917
    2CHTO   H77  715   2.765   7.657   0.815
    2CHTO   H78  716   2.799   7.619   0.985
    2CHTO   C51  717   2.588   7.771   1.093
    2CHTO   H93  718   2.637   7.707   1.167
    2CHTO   O30  719   2.447   7.783   1.118
    2CHTO   C46  720   2.378   7.653   1.129
    2CHTO   H88  721   2.430   7.590   1.202
    2CHTO   C53  722   2.233   7.680   1.177
    2CHTO   O72  723   2.234   7.738   1.308
    2CHTO  H199  724   2.145   7.756   1.335
    2CHTO   O22  725   2.639   7.906   1.100
    2CHTO   C31  726   2.655   7.981   1.226
    2CHTO   H59  727   2.700   8.079   1.197
    2CHTO   C29  728   2.524   8.012   1.301
    2CHTO   H57  729   2.476   7.916   1.328
    2CHTO   O21  730   2.434   8.079   1.210
    2CHTO   H37  731   2.409   8.022   1.140
    2CHTO   C27  732   2.548   8.096   1.433
    2CHTO   H55  733   2.586   8.195   1.404
    2CHTO    N5  734   2.425   8.114   1.513
    2CHTO   H43  735   2.445   8.177   1.599
    2CHTO   H44  736   2.348   8.160   1.453
    2CHTO   C25  737   2.660   8.027   1.518
    2CHTO   H53  738   2.624   7.929   1.554
    2CHTO   O17  739   2.779   8.003   1.436
    2CHTO   C32  740   2.757   7.916   1.324
    2CHTO   H60  741   2.716   7.821   1.359
    2CHTO   C36  742   2.894   7.890   1.257
    2CHTO   O25  743   2.982   7.820   1.346
    2CHTO   H40  744   2.951   7.733   1.360
    2CHTO   O15  745   2.704   8.115   1.641
    2CHTO   C19  746   2.772   8.071   1.762
    2CHTO   H47  747   2.731   7.971   1.781
    2CHTO   C20  748   2.927   8.058   1.750
    2CHTO   H48  749   2.974   8.155   1.725
    2CHTO   O19  750   2.955   7.966   1.644
    2CHTO   H35  751   2.931   8.003   1.561
    2CHTO   C21  752   2.991   8.006   1.885
    2CHTO   H49  753   2.959   7.903   1.901
    2CHTO    N4  754   3.139   8.004   1.881
    2CHTO   H41  755   3.173   7.940   1.801
    2CHTO   H42  756   3.179   7.966   1.975
    2CHTO   C22  757   2.937   8.088   2.006
    2CHTO   H50  758   2.981   8.189   2.004
    2CHTO   O14  759   2.794   8.098   2.005
    2CHTO   C23  760   2.736   8.156   1.887
    2CHTO   H51  761   2.775   8.259   1.879
    2CHTO   C34  762   2.584   8.167   1.908
    2CHTO   O23  763   2.522   8.039   1.926
    2CHTO   H38  764   2.430   8.050   1.938
    2CHTO   O16  765   2.964   8.020   2.130
    2CHTO   C24  766   3.030   8.107   2.247
    2CHTO   H52  767   3.050   8.210   2.215
    2CHTO   C26  768   3.161   8.040   2.291
    2CHTO   H54  769   3.142   7.930   2.302
    2CHTO   O20  770   3.257   8.056   2.184
    2CHTO   H36  771   3.335   8.007   2.203
    2CHTO   C30  772   3.216   8.095   2.426
    2CHTO   H58  773   3.253   8.198   2.412
    2CHTO    N6  774   3.332   8.015   2.474
    2CHTO   H45  775   3.302   7.913   2.492
    2CHTO   H46  776   3.370   8.057   2.566
    2CHTO   C33  777   3.101   8.103   2.531
    2CHTO   H61  778   3.065   8.001   2.553
    2CHTO   O18  779   2.992   8.179   2.477
    2CHTO   C28  780   2.929   8.116   2.365
    2CHTO   H56  781   2.897   8.015   2.392
    2CHTO   C35  782   2.802   8.196   2.326
    2CHTO   O24  783   2.828   8.329   2.281
    2CHTO   H39  784   2.748   8.371   2.260
    2CHTO    O9  785   3.146   8.157   2.658
    2CHTO   C13  786   3.118   8.062   2.785
    2CHTO   H26  787   3.152   7.959   2.760
    2CHTO   C11  788   2.964   8.065   2.822
    2CHTO   H24  789   2.909   8.018   2.739
    2CHTO    O8  790   2.917   8.201   2.834
    2CHTO    H3  791   2.924   8.245   2.751
    2CHTO    C9  792   2.943   7.980   0.076
    2CHTO   H22  793   2.984   7.880   0.052
    2CHTO    N2  794   2.801   7.954   0.110
    2CHTO   H10  795   2.776   7.850   0.095
    2CHTO   H11  796   2.735   8.017   0.052
    2CHTO    C7  797   3.027   8.040   0.194
    2CHTO   H20  798   3.019   7.964   0.275
    2CHTO    O4  799   3.167   8.054   0.161
    2CHTO   C14  800   3.208   8.107   0.034
    2CHTO   H27  801   3.310   8.066   0.016
    2CHTO   C18  802   3.224   8.262   0.043
    2CHTO   O13  803   3.329   8.298   0.135
    2CHTO    H7  804   3.302   8.278   0.222
    2CHTO    O2  805   2.968   8.185   0.246
    2CHTO    C1  806   2.963   8.206   0.388
    2CHTO   H14  807   3.059   8.172   0.433
    2CHTO    C2  808   2.843   8.130   0.462
    2CHTO   H15  809   2.753   8.151   0.402
    2CHTO    O6  810   2.869   7.988   0.461
    2CHTO    H1  811   2.794   7.942   0.493
    2CHTO    C3  812   2.823   8.182   0.613
    2CHTO   H16  813   2.909   8.149   0.674
    2CHTO    N1  814   2.699   8.124   0.676
    2CHTO    H8  815   2.689   8.160   0.777
    2CHTO    H9  816   2.705   8.016   0.677
    2CHTO    C4  817   2.826   8.339   0.618
    2CHTO   H17  818   2.736   8.377   0.568
    2CHTO    O1  819   2.944   8.388   0.554
    2CHTO    C5  820   2.952   8.359   0.414
    2CHTO   H18  821   2.862   8.395   0.364
    2CHTO   C16  822   3.074   8.435   0.357
    2CHTO   O11  823   3.054   8.577   0.364
    2CHTO    H5  824   3.127   8.621   0.325
    2CHTO    O3  825   2.833   8.389   0.753
    2CHTO    C6  826   2.764   8.516   0.777
    2CHTO   H19  827   2.731   8.565   0.685
    2CHTO    C8  828   2.638   8.492   0.866
    2CHTO   H21  829   2.668   8.435   0.954
    2CHTO    O7  830   2.546   8.414   0.787
    2CHTO    H2  831   2.470   8.392   0.838
    2CHTO   C12  832   2.573   8.630   0.912
    2CHTO   H25  833   2.533   8.677   0.820
    2CHTO    N3  834   2.457   8.607   1.004
    2CHTO   H12  835   2.475   8.652   1.101
    2CHTO   H13  836   2.366   8.646   0.961
    2CHTO   C15  837   2.684   8.724   0.971
    2CHTO   H28  838   2.721   8.687   1.068
    2CHTO   O10  839   2.635   8.870   0.987
    2CHTO    H4  840   2.700   8.921   1.032
    2CHTO    O5  841   2.794   8.739   0.879
    2CHTO   C10  842   2.861   8.615   0.848
    2CHTO   H23  843   2.897   8.571   0.941
    2CHTO   C17  844   2.985   8.649   0.764
    2CHTO   O12  845   2.951   8.711   0.639
    2CHTO    H6  846   2.913   8.795   0.654
    3CHTO  H203  847   7.811   2.143   2.351
    3CHTO   O82  848   7.718   2.141   2.367
    3CHTO  C123  849   7.676   2.008   2.398
    3CHTO  H227  850   7.731   1.973   2.487
    3CHTO   O77  851   7.535   2.025   2.431
    3CHTO  C118  852   7.472   1.905   2.480
    3CHTO  H222  853   7.529   1.866   2.566
    3CHTO  C125  854   7.326   1.941   2.527
    3CHTO   O84  855   7.328   2.031   2.638
    3CHTO  H205  856   7.366   1.989   2.713
    3CHTO  C114  857   7.470   1.799   2.368
    3CHTO  H218  858   7.409   1.836   2.286
    3CHTO  C116  859   7.614   1.772   2.312
    3CHTO  H220  860   7.672   1.715   2.389
    3CHTO   O79  861   7.606   1.686   2.197
    3CHTO  H201  862   7.558   1.728   2.128
    3CHTO  C120  863   7.690   1.907   2.278
    3CHTO  H224  864   7.640   1.949   2.188
    3CHTO   N21  865   7.832   1.882   2.242
    3CHTO  H211  866   7.895   1.883   2.330
    3CHTO  H212  867   7.866   1.957   2.171
    3CHTO   O75  868   7.408   1.684   2.429
    3CHTO  C112  869   7.336   1.580   2.324
    3CHTO  H216  870   7.403   1.561   2.239
    3CHTO   O73  871   7.212   1.640   2.281
    3CHTO  C113  872   7.145   1.566   2.179
    3CHTO  H217  873   7.213   1.556   2.091
    3CHTO  C124  874   7.025   1.650   2.133
    3CHTO   O83  875   6.929   1.672   2.237
    3CHTO  H204  876   6.887   1.591   2.260
    3CHTO  C109  877   7.104   1.424   2.229
    3CHTO  H213  878   7.026   1.438   2.305
    3CHTO  C110  879   7.227   1.351   2.293
    3CHTO  H214  880   7.295   1.322   2.212
    3CHTO   O78  881   7.181   1.231   2.357
    3CHTO  H200  882   7.152   1.169   2.292
    3CHTO  C111  883   7.303   1.443   2.394
    3CHTO  H215  884   7.237   1.463   2.479
    3CHTO   N19  885   7.428   1.382   2.449
    3CHTO  H207  886   7.444   1.283   2.408
    3CHTO  H208  887   7.422   1.377   2.556
    3CHTO   O74  888   7.051   1.342   2.120
    3CHTO  C115  889   6.888   1.336   2.107
    3CHTO  H219  890   6.839   1.386   2.191
    3CHTO   O76  891   6.838   1.413   1.978
    3CHTO  C122  892   6.697   1.408   1.951
    3CHTO  H226  893   6.682   1.452   1.852
    3CHTO  C126  894   6.619   1.500   2.052
    3CHTO   O85  895   6.480   1.512   2.020
    3CHTO  H206  896   6.470   1.559   1.939
    3CHTO  C121  897   6.644   1.259   1.949
    3CHTO  H225  898   6.535   1.264   1.941
    3CHTO   O81  899   6.690   1.193   1.830
    3CHTO  H202  900   6.647   1.110   1.820
    3CHTO  C119  901   6.684   1.180   2.077
    3CHTO  H223  902   6.633   1.230   2.160
    3CHTO  C117  903   6.839   1.186   2.104
    3CHTO  H221  904   6.902   1.138   2.029
    3CHTO   N20  905   6.872   1.118   2.234
    3CHTO  H209  906   6.826   1.169   2.316
    3CHTO  H210  907   6.979   1.114   2.247
    3CHTO   O80  908   6.618   1.032   2.083
    3CHTO  C103  909   6.467   1.014   2.132
    3CHTO  H190  910   6.454   1.053   2.233
    3CHTO  C101  911   6.356   1.076   2.037
    3CHTO  H188  912   6.390   1.067   1.934
    3CHTO   O68  913   6.342   1.227   2.072
    3CHTO  H168  914   6.288   1.270   2.007
    3CHTO   C99  915   6.213   1.005   2.050
    3CHTO  H186  916   6.168   1.034   2.147
    3CHTO   N17  917   6.116   1.046   1.943
    3CHTO  H174  918   6.151   1.014   1.846
    3CHTO  H175  919   6.101   1.153   1.946
    3CHTO   C97  920   6.230   0.851   2.057
    3CHTO  H184  921   6.268   0.815   1.960
    3CHTO   O64  922   6.318   0.817   2.165
    3CHTO  C104  923   6.454   0.856   2.141
    3CHTO  H191  924   6.493   0.811   2.050
    3CHTO  C108  925   6.541   0.802   2.256
    3CHTO   O71  926   6.533   0.659   2.265
    3CHTO  H171  927   6.447   0.634   2.292
    3CHTO   O62  928   6.106   0.785   2.092
    3CHTO   C91  929   6.084   0.654   2.038
    3CHTO  H178  930   6.129   0.650   1.939
    3CHTO   C92  931   5.930   0.642   2.015
    3CHTO  H179  932   5.879   0.681   2.105
    3CHTO   O66  933   5.896   0.732   1.907
    3CHTO  H166  934   5.908   0.821   1.934
    3CHTO   C93  935   5.884   0.495   1.985
    3CHTO  H180  936   5.927   0.467   1.888
    3CHTO   N16  937   5.736   0.484   1.969
    3CHTO  H172  938   5.692   0.420   2.044
    3CHTO  H173  939   5.712   0.448   1.870
    3CHTO   C94  940   5.938   0.394   2.094
    3CHTO  H181  941   5.859   0.363   2.164
    3CHTO   O61  942   6.039   0.450   2.181
    3CHTO   C95  943   6.141   0.536   2.127
    3CHTO  H182  944   6.195   0.581   2.210
    3CHTO  C106  945   6.250   0.454   2.047
    3CHTO   O69  946   6.317   0.360   2.132
    3CHTO  H169  947   6.258   0.290   2.155
    3CHTO   O63  948   6.000   0.265   2.021
    3CHTO   C96  949   5.920   0.127   2.038
    3CHTO  H183  950   5.983   0.049   1.998
    3CHTO   C98  951   5.784   0.120   1.963
    3CHTO  H185  952   5.720   0.205   1.994
    3CHTO   O67  953   5.810   0.139   1.823
    3CHTO  H167  954   5.839   0.227   1.807
    3CHTO  C102  955   5.707   9.982   1.987
    3CHTO  H189  956   5.764   9.906   1.932
    3CHTO   N18  957   5.569   9.978   1.931
    3CHTO  H176  958   5.572   9.996   1.825
    3CHTO  H177  959   5.524   9.881   1.949
    3CHTO  C105  960   5.710   9.945   2.139
    3CHTO  H192  961   5.638   0.007   2.192
    3CHTO   O65  962   5.838   9.961   2.200
    3CHTO  C100  963   5.894   0.093   2.190
    3CHTO  H187  964   5.821   0.164   2.232
    3CHTO  C107  965   6.022   0.100   2.277
    3CHTO   O70  966   6.123   0.007   2.236
    3CHTO  H170  967   6.093   9.919   2.252
    3CHTO   O57  968   5.668   9.787   2.144
    3CHTO   C85  969   5.614   9.720   2.259
    3CHTO  H157  970   5.606   9.616   2.226
    3CHTO   C83  971   5.467   9.764   2.288
    3CHTO  H155  972   5.410   9.752   2.197
    3CHTO   O56  973   5.460   9.905   2.320
    3CHTO  H135  974   5.506   9.923   2.399
    3CHTO   C81  975   5.410   9.670   2.398
    3CHTO  H153  976   5.421   9.567   2.363
    3CHTO   N14  977   5.264   9.688   2.416
    3CHTO  H141  978   5.240   9.707   2.519
    3CHTO  H142  979   5.211   9.601   2.384
    3CHTO   C79  980   5.495   9.686   2.530
    3CHTO  H151  981   5.460   9.610   2.600
    3CHTO   O52  982   5.637   9.659   2.505
    3CHTO   C86  983   5.696   9.733   2.393
    3CHTO  H158  984   5.701   9.838   2.427
    3CHTO   C90  985   5.842   9.688   2.372
    3CHTO   O60  986   5.926   9.734   2.478
    3CHTO  H138  987   5.937   9.827   2.472
    3CHTO   O50  988   5.482   9.815   2.592
    3CHTO   C73  989   5.491   9.883   2.718
    3CHTO  H145  990   5.559   9.829   2.786
    3CHTO   C74  991   5.350   9.891   2.784
    3CHTO  H146  992   5.314   9.787   2.799
    3CHTO   O54  993   5.364   9.948   0.042
    3CHTO  H133  994   5.411   9.889   0.098
    3CHTO   C75  995   5.253   9.973   2.690
    3CHTO  H147  996   5.242   9.918   2.596
    3CHTO   N13  997   5.115   9.988   2.743
    3CHTO  H139  998   5.044   9.946   2.674
    3CHTO  H140  999   5.091   0.092   2.759
    3CHTO   C76 1000   5.321   0.114   2.652
    3CHTO  H148 1001   5.319   0.178   2.740
    3CHTO   O49 1002   5.459   0.099   2.605
    3CHTO   C77 1003   5.545   0.027   2.694
    3CHTO  H149 1004   5.552   0.078   2.790
    3CHTO   C88 1005   5.687   0.028   2.635
    3CHTO   O58 1006   5.784   9.960   2.724
    3CHTO  H136 1007   5.869   9.962   2.685
    3CHTO   O51 1008   5.244   0.176   2.529
    3CHTO   C78 1009   5.276   0.326   2.507
    3CHTO  H150 1010   5.374   0.354   2.553
    3CHTO   C80 1011   5.165   0.414   2.568
    3CHTO  H152 1012   5.069   0.384   2.524
    3CHTO   O55 1013   5.159   0.385   2.709
    3CHTO  H134 1014   5.239   0.410   2.752
    3CHTO   C84 1015   5.190   0.567   2.541
    3CHTO  H156 1016   5.278   0.595   2.599
    3CHTO   N15 1017   5.077   0.654   2.590
    3CHTO  H143 1018   5.063   0.639   2.695
    3CHTO  H144 1019   5.099   0.757   2.571
    3CHTO   C87 1020   5.220   0.594   2.391
    3CHTO  H159 1021   5.128   0.588   2.332
    3CHTO   O53 1022   5.325   0.489   2.334
    3CHTO   C82 1023   5.288   0.352   2.355
    3CHTO  H154 1024   5.194   0.330   2.305
    3CHTO   C89 1025   5.396   0.260   2.293
    3CHTO   O59 1026   5.411   0.284   2.152
    3CHTO  H137 1027   5.476   0.226   2.118
    3CHTO   O45 1028   5.284   0.749   2.374
    3CHTO   C67 1029   5.427   0.758   2.379
    3CHTO  H124 1030   5.469   0.663   2.411
    3CHTO   C65 1031   5.484   0.792   2.236
    3CHTO  H122 1032   5.406   0.849   2.186
    3CHTO   O44 1033   5.500   0.666   2.169
    3CHTO  H102 1034   5.519   0.680   2.078
    3CHTO   C63 1035   5.609   0.889   2.241
    3CHTO  H120 1036   5.572   0.990   2.259
    3CHTO   N11 1037   5.682   0.908   2.112
    3CHTO  H108 1038   5.732   0.817   2.085
    3CHTO  H109 1039   5.613   0.935   2.034
    3CHTO   C61 1040   5.699   0.853   2.364
    3CHTO  H118 1041   5.779   0.929   2.367
    3CHTO   O40 1042   5.625   0.866   2.490
    3CHTO   C68 1043   5.478   0.863   2.486
    3CHTO  H125 1044   5.441   0.965   2.460
    3CHTO   C72 1045   5.427   0.830   2.628
    3CHTO   O48 1046   5.458   0.929   2.726
    3CHTO  H105 1047   5.551   0.931   2.740
    3CHTO   O38 1048   5.758   0.722   2.351
    3CHTO   C55 1049   5.837   0.672   2.462
    3CHTO  H112 1050   5.796   0.708   2.557
    3CHTO   C56 1051   5.991   0.709   2.445
    3CHTO  H113 1052   6.022   0.672   2.346
    3CHTO   O42 1053   6.007   0.852   2.442
    3CHTO  H100 1054   5.964   0.888   2.367
    3CHTO   C57 1055   6.077   0.643   2.560
    3CHTO  H114 1056   6.052   0.696   2.652
    3CHTO   N10 1057   6.224   0.659   2.541
    3CHTO  H106 1058   6.279   0.578   2.588
    3CHTO  H107 1059   6.248   0.662   2.436
    3CHTO   C58 1060   6.041   0.493   2.579
    3CHTO  H115 1061   6.084   0.433   2.495
    3CHTO   O37 1062   5.899   0.472   2.585
    3CHTO   C59 1063   5.827   0.517   2.469
    3CHTO  H116 1064   5.869   0.471   2.379
    3CHTO   C70 1065   5.681   0.471   2.481
    3CHTO   O46 1066   5.670   0.328   2.475
    3CHTO  H103 1067   5.580   0.304   2.474
    3CHTO   O39 1068   6.097   0.440   2.722
    3CHTO   C60 1069   6.102   0.296   2.735
    3CHTO  H117 1070   6.024   0.251   2.674
    3CHTO   C62 1071   6.240   0.240   2.689
    3CHTO  H119 1072   6.250   0.267   2.582
    3CHTO   O43 1073   6.345   0.306   2.763
    3CHTO  H101 1074   6.338   0.285   2.855
    3CHTO   C66 1075   6.242   0.080   2.705
    3CHTO  H123 1076   6.159   0.038   2.648
    3CHTO   N12 1077   6.365   0.018   2.649
    3CHTO  H110 1078   6.431   0.093   2.607
    3CHTO  H111 1079   6.340   9.944   2.575
    3CHTO   C69 1080   6.219   0.044   2.854
    3CHTO  H126 1081   6.300   0.089   0.042
    3CHTO   O41 1082   6.081   0.103   0.024
    3CHTO   C64 1083   6.074   0.255   0.009
    3CHTO  H121 1084   6.151   0.302   0.074
    3CHTO   C71 1085   5.936   0.305   0.058
    3CHTO   O47 1086   5.827   0.249   2.857
    3CHTO  H104 1087   5.829   0.281   2.769
    3CHTO   O34 1088   6.219   9.889   0.008
    3CHTO   C49 1089   6.225   9.744   2.841
    3CHTO   H91 1090   6.292   9.741   2.755
    3CHTO   C47 1091   6.086   9.693   2.795
    3CHTO   H89 1092   6.074   9.728   2.690
    3CHTO   O33 1093   5.981   9.751   0.001
    3CHTO   H70 1094   5.897   9.731   2.838
    3CHTO   C45 1095   6.075   9.531   2.806
    3CHTO   H87 1096   6.041   9.507   0.034
    3CHTO    N8 1097   5.974   9.478   2.711
    3CHTO   H75 1098   6.008   9.492   2.610
    3CHTO   H76 1099   5.958   9.373   2.730
    3CHTO   C43 1100   6.220   9.463   2.796
    3CHTO   H85 1101   6.205   9.355   2.803
    3CHTO   O29 1102   6.304   9.512   0.029
    3CHTO   C50 1103   6.282   9.647   0.075
    3CHTO   H92 1104   6.212   9.645   0.159
    3CHTO   C54 1105   6.412   9.702   0.139
    3CHTO   O36 1106   6.519   9.712   0.044
    3CHTO   H72 1107   6.596   9.746   0.086
    3CHTO   O27 1108   6.284   9.486   2.669
    3CHTO   C37 1109   6.340   9.503   2.538
    3CHTO   H79 1110   6.375   9.406   2.500
    3CHTO   C38 1111   6.233   9.555   2.437
    3CHTO   H80 1112   6.183   9.643   2.481
    3CHTO   O31 1113   6.135   9.451   2.419
    3CHTO   H68 1114   6.173   9.375   2.380
    3CHTO   C39 1115   6.297   9.596   2.298
    3CHTO   H81 1116   6.333   9.504   2.251
    3CHTO    N7 1117   6.199   9.659   2.202
    3CHTO   H73 1118   6.100   9.664   2.246
    3CHTO   H74 1119   6.196   9.603   2.110
    3CHTO   C40 1120   6.423   9.689   2.320
    3CHTO   H82 1121   6.392   9.787   2.355
    3CHTO   O26 1122   6.514   9.625   2.410
    3CHTO   C41 1123   6.461   9.601   2.544
    3CHTO   H83 1124   6.429   9.696   2.588
    3CHTO   C52 1125   6.576   9.545   2.631
    3CHTO   O35 1126   6.634   9.417   2.578
    3CHTO   H71 1127   6.678   9.433   2.497
    3CHTO   O28 1128   6.499   9.703   2.198
    3CHTO   C42 1129   6.592   9.814   2.173
    3CHTO   H84 1130   6.643   9.783   2.081
    3CHTO   C44 1131   6.704   9.839   2.279
    3CHTO   H86 1132   6.658   9.870   2.373
    3CHTO   O32 1133   6.772   9.714   2.300
    3CHTO   H69 1134   6.717   9.654   2.345
    3CHTO   C48 1135   6.804   9.952   2.232
    3CHTO   H90 1136   6.861   9.912   2.148
    3CHTO    N9 1137   6.907   9.985   2.338
    3CHTO   H77 1138   7.007   9.971   2.299
    3CHTO   H78 1139   6.895   0.086   2.374
    3CHTO   C51 1140   6.727   0.080   2.182
    3CHTO   H93 1141   6.687   0.133   2.269
    3CHTO   O30 1142   6.623   0.045   2.089
    3CHTO   C46 1143   6.521   9.949   2.142
    3CHTO   H88 1144   6.478   9.990   2.234
    3CHTO   C53 1145   6.411   9.934   2.034
    3CHTO   O72 1146   6.343   0.058   2.012
    3CHTO  H199 1147   6.279   0.047   1.945
    3CHTO   O22 1148   6.815   0.165   2.106
    3CHTO   C31 1149   6.784   0.307   2.082
    3CHTO   H59 1150   6.681   0.324   2.121
    3CHTO   C29 1151   6.878   0.404   2.157
    3CHTO   H57 1152   6.981   0.381   2.124
    3CHTO   O21 1153   6.873   0.374   2.297
    3CHTO   H37 1154   6.789   0.397   2.333
    3CHTO   C27 1155   6.847   0.556   2.125
    3CHTO   H55 1156   6.750   0.581   2.170
    3CHTO    N5 1157   6.949   0.649   2.180
    3CHTO   H43 1158   7.045   0.631   2.133
    3CHTO   H44 1159   6.919   0.751   2.165
    3CHTO   C25 1160   6.830   0.577   1.970
    3CHTO   H53 1161   6.927   0.564   1.921
    3CHTO   O17 1162   6.737   0.479   1.915
    3CHTO   C32 1163   6.780   0.343   1.931
    3CHTO   H60 1164   6.880   0.332   1.889
    3CHTO   C36 1165   6.684   0.253   1.847
    3CHTO   O25 1166   6.547   0.267   1.887
    3CHTO   H40 1167   6.516   0.352   1.865
    3CHTO   O15 1168   6.773   0.724   1.936
    3CHTO   C19 1169   6.731   0.751   1.799
    3CHTO   H47 1170   6.760   0.662   1.742
    3CHTO   C20 1171   6.577   0.772   1.782
    3CHTO   H48 1172   6.542   0.862   1.835
    3CHTO   O19 1173   6.512   0.657   1.840
    3CHTO   H35 1174   6.419   0.669   1.839
    3CHTO   C21 1175   6.539   0.787   1.629
    3CHTO   H49 1176   6.555   0.691   1.580
    3CHTO    N4 1177   6.395   0.821   1.609
    3CHTO   H41 1178   6.373   0.826   1.503
    3CHTO   H42 1179   6.373   0.916   1.654
    3CHTO   C22 1180   6.633   0.889   1.559
    3CHTO   H50 1181   6.604   0.990   1.587
    3CHTO   O14 1182   6.772   0.867   1.592
    3CHTO   C23 1183   6.803   0.871   1.731
    3CHTO   H51 1184   6.770   0.968   1.772
    3CHTO   C34 1185   6.956   0.864   1.744
    3CHTO   O23 1186   7.000   0.893   1.877
    3CHTO   H38 1187   6.975   0.824   1.935
    3CHTO   O16 1188   6.628   0.871   1.416
    3CHTO   C24 1189   6.681   0.997   1.336
    3CHTO   H52 1190   6.732   1.068   1.402
    3CHTO   C26 1191   6.562   1.067   1.268
    3CHTO   H54 1192   6.512   0.993   1.201
    3CHTO   O20 1193   6.469   1.108   1.369
    3CHTO   H36 1194   6.390   1.141   1.330
    3CHTO   C30 1195   6.611   1.187   1.181
    3CHTO   H58 1196   6.645   1.268   1.247
    3CHTO    N6 1197   6.500   1.245   1.100
    3CHTO   H45 1198   6.421   1.281   1.165
    3CHTO   H46 1199   6.459   1.171   1.034
    3CHTO   C33 1200   6.732   1.148   1.091
    3CHTO   H61 1201   6.697   1.085   1.007
    3CHTO   O18 1202   6.831   1.073   1.164
    3CHTO   C28 1203   6.783   0.954   1.229
    3CHTO   H56 1204   6.734   0.888   1.157
    3CHTO   C35 1205   6.904   0.880   1.291
    3CHTO   O24 1206   6.998   0.835   1.194
    3CHTO   H39 1207   7.043   0.909   1.156
    3CHTO    O9 1208   6.790   1.264   1.028
    3CHTO   C13 1209   6.880   1.359   1.130
    3CHTO   H26 1210   6.880   1.313   1.231
    3CHTO   C11 1211   6.818   1.504   1.131
    3CHTO   H24 1212   6.723   1.499   1.186
    3CHTO    O8 1213   6.789   1.548   0.997
    3CHTO    H3 1214   6.723   1.493   0.959
    3CHTO    C9 1215   6.915   1.598   1.209
    3CHTO   H22 1216   6.928   1.552   1.308
    3CHTO    N2 1217   6.858   1.732   1.235
    3CHTO   H10 1218   6.924   1.810   1.201
    3CHTO   H11 1219   6.838   1.744   1.341
    3CHTO    C7 1220   7.054   1.600   1.137
    3CHTO   H20 1221   7.119   1.662   1.203
    3CHTO    O4 1222   7.112   1.468   1.128
    3CHTO   C14 1223   7.032   1.357   1.083
    3CHTO   H27 1224   7.078   1.267   1.130
    3CHTO   C18 1225   7.048   1.340   0.930
    3CHTO   O13 1226   7.181   1.300   0.895
    3CHTO    H7 1227   7.197   1.213   0.926
    3CHTO    O2 1228   7.047   1.669   0.982
    3CHTO    C1 1229   7.161   1.746   0.941
    3CHTO   H14 1230   7.144   1.778   0.836
    3CHTO    C2 1231   7.299   1.667   0.947
    3CHTO   H15 1232   7.303   1.618   1.046
    3CHTO    O6 1233   7.298   1.567   0.844
    3CHTO    H1 1234   7.292   1.607   0.759
    3CHTO    C3 1235   7.425   1.765   0.932
    3CHTO   H16 1236   7.427   1.806   0.830
    3CHTO    N1 1237   7.555   1.691   0.953
    3CHTO    H8 1238   7.616   1.698   0.865
    3CHTO    H9 1239   7.609   1.731   1.038
    3CHTO    C4 1240   7.406   1.888   1.027
    3CHTO   H17 1241   7.404   1.853   1.131
    3CHTO    O1 1242   7.284   1.957   0.995
    3CHTO    C5 1243   7.166   1.880   1.024
    3CHTO   H18 1244   7.167   1.855   1.130
    3CHTO   C16 1245   7.044   1.971   0.995
    3CHTO   O11 1246   7.039   2.017   0.859
    3CHTO    H5 1247   7.109   2.077   0.844
    3CHTO    O3 1248   7.511   1.986   1.010
    3CHTO    C6 1249   7.538   2.069   1.127
    3CHTO   H19 1250   7.452   2.077   1.195
    3CHTO    C8 1251   7.659   2.011   1.208
    3CHTO   H21 1252   7.741   1.993   1.138
    3CHTO    O7 1253   7.617   1.885   1.265
    3CHTO    H2 1254   7.548   1.898   1.327
    3CHTO   C12 1255   7.708   2.112   1.319
    3CHTO   H25 1256   7.627   2.118   1.394
    3CHTO    N3 1257   7.831   2.063   1.390
    3CHTO   H12 1258   7.863   1.967   1.352
    3CHTO   H13 1259   7.812   2.056   1.496
    3CHTO   C15 1260   7.727   2.254   1.255
    3CHTO   H28 1261   7.810   2.256   1.184
    3CHTO   O10 1262   7.749   2.366   1.360
    3CHTO    H4 1263   7.772   2.446   1.318
    3CHTO    O5 1264   7.606   2.297   1.190
    3CHTO   C10 1265   7.569   2.213   1.079
    3CHTO   H23 1266   7.652   2.211   1.007
    3CHTO   C17 1267   7.448   2.276   1.008
    3CHTO   O12 1268   7.479   2.404   0.952
    3CHTO    H6 1269   7.496   2.466   1.021
    4CHTO  H203 1270   5.165   6.982   2.809
    4CHTO   O82 1271   5.247   7.022   2.833
    4CHTO  C123 1272   5.228   7.163   2.854
    4CHTO  H227 1273   5.153   7.177   0.060
    4CHTO   O77 1274   5.358   7.209   0.025
    4CHTO  C118 1275   5.359   7.345   0.072
    4CHTO  H222 1276   5.288   7.356   0.155
    4CHTO  C125 1277   5.505   7.370   0.126
    4CHTO   O84 1278   5.517   7.495   0.195
    4CHTO  H205 1279   5.606   7.508   0.221
    4CHTO  C114 1280   5.322   7.441   2.831
    4CHTO  H218 1281   5.403   7.440   2.758
    4CHTO  C116 1282   5.191   7.398   2.757
    4CHTO  H220 1283   5.103   7.423   2.822
    4CHTO   O79 1284   5.177   7.479   2.639
    4CHTO  H201 1285   5.095   7.461   2.597
    4CHTO  C120 1286   5.189   7.243   2.724
    4CHTO  H224 1287   5.266   7.226   2.645
    4CHTO   N21 1288   5.058   7.201   2.668
    4CHTO  H211 1289   4.990   7.172   2.747
    4CHTO  H212 1290   5.072   7.118   2.599
    4CHTO   O75 1291   5.310   7.570   0.019
    4CHTO  C112 1292   5.366   7.696   2.805
    4CHTO  H216 1293   5.359   7.671   2.697
    4CHTO   O73 1294   5.502   7.719   2.845
    4CHTO  C113 1295   5.566   7.826   2.774
    4CHTO  H217 1296   5.560   7.805   2.665
    4CHTO  C124 1297   5.715   7.828   2.811
    4CHTO   O83 1298   5.741   7.848   0.076
    4CHTO  H204 1299   5.716   7.935   0.101
    4CHTO  C109 1300   5.496   7.962   2.803
    4CHTO  H213 1301   5.510   7.983   0.036
    4CHTO  C110 1302   5.343   7.951   2.771
    4CHTO  H214 1303   5.332   7.948   2.662
    4CHTO   O78 1304   5.276   8.071   2.816
    4CHTO  H200 1305   5.285   8.080   0.035
    4CHTO  C111 1306   5.279   7.824   2.834
    4CHTO  H215 1307   5.276   7.837   0.070
    4CHTO   N19 1308   5.138   7.802   2.791
    4CHTO  H207 1309   5.077   7.887   2.818
    4CHTO  H208 1310   5.098   7.714   2.839
    4CHTO   O74 1311   5.563   8.066   2.725
    4CHTO  C115 1312   5.529   8.223   2.756
    4CHTO  H219 1313   5.427   8.249   2.724
    4CHTO   O76 1314   5.533   8.255   0.035
    4CHTO  C122 1315   5.659   8.227   0.096
    4CHTO  H226 1316   5.668   8.119   0.107
    4CHTO  C126 1317   5.652   8.284   0.242
    4CHTO   O85 1318   5.764   8.244   0.322
    4CHTO  H206 1319   5.761   8.151   0.337
    4CHTO  C121 1320   5.784   8.285   0.015
    4CHTO  H225 1321   5.848   8.344   0.084
    4CHTO   O81 1322   5.862   8.175   2.840
    4CHTO  H202 1323   5.900   8.128   0.038
    4CHTO  C119 1324   5.740   8.378   2.770
    4CHTO  H223 1325   5.693   8.464   2.818
    4CHTO  C117 1326   5.634   8.309   2.675
    4CHTO  H221 1327   5.677   8.239   2.604
    4CHTO   N20 1328   5.567   8.413   2.589
    4CHTO  H209 1329   5.502   8.365   2.517
    4CHTO  H210 1330   5.509   8.481   2.650
    4CHTO   O80 1331   5.859   8.446   2.689
    4CHTO  C103 1332   5.976   8.518   2.762
    4CHTO  H190 1333   5.951   8.539   2.866
    4CHTO  C101 1334   6.114   8.441   2.752
    4CHTO  H188 1335   6.117   8.389   2.656
    4CHTO   O68 1336   6.119   8.333   2.865
    4CHTO  H168 1337   6.047   8.273   2.856
    4CHTO   C99 1338   6.242   8.537   2.759
    4CHTO  H186 1339   6.250   8.581   2.861
    4CHTO   N17 1340   6.372   8.468   2.729
    4CHTO  H174 1341   6.355   8.366   2.698
    4CHTO  H175 1342   6.437   8.471   2.816
    4CHTO   C97 1343   6.218   8.657   2.663
    4CHTO  H184 1344   6.203   8.618   2.562
    4CHTO   O64 1345   6.103   8.729   2.711
    4CHTO  C104 1346   5.980   8.658   2.686
    4CHTO  H191 1347   5.967   8.641   2.579
    4CHTO  C108 1348   5.863   8.746   2.730
    4CHTO   O71 1349   5.856   8.867   2.654
    4CHTO  H171 1350   5.785   8.919   2.683
    4CHTO   O62 1351   6.323   8.757   2.665
    4CHTO   C91 1352   6.354   8.819   2.538
    4CHTO  H178 1353   6.331   8.749   2.458
    4CHTO   C92 1354   6.508   8.841   2.531
    4CHTO  H179 1355   6.539   8.905   2.615
    4CHTO   O66 1356   6.574   8.714   2.553
    4CHTO  H166 1357   6.553   8.654   2.484
    4CHTO   C93 1358   6.552   8.904   2.393
    4CHTO  H180 1359   6.543   8.823   2.319
    4CHTO   N16 1360   6.695   8.944   2.389
    4CHTO  H172 1361   6.719   8.985   2.292
    4CHTO  H173 1362   6.758   8.858   2.410
    4CHTO   C94 1363   6.456   9.023   2.349
    4CHTO  H181 1364   6.512   9.116   2.332
    4CHTO   O61 1365   6.361   9.058   2.452
    4CHTO   C95 1366   6.279   8.956   2.512
    4CHTO  H182 1367   6.245   8.993   2.609
    4CHTO  C106 1368   6.149   8.934   2.426
    4CHTO   O69 1369   6.069   9.052   2.421
    4CHTO  H169 1370   6.035   9.072   2.507
    4CHTO   O63 1371   6.378   8.983   2.213
    4CHTO   C96 1372   6.472   8.961   2.084
    4CHTO  H183 1373   6.563   8.909   2.116
    4CHTO   C98 1374   6.517   9.089   2.009
    4CHTO  H185 1375   6.429   9.149   1.981
    4CHTO   O67 1376   6.592   9.171   2.100
    4CHTO  H167 1377   6.672   9.128   2.125
    4CHTO  C102 1378   6.603   9.053   1.877
    4CHTO  H189 1379   6.694   9.003   1.914
    4CHTO   N18 1380   6.650   9.169   1.797
    4CHTO  H176 1381   6.617   9.262   1.841
    4CHTO  H177 1382   6.758   9.168   1.789
    4CHTO  C105 1383   6.523   8.950   1.792
    4CHTO  H192 1384   6.435   8.998   1.750
    4CHTO   O65 1385   6.480   8.836   1.870
    4CHTO  C100 1386   6.398   8.867   1.983
    4CHTO  H187 1387   6.307   8.918   1.947
    4CHTO  C107 1388   6.351   8.735   2.050
    4CHTO   O70 1389   6.461   8.655   2.095
    4CHTO  H170 1390   6.511   8.623   2.022
    4CHTO   O57 1391   6.623   8.898   1.674
    4CHTO   C85 1392   6.569   8.844   1.552
    4CHTO  H157 1393   6.482   8.908   1.526
    4CHTO   C83 1394   6.511   8.701   1.576
    4CHTO  H155 1395   6.424   8.709   1.642
    4CHTO   O56 1396   6.608   8.621   1.648
    4CHTO  H135 1397   6.625   8.658   1.732
    4CHTO   C81 1398   6.466   8.638   1.441
    4CHTO  H153 1399   6.392   8.705   1.396
    4CHTO   N14 1400   6.396   8.508   1.455
    4CHTO  H141 1401   6.293   8.518   1.428
    4CHTO  H142 1402   6.402   8.471   1.556
    4CHTO   C79 1403   6.589   8.630   1.342
    4CHTO  H151 1404   6.551   8.591   1.247
    4CHTO   O52 1405   6.639   8.765   1.316
    4CHTO   C86 1406   6.676   8.841   1.435
    4CHTO  H158 1407   6.770   8.792   1.469
    4CHTO   C90 1408   6.716   8.985   1.394
    4CHTO   O60 1409   6.609   9.054   1.328
    4CHTO  H138 1410   6.594   9.016   1.244
    4CHTO   O50 1411   6.695   8.544   1.388
    4CHTO   C73 1412   6.826   8.507   1.342
    4CHTO  H145 1413   6.893   8.594   1.345
    4CHTO   C74 1414   6.819   8.455   1.195
    4CHTO  H146 1415   6.775   8.535   1.134
    4CHTO   O54 1416   6.954   8.437   1.148
    4CHTO  H133 1417   6.954   8.412   1.058
    4CHTO   C75 1418   6.732   8.323   1.192
    4CHTO  H147 1419   6.631   8.348   1.226
    4CHTO   N13 1420   6.715   8.267   1.056
    4CHTO  H139 1421   6.655   8.178   1.060
    4CHTO  H140 1422   6.811   8.242   1.014
    4CHTO   C76 1423   6.793   8.216   1.295
    4CHTO  H148 1424   6.891   8.185   1.259
    4CHTO   O49 1425   6.806   8.275   1.429
    4CHTO   C77 1426   6.885   8.395   1.434
    4CHTO  H149 1427   6.987   8.373   1.401
    4CHTO   C88 1428   6.897   8.442   1.579
    4CHTO   O58 1429   6.969   8.341   1.664
    4CHTO  H136 1430   6.917   8.263   1.671
    4CHTO   O51 1431   6.692   8.094   1.315
    4CHTO   C78 1432   6.762   7.951   1.321
    4CHTO  H150 1433   6.870   7.960   1.348
    4CHTO   C80 1434   6.751   7.884   1.183
    4CHTO  H152 1435   6.645   7.892   1.148
    4CHTO   O55 1436   6.834   7.960   1.093
    4CHTO  H134 1437   6.825   7.929   1.005
    4CHTO   C84 1438   6.794   7.732   1.185
    4CHTO  H156 1439   6.901   7.728   1.207
    4CHTO   N15 1440   6.775   7.666   1.052
    4CHTO  H143 1441   6.672   7.668   1.023
    4CHTO  H144 1442   6.808   7.564   1.056
    4CHTO   C87 1443   6.719   7.658   1.298
    4CHTO  H159 1444   6.612   7.651   1.276
    4CHTO   O53 1445   6.743   7.732   1.429
    4CHTO   C82 1446   6.694   7.867   1.431
    4CHTO  H154 1447   6.585   7.868   1.420
    4CHTO   C89 1448   6.725   7.921   1.573
    4CHTO   O59 1449   6.668   8.050   1.598
    4CHTO  H137 1450   6.692   8.079   1.684
    4CHTO   O45 1451   6.781   7.507   1.324
    4CHTO   C67 1452   6.709   7.396   1.269
    4CHTO  H124 1453   6.674   7.418   1.168
    4CHTO   C65 1454   6.803   7.272   1.265
    4CHTO  H122 1455   6.895   7.308   1.218
    4CHTO   O44 1456   6.747   7.168   1.183
    4CHTO  H102 1457   6.809   7.099   1.173
    4CHTO   C63 1458   6.840   7.233   1.412
    4CHTO  H120 1459   6.873   7.323   1.464
    4CHTO   N11 1460   6.960   7.144   1.426
    4CHTO  H108 1461   6.987   7.135   1.530
    4CHTO  H109 1462   6.940   7.048   1.385
    4CHTO   C61 1463   6.710   7.183   1.486
    4CHTO  H118 1464   6.732   7.196   1.594
    4CHTO   O40 1465   6.590   7.260   1.459
    4CHTO   C68 1466   6.579   7.364   1.355
    4CHTO  H125 1467   6.555   7.458   1.411
    4CHTO   C72 1468   6.456   7.334   1.265
    4CHTO   O48 1469   6.462   7.209   1.197
    4CHTO  H105 1470   6.456   7.139   1.260
    4CHTO   O38 1471   6.678   7.045   1.458
    4CHTO   C55 1472   6.623   6.969   1.568
    4CHTO  H112 1473   6.558   7.033   1.628
    4CHTO   C56 1474   6.739   6.902   1.655
    4CHTO  H113 1475   6.803   6.845   1.586
    4CHTO   O42 1476   6.823   7.003   1.714
    4CHTO  H100 1477   6.867   7.052   1.647
    4CHTO   C57 1478   6.681   6.807   1.768
    4CHTO  H114 1479   6.638   6.873   1.844
    4CHTO   N10 1480   6.784   6.726   1.837
    4CHTO  H106 1481   6.866   6.702   1.770
    4CHTO  H107 1482   6.743   6.634   1.876
    4CHTO   C58 1483   6.567   6.717   1.711
    4CHTO  H115 1484   6.612   6.635   1.650
    4CHTO   O37 1485   6.473   6.791   1.632
    4CHTO   C59 1486   6.532   6.853   1.517
    4CHTO  H116 1487   6.590   6.780   1.460
    4CHTO   C70 1488   6.418   6.904   1.427
    4CHTO   O46 1489   6.463   6.937   1.295
    4CHTO  H103 1490   6.488   6.859   1.250
    4CHTO   O39 1491   6.484   6.655   1.835
    4CHTO   C60 1492   6.391   6.550   1.802
    4CHTO  H117 1493   6.354   6.565   1.700
    4CHTO   C62 1494   6.458   6.409   1.810
    4CHTO  H119 1495   6.537   6.407   1.731
    4CHTO   O43 1496   6.521   6.393   1.939
    4CHTO  H101 1497   6.594   6.451   1.947
    4CHTO   C66 1498   6.348   6.296   1.778
    4CHTO  H123 1499   6.305   6.315   1.680
    4CHTO   N12 1500   6.407   6.159   1.772
    4CHTO  H110 1501   6.482   6.155   1.695
    4CHTO  H111 1502   6.329   6.086   1.753
    4CHTO   C69 1503   6.233   6.307   1.882
    4CHTO  H126 1504   6.273   6.293   1.985
    4CHTO   O41 1505   6.171   6.451   1.869
    4CHTO   C64 1506   6.268   6.560   1.896
    4CHTO  H121 1507   6.303   6.554   2.002
    4CHTO   C71 1508   6.196   6.696   1.878
    4CHTO   O47 1509   6.090   6.712   1.973
    4CHTO  H104 1510   6.126   6.724   2.059
    4CHTO   O34 1511   6.118   6.200   1.859
    4CHTO   C49 1512   5.970   6.235   1.835
    4CHTO   H91 1513   5.949   6.327   1.888
    4CHTO   C47 1514   5.882   6.121   1.893
    4CHTO   H89 1515   5.778   6.159   1.883
    4CHTO   O33 1516   5.909   6.103   2.033
    4CHTO   H70 1517   5.997   6.073   2.046
    4CHTO   C45 1518   5.903   5.983   1.812
    4CHTO   H87 1519   5.980   5.924   1.863
    4CHTO    N8 1520   5.776   5.905   1.815
    4CHTO   H75 1521   5.787   5.817   1.876
    4CHTO   H76 1522   5.693   5.965   1.851
    4CHTO   C43 1523   5.964   6.012   1.665
    4CHTO   H85 1524   6.071   6.026   1.683
    4CHTO   O29 1525   5.904   6.130   1.610
    4CHTO   C50 1526   5.935   6.251   1.683
    4CHTO   H92 1527   6.021   6.299   1.634
    4CHTO   C54 1528   5.819   6.350   1.659
    4CHTO   O36 1529   5.845   6.480   1.715
    4CHTO   H72 1530   5.915   6.521   1.669
    4CHTO   O27 1531   5.957   5.900   1.574
    4CHTO   C37 1532   6.060   5.812   1.526
    4CHTO   H79 1533   6.017   5.741   1.453
    4CHTO   C38 1534   6.170   5.894   1.449
    4CHTO   H80 1535   6.188   5.988   1.504
    4CHTO   O31 1536   6.116   5.928   1.320
    4CHTO   H68 1537   6.046   5.990   1.329
    4CHTO   C39 1538   6.308   5.818   1.434
    4CHTO   H81 1539   6.294   5.738   1.361
    4CHTO    N7 1540   6.418   5.907   1.383
    4CHTO   H73 1541   6.500   5.913   1.453
    4CHTO   H74 1542   6.454   5.871   1.287
    4CHTO   C40 1543   6.345   5.750   1.571
    4CHTO   H82 1544   6.357   5.829   1.646
    4CHTO   O26 1545   6.239   5.660   1.605
    4CHTO   C41 1546   6.119   5.731   1.645
    4CHTO   H83 1547   6.143   5.799   1.728
    4CHTO   C52 1548   6.019   5.626   1.697
    4CHTO   O35 1549   6.068   5.558   1.819
    4CHTO   H71 1550   6.003   5.497   1.849
    4CHTO   O28 1551   6.465   5.670   1.569
    4CHTO   C42 1552   6.535   5.642   1.695
    4CHTO   H84 1553   6.614   5.572   1.666
    4CHTO   C44 1554   6.451   5.568   1.805
    4CHTO   H86 1555   6.362   5.628   1.827
    4CHTO   O32 1556   6.408   5.443   1.747
    4CHTO   H69 1557   6.349   5.399   1.804
    4CHTO   C48 1558   6.530   5.547   1.941
    4CHTO   H90 1559   6.612   5.478   1.922
    4CHTO    N9 1560   6.444   5.483   2.046
    4CHTO   H77 1561   6.502   5.468   2.136
    4CHTO   H78 1562   6.358   5.545   2.067
    4CHTO   C51 1563   6.590   5.685   1.987
    4CHTO   H93 1564   6.508   5.755   2.006
    4CHTO   O30 1565   6.678   5.732   1.884
    4CHTO   C46 1566   6.606   5.768   1.755
    4CHTO   H88 1567   6.531   5.844   1.777
    4CHTO   C53 1568   6.710   5.824   1.655
    4CHTO   O72 1569   6.766   5.947   1.702
    4CHTO  H199 1570   6.702   6.015   1.696
    4CHTO   O22 1571   6.678   5.675   2.101
    4CHTO   C31 1572   6.644   5.722   2.237
    4CHTO   H59 1573   6.533   5.719   2.246
    4CHTO   C29 1574   6.702   5.629   2.346
    4CHTO   H57 1575   6.810   5.622   2.328
    4CHTO   O21 1576   6.649   5.496   2.325
    4CHTO   H37 1577   6.557   5.494   2.342
    4CHTO   C27 1578   6.678   5.681   2.494
    4CHTO   H55 1579   6.570   5.673   2.516
    4CHTO    N5 1580   6.753   5.601   2.595
    4CHTO   H43 1581   6.859   5.612   2.579
    4CHTO   H44 1582   6.726   5.633   2.694
    4CHTO   C25 1583   6.713   5.833   2.504
    4CHTO   H53 1584   6.822   5.846   2.491
    4CHTO   O17 1585   6.645   5.908   2.399
    4CHTO   C32 1586   6.687   5.870   2.267
    4CHTO   H60 1587   6.796   5.877   2.259
    4CHTO   C36 1588   6.625   5.971   2.167
    4CHTO   O25 1589   6.676   6.103   2.188
    4CHTO   H40 1590   6.636   6.162   2.127
    4CHTO   O15 1591   6.672   5.893   2.646
    4CHTO   C19 1592   6.682   6.020   2.715
    4CHTO   H47 1593   6.738   5.995   2.807
    4CHTO   C20 1594   6.763   6.129   2.637
    4CHTO   H48 1595   6.724   6.143   2.535
    4CHTO   O19 1596   6.898   6.080   2.627
    4CHTO   H35 1597   6.902   6.007   2.567
    4CHTO   C21 1598   6.762   6.270   2.709
    4CHTO   H49 1599   6.816   6.261   2.803
    4CHTO    N4 1600   6.829   6.376   2.631
    4CHTO   H41 1601   6.830   6.469   2.687
    4CHTO   H42 1602   6.777   6.392   2.537
    4CHTO   C22 1603   6.615   6.305   2.746
    4CHTO   H50 1604   6.558   6.316   2.653
    4CHTO   O14 1605   6.558   6.202   2.828
    4CHTO   C23 1606   6.544   6.074   2.762
    4CHTO   H51 1607   6.474   6.087   2.678
    4CHTO   C34 1608   6.481   5.976   2.862
    4CHTO   O23 1609   6.350   6.017   0.027
    4CHTO   H38 1610   6.290   6.007   2.829
    4CHTO   O16 1611   6.607   6.424   2.826
    4CHTO   C24 1612   6.473   6.504   2.808
    4CHTO   H52 1613   6.393   6.441   2.768
    4CHTO   C26 1614   6.502   6.624   2.714
    4CHTO   H54 1615   6.560   6.586   2.627
    4CHTO   O20 1616   6.380   6.673   2.656
    4CHTO   H36 1617   6.320   6.700   2.722
    4CHTO   C30 1618   6.576   6.744   2.783
    4CHTO   H58 1619   6.506   6.829   2.793
    4CHTO    N6 1620   6.687   6.795   2.699
    4CHTO   H45 1621   6.735   6.879   2.748
    4CHTO   H46 1622   6.649   6.827   2.603
    4CHTO   C33 1623   6.619   6.709   0.055
    4CHTO   H61 1624   6.693   6.628   0.053
    4CHTO   O18 1625   6.502   6.663   0.125
    4CHTO   C28 1626   6.430   6.548   0.077
    4CHTO   H56 1627   6.447   6.465   0.145
    4CHTO   C35 1628   6.278   6.578   0.082
    4CHTO   O24 1629   6.231   6.602   0.215
    4CHTO   H39 1630   6.237   6.524   0.266
    4CHTO    O9 1631   6.682   6.819   0.125
    4CHTO   C13 1632   6.803   6.774   0.234
    4CHTO   H26 1633   6.895   6.755   0.175
    4CHTO   C11 1634   6.761   6.647   0.320
    4CHTO   H24 1635   6.756   6.561   0.252
    4CHTO    O8 1636   6.629   6.666   0.375
    4CHTO    H3 1637   6.566   6.673   0.306
    4CHTO    C9 1638   6.870   6.620   0.426
    4CHTO   H22 1639   6.965   6.613   0.369
    4CHTO    N2 1640   6.858   6.489   0.494
    4CHTO   H10 1641   6.943   6.474   0.559
    4CHTO   H11 1642   6.854   6.410   0.421
    4CHTO    C7 1643   6.879   6.743   0.523
    4CHTO   H20 1644   6.962   6.718   0.591
    4CHTO    O4 1645   6.914   6.861   0.448
    4CHTO   C14 1646   6.842   6.898   0.329
    4CHTO   H27 1647   6.910   6.964   0.272
    4CHTO   C18 1648   6.720   6.986   0.371
    4CHTO   O13 1649   6.672   7.063   0.261
    4CHTO    H7 1650   6.599   7.115   0.289
    4CHTO    O2 1651   6.735   6.772   0.608
    4CHTO    C1 1652   6.733   6.777   0.752
    4CHTO   H14 1653   6.649   6.843   0.781
    4CHTO    C2 1654   6.865   6.830   0.824
    4CHTO   H15 1655   6.949   6.769   0.788
    4CHTO    O6 1656   6.885   6.968   0.785
    4CHTO    H1 1657   6.908   6.973   0.694
    4CHTO    C3 1658   6.854   6.816   0.983
    4CHTO   H16 1659   6.774   6.882   1.021
    4CHTO    N1 1660   6.981   6.855   1.054
    4CHTO    H8 1661   7.004   6.958   1.033
    4CHTO    H9 1662   7.062   6.792   1.021
    4CHTO    C4 1663   6.808   6.669   1.019
    4CHTO   H17 1664   6.887   6.600   0.988
    4CHTO    O1 1665   6.685   6.640   0.951
    4CHTO    C5 1666   6.693   6.636   0.808
    4CHTO   H18 1667   6.768   6.563   0.776
    4CHTO   C16 1668   6.553   6.588   0.763
    4CHTO   O11 1669   6.547   6.554   0.624
    4CHTO    H5 1670   6.460   6.526   0.603
    4CHTO    O3 1671   6.778   6.652   1.159
    4CHTO    C6 1672   6.768   6.511   1.201
    4CHTO   H19 1673   6.761   6.442   1.116
    4CHTO    C8 1674   6.893   6.470   1.285
    4CHTO   H21 1675   6.903   6.540   1.368
    4CHTO    O7 1676   7.008   6.479   1.199
    4CHTO    H2 1677   7.027   6.568   1.179
    4CHTO   C12 1678   6.874   6.323   1.343
    4CHTO   H25 1679   6.877   6.255   1.256
    4CHTO    N3 1680   6.989   6.284   1.432
    4CHTO   H12 1681   6.976   6.183   1.467
    4CHTO   H13 1682   6.997   6.353   1.515
    4CHTO   C15 1683   6.734   6.310   1.414
    4CHTO   H28 1684   6.731   6.366   1.508
    4CHTO   O10 1685   6.695   6.161   1.442
    4CHTO    H4 1686   6.703   6.110   1.363
    4CHTO    O5 1687   6.628   6.354   1.327
    4CHTO   C10 1688   6.639   6.491   1.286
    4CHTO   H23 1689   6.644   6.554   1.375
    4CHTO   C17 1690   6.511   6.530   1.211
    4CHTO   O12 1691   6.489   6.449   1.094
    4CHTO    H6 1692   6.557   6.466   1.031
    5CHTO  H203 1693   7.867   3.606   1.968
    5CHTO   O82 1694   7.777   3.610   1.940
    5CHTO  C123 1695   7.696   3.526   2.024
    5CHTO  H227 1696   7.747   3.429   2.038
    5CHTO   O77 1697   7.691   3.599   2.151
    5CHTO  C118 1698   7.624   3.528   2.256
    5CHTO  H222 1699   7.672   3.430   2.270
    5CHTO  C125 1700   7.639   3.611   2.389
    5CHTO   O84 1701   7.776   3.619   2.430
    5CHTO  H205 1702   7.782   3.666   2.511
    5CHTO  C114 1703   7.476   3.509   2.219
    5CHTO  H218 1704   7.429   3.607   2.212
    5CHTO  C116 1705   7.459   3.438   2.081
    5CHTO  H220 1706   7.488   3.331   2.092
    5CHTO   O79 1707   7.320   3.438   2.044
    5CHTO  H201 1708   7.289   3.526   2.033
    5CHTO  C120 1709   7.549   3.507   1.970
    5CHTO  H224 1710   7.504   3.606   1.950
    5CHTO   N21 1711   7.548   3.431   1.842
    5CHTO  H211 1712   7.467   3.465   1.779
    5CHTO  H212 1713   7.540   3.324   1.860
    5CHTO   O75 1714   7.423   3.435   2.330
    5CHTO  C112 1715   7.263   3.451   2.358
    5CHTO  H216 1716   7.207   3.412   2.272
    5CHTO   O73 1717   7.237   3.591   2.380
    5CHTO  C113 1718   7.100   3.621   2.407
    5CHTO  H217 1719   7.037   3.581   2.324
    5CHTO  C124 1720   7.080   3.773   2.407
    5CHTO   O83 1721   7.159   3.842   2.505
    5CHTO  H204 1722   7.143   3.934   2.499
    5CHTO  C109 1723   7.057   3.555   2.541
    5CHTO  H213 1724   7.121   3.598   2.619
    5CHTO  C110 1725   7.079   3.401   2.531
    5CHTO  H214 1726   7.009   3.360   2.457
    5CHTO   O78 1727   7.046   3.339   2.657
    5CHTO  H200 1728   7.103   3.371   2.725
    5CHTO  C111 1729   7.225   3.369   2.488
    5CHTO  H215 1730   7.293   3.401   2.569
    5CHTO   N19 1731   7.251   3.224   2.466
    5CHTO  H207 1732   7.354   3.209   2.438
    5CHTO  H208 1733   7.230   3.169   2.556
    5CHTO   O74 1734   6.918   3.588   2.571
    5CHTO  C115 1735   6.886   3.599   2.727
    5CHTO  H219 1736   6.968   3.560   2.788
    5CHTO   O76 1737   6.867   3.749   2.773
    5CHTO  C122 1738   6.766   3.821   2.701
    5CHTO  H226 1739   6.813   3.865   2.613
    5CHTO  C126 1740   6.718   3.943   2.789
    5CHTO   O85 1741   6.824   4.034   2.821
    5CHTO  H206 1742   6.887   3.991   0.003
    5CHTO  C121 1743   6.641   3.732   2.658
    5CHTO  H225 1744   6.549   3.794   2.668
    5CHTO   O81 1745   6.651   3.698   2.520
    5CHTO  H202 1746   6.573   3.656   2.491
    5CHTO  C119 1747   6.627   3.608   2.752
    5CHTO  H223 1748   6.620   3.653   2.852
    5CHTO  C117 1749   6.755   3.514   2.753
    5CHTO  H221 1750   6.757   3.439   2.675
    5CHTO   N20 1751   6.763   3.436   0.007
    5CHTO  H209 1752   6.673   3.379   0.021
    5CHTO  H210 1753   6.848   3.370   0.004
    5CHTO   O80 1754   6.490   3.533   2.743
    5CHTO  C103 1755   6.433   3.481   2.602
    5CHTO  H190 1756   6.423   3.563   2.531
    5CHTO  C101 1757   6.511   3.361   2.532
    5CHTO  H188 1758   6.541   3.289   2.609
    5CHTO   O68 1759   6.638   3.415   2.464
    5CHTO  H168 1760   6.695   3.453   2.528
    5CHTO   C99 1761   6.418   3.284   2.426
    5CHTO  H186 1762   6.394   3.354   2.342
    5CHTO   N17 1763   6.483   3.163   2.364
    5CHTO  H174 1764   6.419   3.123   2.287
    5CHTO  H175 1765   6.504   3.090   2.440
    5CHTO   C97 1766   6.282   3.250   2.492
    5CHTO  H184 1767   6.301   3.183   2.578
    5CHTO   O64 1768   6.219   3.373   2.533
    5CHTO  C104 1769   6.287   3.436   2.642
    5CHTO  H191 1770   6.292   3.370   2.728
    5CHTO  C108 1771   6.204   3.557   2.688
    5CHTO   O71 1772   6.077   3.517   2.741
    5CHTO  H171 1773   6.023   3.484   2.672
    5CHTO   O62 1774   6.186   3.191   2.402
    5CHTO   C91 1775   6.077   3.121   2.464
    5CHTO  H178 1776   6.074   3.144   2.571
    5CHTO   C92 1777   6.103   2.966   2.454
    5CHTO  H179 1778   6.133   2.943   2.351
    5CHTO   O66 1779   6.219   2.935   2.535
    5CHTO  H166 1780   6.202   2.953   2.625
    5CHTO   C93 1781   5.978   2.879   2.497
    5CHTO  H180 1782   5.964   2.892   2.605
    5CHTO   N16 1783   5.997   2.734   2.475
    5CHTO  H172 1784   6.013   2.714   2.370
    5CHTO  H173 1785   5.911   2.679   2.511
    5CHTO   C94 1786   5.851   2.934   2.422
    5CHTO  H181 1787   5.862   2.929   2.314
    5CHTO   O61 1788   5.832   3.072   2.456
    5CHTO   C95 1789   5.936   3.157   2.404
    5CHTO  H182 1790   5.940   3.145   2.295
    5CHTO  C106 1791   5.897   3.307   2.430
    5CHTO   O69 1792   5.887   3.338   2.569
    5CHTO  H169 1793   5.971   3.361   2.603
    5CHTO   O63 1794   5.714   2.857   2.466
    5CHTO   C96 1795   5.627   2.822   2.337
    5CHTO  H183 1796   5.696   2.793   2.257
    5CHTO   C98 1797   5.535   2.934   2.282
    5CHTO  H185 1798   5.464   2.966   2.360
    5CHTO   O67 1799   5.615   3.050   2.252
    5CHTO  H167 1800   5.650   3.086   2.331
    5CHTO  C102 1801   5.456   2.886   2.150
    5CHTO  H189 1802   5.531   2.888   2.069
    5CHTO   N18 1803   5.348   2.979   2.106
    5CHTO  H176 1804   5.302   2.942   2.015
    5CHTO  H177 1805   5.388   3.077   2.089
    5CHTO  C105 1806   5.405   2.739   2.161
    5CHTO  H192 1807   5.305   2.738   2.205
    5CHTO   O65 1808   5.487   2.649   2.237
    5CHTO  C100 1809   5.534   2.698   2.363
    5CHTO  H187 1810   5.447   2.730   2.423
    5CHTO  C107 1811   5.605   2.584   2.441
    5CHTO   O70 1812   5.721   2.534   2.374
    5CHTO  H170 1813   5.696   2.491   2.294
    5CHTO   O57 1814   5.400   2.690   2.006
    5CHTO   C85 1815   5.316   2.584   1.958
    5CHTO  H157 1816   5.213   2.608   1.992
    5CHTO   C83 1817   5.353   2.448   2.028
    5CHTO  H155 1818   5.325   2.456   2.133
    5CHTO   O56 1819   5.496   2.430   2.025
    5CHTO  H135 1820   5.526   2.420   1.937
    5CHTO   C81 1821   5.273   2.332   1.963
    5CHTO  H153 1822   5.167   2.355   1.971
    5CHTO   N14 1823   5.288   2.203   2.035
    5CHTO  H141 1824   5.223   2.129   1.992
    5CHTO  H142 1825   5.389   2.168   2.027
    5CHTO   C79 1826   5.310   2.323   1.810
    5CHTO  H151 1827   5.251   2.241   1.767
    5CHTO   O52 1828   5.266   2.446   1.744
    5CHTO   C86 1829   5.324   2.568   1.801
    5CHTO  H158 1830   5.430   2.564   1.768
    5CHTO   C90 1831   5.263   2.692   1.732
    5CHTO   O60 1832   5.295   2.696   1.593
    5CHTO  H138 1833   5.259   2.773   1.554
    5CHTO   O50 1834   5.450   2.299   1.785
    5CHTO   C73 1835   5.531   2.227   1.691
    5CHTO  H145 1836   5.476   2.210   1.598
    5CHTO   C74 1837   5.573   2.089   1.749
    5CHTO  H146 1838   5.481   2.035   1.776
    5CHTO   O54 1839   5.634   2.013   1.642
    5CHTO  H133 1840   5.570   1.991   1.577
    5CHTO   C75 1841   5.668   2.109   1.873
    5CHTO  H147 1842   5.612   2.163   1.951
    5CHTO   N13 1843   5.712   1.982   1.936
    5CHTO  H139 1844   5.684   1.980   2.040
    5CHTO  H140 1845   5.819   1.970   1.928
    5CHTO   C76 1846   5.791   2.204   1.831
    5CHTO  H148 1847   5.851   2.150   1.757
    5CHTO   O49 1848   5.742   2.329   1.774
    5CHTO   C77 1849   5.660   2.310   1.657
    5CHTO  H149 1850   5.717   2.258   1.580
    5CHTO   C88 1851   5.628   2.448   1.598
    5CHTO   O58 1852   5.545   2.438   1.476
    5CHTO  H136 1853   5.526   2.524   1.443
    5CHTO   O51 1854   5.877   2.244   1.963
    5CHTO   C78 1855   6.005   2.335   1.933
    5CHTO  H150 1856   5.992   2.393   1.839
    5CHTO   C80 1857   6.131   2.247   1.921
    5CHTO  H152 1858   6.137   2.180   2.010
    5CHTO   O55 1859   6.114   2.163   1.805
    5CHTO  H134 1860   6.112   2.215   1.726
    5CHTO   C84 1861   6.263   2.333   1.912
    5CHTO  H156 1862   6.260   2.390   1.818
    5CHTO   N15 1863   6.388   2.250   1.907
    5CHTO  H143 1864   6.394   2.188   1.995
    5CHTO  H144 1865   6.388   2.188   1.820
    5CHTO   C87 1866   6.267   2.435   2.028
    5CHTO  H159 1867   6.276   2.382   2.124
    5CHTO   O53 1868   6.136   2.518   2.025
    5CHTO   C82 1869   6.019   2.438   2.047
    5CHTO  H154 1870   6.025   2.389   2.144
    5CHTO   C89 1871   5.898   2.534   2.053
    5CHTO   O59 1872   5.778   2.469   2.093
    5CHTO  H137 1873   5.707   2.531   2.091
    5CHTO   O45 1874   6.391   2.541   2.012
    5CHTO   C67 1875   6.442   2.590   2.137
    5CHTO  H124 1876   6.370   2.570   2.217
    5CHTO   C65 1877   6.579   2.522   2.173
    5CHTO  H122 1878   6.614   2.474   2.081
    5CHTO   O44 1879   6.550   2.420   2.270
    5CHTO  H102 1880   6.626   2.367   2.285
    5CHTO   C63 1881   6.693   2.625   2.211
    5CHTO  H120 1882   6.721   2.679   2.120
    5CHTO   N11 1883   6.824   2.566   2.252
    5CHTO  H108 1884   6.899   2.580   2.176
    5CHTO  H109 1885   6.814   2.461   2.273
    5CHTO   C61 1886   6.635   2.733   2.310
    5CHTO  H118 1887   6.713   2.811   2.317
    5CHTO   O40 1888   6.516   2.798   2.257
    5CHTO   C68 1889   6.457   2.747   2.133
    5CHTO  H125 1890   6.521   2.776   2.048
    5CHTO   C72 1891   6.320   2.816   2.112
    5CHTO   O48 1892   6.332   2.957   2.092
    5CHTO  H105 1893   6.247   2.994   2.078
    5CHTO   O38 1894   6.608   2.679   2.441
    5CHTO   C55 1895   6.541   2.761   2.540
    5CHTO  H112 1896   6.458   2.816   2.492
    5CHTO   C56 1897   6.642   2.860   2.614
    5CHTO  H113 1898   6.724   2.799   2.654
    5CHTO   O42 1899   6.702   2.950   2.519
    5CHTO  H100 1900   6.636   3.003   2.477
    5CHTO   C57 1901   6.569   2.938   2.730
    5CHTO  H114 1902   6.494   3.003   2.683
    5CHTO   N10 1903   6.661   3.025   2.809
    5CHTO  H106 1904   6.704   2.970   0.017
    5CHTO  H107 1905   6.607   3.110   2.848
    5CHTO   C58 1906   6.495   2.836   2.821
    5CHTO  H115 1907   6.570   2.771   2.870
    5CHTO   O37 1908   6.407   2.753   2.744
    5CHTO   C59 1909   6.474   2.671   2.647
    5CHTO  H116 1910   6.549   2.609   2.697
    5CHTO   C70 1911   6.372   2.577   2.582
    5CHTO   O46 1912   6.319   2.482   2.676
    5CHTO  H103 1913   6.261   2.423   2.632
    5CHTO   O39 1914   6.410   2.912   0.069
    5CHTO   C60 1915   6.273   2.948   0.044
    5CHTO  H117 1916   6.259   2.972   2.813
    5CHTO   C62 1917   6.175   2.833   0.084
    5CHTO  H119 1918   6.197   2.748   0.015
    5CHTO   O43 1919   6.203   2.792   0.219
    5CHTO  H101 1920   6.150   2.718   0.242
    5CHTO   C66 1921   6.022   2.880   0.063
    5CHTO  H123 1922   6.009   2.910   2.833
    5CHTO   N12 1923   5.925   2.771   0.088
    5CHTO  H110 1924   5.945   2.689   0.020
    5CHTO  H111 1925   5.824   2.807   0.075
    5CHTO   C69 1926   5.997   3.005   0.152
    5CHTO  H126 1927   6.017   2.980   0.259
    5CHTO   O41 1928   6.094   3.116   0.106
    5CHTO   C64 1929   6.240   3.078   0.124
    5CHTO  H121 1930   6.261   3.060   0.232
    5CHTO   C71 1931   6.329   3.196   0.077
    5CHTO   O47 1932   6.305   3.313   0.156
    5CHTO  H104 1933   6.356   3.384   0.122
    5CHTO   O34 1934   5.849   3.061   0.143
    5CHTO   C49 1935   5.745   3.151   0.075
    5CHTO   H91 1936   5.668   3.167   0.150
    5CHTO   C47 1937   5.682   3.079   2.828
    5CHTO   H89 1938   5.612   3.004   2.872
    5CHTO   O33 1939   5.781   3.010   2.751
    5CHTO   H70 1940   5.740   2.953   2.688
    5CHTO   C45 1941   5.605   3.182   2.729
    5CHTO   H87 1942   5.674   3.207   2.647
    5CHTO    N8 1943   5.485   3.118   2.669
    5CHTO   H75 1944   5.513   3.025   2.621
    5CHTO   H76 1945   5.412   3.099   2.746
    5CHTO   C43 1946   5.578   3.323   2.799
    5CHTO   H85 1947   5.529   3.386   2.725
    5CHTO   O29 1948   5.703   3.379   2.842
    5CHTO   C50 1949   5.799   3.291   0.031
    5CHTO   H92 1950   5.882   3.274   2.835
    5CHTO   C54 1951   5.866   3.367   0.148
    5CHTO   O36 1952   5.771   3.410   0.245
    5CHTO   H72 1953   5.815   3.458   0.313
    5CHTO   O27 1954   5.487   3.312   0.036
    5CHTO   C37 1955   5.377   3.381   0.098
    5CHTO   H79 1956   5.407   3.484   0.124
    5CHTO   C38 1957   5.256   3.393   2.873
    5CHTO   H80 1958   5.239   3.294   2.828
    5CHTO   O31 1959   5.293   3.485   2.769
    5CHTO   H68 1960   5.360   3.448   2.715
    5CHTO   C39 1961   5.123   3.439   0.071
    5CHTO   H81 1962   5.138   3.542   0.104
    5CHTO    N7 1963   5.002   3.438   2.856
    5CHTO   H73 1964   4.961   3.537   2.847
    5CHTO   H74 1965   5.027   3.400   2.758
    5CHTO   C40 1966   5.100   3.353   0.201
    5CHTO   H82 1967   5.082   3.249   0.171
    5CHTO   O26 1968   5.215   3.366   0.286
    5CHTO   C41 1969   5.335   3.306   0.228
    5CHTO   H83 1970   5.317   3.200   0.204
    5CHTO   C52 1971   5.448   3.312   0.334
    5CHTO   O35 1972   5.414   3.234   0.457
    5CHTO   H71 1973   5.412   3.142   0.437
    5CHTO   O28 1974   4.985   3.396   0.278
    5CHTO   C42 1975   4.944   3.340   0.407
    5CHTO   H84 1976   4.838   3.365   0.413
    5CHTO   C44 1977   5.011   3.408   0.532
    5CHTO   H86 1978   5.119   3.401   0.521
    5CHTO   O32 1979   4.975   3.547   0.526
    5CHTO   H69 1980   4.882   3.558   0.539
    5CHTO   C48 1981   4.970   3.340   0.669
    5CHTO   H90 1982   4.863   3.353   0.684
    5CHTO    N9 1983   5.037   3.404   0.787
    5CHTO   H77 1984   5.145   3.396   0.777
    5CHTO   H78 1985   5.007   3.507   0.795
    5CHTO   C51 1986   5.002   3.186   0.656
    5CHTO   H93 1987   5.107   3.177   0.628
    5CHTO   O30 1988   4.915   3.134   0.556
    5CHTO   C46 1989   4.955   3.184   0.415
    5CHTO   H88 1990   5.057   3.153   0.394
    5CHTO   C53 1991   4.859   3.118   0.313
    5CHTO   O72 1992   4.865   2.976   0.321
    5CHTO  H199 1993   4.805   2.938   0.259
    5CHTO   O22 1994   4.975   3.110   0.776
    5CHTO   C31 1995   5.054   2.988   0.805
    5CHTO   H59 1996   5.014   2.949   0.902
    5CHTO   C29 1997   5.036   2.876   0.701
    5CHTO   H57 1998   5.059   2.919   0.602
    5CHTO   O21 1999   4.897   2.840   0.699
    5CHTO   H37 2000   4.879   2.782   0.628
    5CHTO   C27 2001   5.132   2.753   0.725
    5CHTO   H55 2002   5.105   2.706   0.821
    5CHTO    N5 2003   5.122   2.650   0.619
    5CHTO   H43 2004   5.187   2.568   0.641
    5CHTO   H44 2005   5.020   2.615   0.611
    5CHTO   C25 2006   5.278   2.809   0.739
    5CHTO   H53 2007   5.305   2.863   0.647
    5CHTO   O17 2008   5.282   2.900   0.852
    5CHTO   C32 2009   5.206   3.019   0.832
    5CHTO   H60 2010   5.247   3.072   0.745
    5CHTO   C36 2011   5.223   3.109   0.957
    5CHTO   O25 2012   5.359   3.153   0.971
    5CHTO   H40 2013   5.414   3.080   0.994
    5CHTO   O15 2014   5.384   2.699   0.765
    5CHTO   C19 2015   5.523   2.667   0.793
    5CHTO   H47 2016   5.548   2.727   0.882
    5CHTO   C20 2017   5.544   2.516   0.825
    5CHTO   H48 2018   5.507   2.452   0.744
    5CHTO   O19 2019   5.463   2.489   0.942
    5CHTO   H35 2020   5.464   2.397   0.961
    5CHTO   C21 2021   5.695   2.480   0.851
    5CHTO   H49 2022   5.727   2.529   0.944
    5CHTO    N4 2023   5.717   2.334   0.871
    5CHTO   H41 2024   5.661   2.300   0.956
    5CHTO   H42 2025   5.685   2.280   0.783
    5CHTO   C22 2026   5.784   2.538   0.737
    5CHTO   H50 2027   5.763   2.484   0.645
    5CHTO   O14 2028   5.758   2.679   0.719
    5CHTO   C23 2029   5.623   2.712   0.681
    5CHTO   H51 2030   5.602   2.662   0.585
    5CHTO   C34 2031   5.617   2.863   0.657
    5CHTO   O23 2032   5.698   2.902   0.545
    5CHTO   H38 2033   5.660   2.870   0.465
    5CHTO   O16 2034   5.924   2.533   0.771
    5CHTO   C24 2035   6.023   2.487   0.651
    5CHTO   H52 2036   5.971   2.478   0.555
    5CHTO   C26 2037   6.085   2.350   0.689
    5CHTO   H54 2038   6.114   2.354   0.797
    5CHTO   O20 2039   5.982   2.251   0.674
    5CHTO   H36 2040   6.013   2.167   0.704
    5CHTO   C30 2041   6.212   2.315   0.605
    5CHTO   H58 2042   6.183   2.293   0.501
    5CHTO    N6 2043   6.278   2.191   0.656
    5CHTO   H45 2044   6.363   2.167   0.595
    5CHTO   H46 2045   6.311   2.206   0.758
    5CHTO   C33 2046   6.308   2.437   0.601
    5CHTO   H61 2047   6.338   2.462   0.704
    5CHTO   O18 2048   6.236   2.549   0.547
    5CHTO   C28 2049   6.131   2.597   0.633
    5CHTO   H56 2050   6.171   2.624   0.731
    5CHTO   C35 2051   6.068   2.723   0.569
    5CHTO   O24 2052   6.162   2.830   0.552
    5CHTO   H39 2053   6.226   2.807   0.487
    5CHTO    O9 2054   6.432   2.415   0.530
    5CHTO   C13 2055   6.426   2.398   0.368
    5CHTO   H26 2056   6.328   2.355   0.341
    5CHTO   C11 2057   6.546   2.304   0.323
    5CHTO   H24 2058   6.525   2.203   0.364
    5CHTO    O8 2059   6.669   2.349   0.382
    5CHTO    H3 2060   6.739   2.290   0.361
    5CHTO    C9 2061   6.547   2.296   0.169
    5CHTO   H22 2062   6.447   2.259   0.140
    5CHTO    N2 2063   6.642   2.194   0.116
    5CHTO   H10 2064   6.621   2.098   0.159
    5CHTO   H11 2065   6.634   2.189   0.008
    5CHTO    C7 2066   6.568   2.439   0.109
    5CHTO   H20 2067   6.553   2.426   2.873
    5CHTO    O4 2068   6.469   2.533   0.155
    5CHTO   C14 2069   6.433   2.539   0.295
    5CHTO   H27 2070   6.331   2.581   0.298
    5CHTO   C18 2071   6.525   2.641   0.369
    5CHTO   O13 2072   6.504   2.774   0.321
    5CHTO    H7 2073   6.561   2.833   0.367
    5CHTO    O2 2074   6.717   2.497   0.140
    5CHTO    C1 2075   6.786   2.561   0.031
    5CHTO   H14 2076   6.717   2.630   2.854
    5CHTO    C2 2077   6.848   2.462   2.797
    5CHTO   H15 2078   6.900   2.383   2.855
    5CHTO    O6 2079   6.742   2.402   2.721
    5CHTO    H1 2080   6.690   2.346   2.775
    5CHTO    C3 2081   6.951   2.536   2.699
    5CHTO   H16 2082   6.895   2.604   2.633
    5CHTO    N1 2083   7.026   2.441   2.610
    5CHTO    H8 2084   7.007   2.464   2.506
    5CHTO    H9 2085   6.998   2.338   2.630
    5CHTO    C4 2086   7.048   2.627   2.782
    5CHTO   H17 2087   7.112   2.564   2.844
    5CHTO    O1 2088   6.972   2.717   2.865
    5CHTO    C5 2089   6.898   2.650   0.094
    5CHTO   H18 2090   6.964   2.585   0.151
    5CHTO   C16 2091   6.840   2.758   0.188
    5CHTO   O11 2092   6.944   2.830   0.256
    5CHTO    H5 2093   6.991   2.883   0.194
    5CHTO    O3 2094   7.129   2.713   2.699
    5CHTO    C6 2095   7.243   2.774   2.768
    5CHTO   H19 2096   7.233   2.771   0.003
    5CHTO    C8 2097   7.375   2.699   2.731
    5CHTO   H21 2098   7.383   2.697   2.622
    5CHTO    O7 2099   7.364   2.565   2.781
    5CHTO    H2 2100   7.298   2.517   2.734
    5CHTO   C12 2101   7.500   2.774   2.791
    5CHTO   H25 2102   7.492   2.765   0.028
    5CHTO    N3 2103   7.630   2.709   2.751
    5CHTO   H12 2104   7.613   2.621   2.691
    5CHTO   H13 2105   7.687   2.684   2.840
    5CHTO   C15 2106   7.494   2.926   2.754
    5CHTO   H28 2107   7.510   2.942   2.647
    5CHTO   O10 2108   7.595   3.012   2.834
    5CHTO    H4 2109   7.598   3.099   2.801
    5CHTO    O5 2110   7.368   2.983   2.793
    5CHTO   C10 2111   7.254   2.925   2.729
    5CHTO   H23 2112   7.265   2.935   2.621
    5CHTO   C17 2113   7.131   3.007   2.772
    5CHTO   O12 2114   7.015   2.977   2.693
    5CHTO    H6 2115   7.027   3.008   2.606
    6CHTO  H203 2116   5.382   4.144   0.499
    6CHTO   O82 2117   5.306   4.198   0.511
    6CHTO  C123 2118   5.345   4.328   0.557
    6CHTO  H227 2119   5.408   4.376   0.481
    6CHTO   O77 2120   5.217   4.398   0.567
    6CHTO  C118 2121   5.227   4.536   0.605
    6CHTO  H222 2122   5.289   4.589   0.532
    6CHTO  C125 2123   5.082   4.598   0.601
    6CHTO   O84 2124   5.027   4.595   0.469
    6CHTO  H205 2125   5.011   4.506   0.443
    6CHTO  C114 2126   5.289   4.549   0.745
    6CHTO  H218 2127   5.222   4.503   0.818
    6CHTO  C116 2128   5.427   4.474   0.754
    6CHTO  H220 2129   5.503   4.531   0.695
    6CHTO   O79 2130   5.472   4.475   0.891
    6CHTO  H201 2131   5.492   4.563   0.918
    6CHTO  C120 2132   5.415   4.327   0.698
    6CHTO  H224 2133   5.353   4.271   0.771
    6CHTO   N21 2134   5.547   4.258   0.693
    6CHTO  H211 2135   5.627   4.328   0.675
    6CHTO  H212 2136   5.565   4.204   0.785
    6CHTO   O75 2137   5.297   4.692   0.767
    6CHTO  C112 2138   5.321   4.743   0.923
    6CHTO  H216 2139   5.423   4.716   0.955
    6CHTO   O73 2140   5.221   4.681   1.006
    6CHTO  C113 2141   5.233   4.719   1.144
    6CHTO  H217 2142   5.338   4.704   1.177
    6CHTO  C124 2143   5.148   4.623   1.230
    6CHTO   O83 2144   5.010   4.617   1.192
    6CHTO  H204 2145   5.002   4.578   1.107
    6CHTO  C109 2146   5.195   4.869   1.161
    6CHTO  H213 2147   5.092   4.880   1.126
    6CHTO  C110 2148   5.293   4.954   1.074
    6CHTO  H214 2149   5.391   4.951   1.122
    6CHTO   O78 2150   5.250   5.091   1.074
    6CHTO  H200 2151   5.313   5.145   1.031
    6CHTO  C111 2152   5.304   4.900   0.928
    6CHTO  H215 2153   5.210   4.924   0.875
    6CHTO   N19 2154   5.414   4.963   0.850
    6CHTO  H207 2155   5.469   5.034   0.910
    6CHTO  H208 2156   5.375   5.012   0.762
    6CHTO   O74 2157   5.202   4.907   1.303
    6CHTO  C115 2158   5.113   5.039   1.347
    6CHTO  H219 2159   5.150   5.131   1.300
    6CHTO   O76 2160   4.964   5.028   1.300
    6CHTO  C122 2161   4.900   4.913   1.358
    6CHTO  H226 2162   4.952   4.825   1.320
    6CHTO  C126 2163   4.755   4.905   1.299
    6CHTO   O85 2164   4.692   4.781   1.332
    6CHTO  H206 2165   4.606   4.780   1.296
    6CHTO  C121 2166   4.902   4.915   1.517
    6CHTO  H225 2167   4.798   4.920   1.553
    6CHTO   O81 2168   4.956   4.791   1.564
    6CHTO  H202 2169   5.046   4.782   1.538
    6CHTO  C119 2170   4.982   5.037   1.574
    6CHTO  H223 2171   4.923   5.125   1.549
    6CHTO  C117 2172   5.123   5.052   1.505
    6CHTO  H221 2173   5.195   4.976   1.534
    6CHTO   N20 2174   5.187   5.181   1.546
    6CHTO  H209 2175   5.130   5.265   1.508
    6CHTO  H210 2176   5.289   5.186   1.508
    6CHTO   O80 2177   4.988   5.046   1.740
    6CHTO  C103 2178   4.852   5.053   1.829
    6CHTO  H190 2179   4.871   5.109   1.920
    6CHTO  C101 2180   4.722   5.115   1.763
    6CHTO  H188 2181   4.705   5.070   1.666
    6CHTO   O68 2182   4.746   5.269   1.741
    6CHTO  H168 2183   4.755   5.312   1.824
    6CHTO   C99 2184   4.593   5.086   1.854
    6CHTO  H186 2185   4.606   5.137   1.952
    6CHTO   N17 2186   4.465   5.137   1.795
    6CHTO  H174 2187   4.391   5.059   1.786
    6CHTO  H175 2188   4.427   5.220   1.853
    6CHTO   C97 2189   4.586   4.934   1.887
    6CHTO  H184 2190   4.570   4.878   1.794
    6CHTO   O64 2191   4.708   4.895   1.953
    6CHTO  C104 2192   4.826   4.903   1.872
    6CHTO  H191 2193   4.817   4.841   1.783
    6CHTO  C108 2194   4.945   4.849   1.952
    6CHTO   O71 2195   4.928   4.710   1.986
    6CHTO  H171 2196   4.857   4.701   2.047
    6CHTO   O62 2197   4.486   4.900   1.986
    6CHTO   C91 2198   4.422   4.770   1.981
    6CHTO  H178 2199   4.371   4.759   2.077
    6CHTO   C92 2200   4.521   4.649   1.973
    6CHTO  H179 2201   4.586   4.661   1.885
    6CHTO   O66 2202   4.609   4.656   2.087
    6CHTO  H166 2203   4.561   4.646   2.167
    6CHTO   C93 2204   4.447   4.509   1.969
    6CHTO  H180 2205   4.404   4.493   2.069
    6CHTO   N16 2206   4.538   4.394   1.945
    6CHTO  H172 2207   4.482   4.302   1.947
    6CHTO  H173 2208   4.588   4.406   1.850
    6CHTO   C94 2209   4.329   4.511   1.864
    6CHTO  H181 2210   4.366   4.514   1.761
    6CHTO   O61 2211   4.246   4.626   1.883
    6CHTO   C95 2212   4.312   4.753   1.869
    6CHTO  H182 2213   4.359   4.758   1.770
    6CHTO  C106 2214   4.204   4.866   1.875
    6CHTO   O69 2215   4.140   4.870   2.003
    6CHTO  H169 2216   4.077   4.939   2.003
    6CHTO   O63 2217   4.235   4.381   1.887
    6CHTO   C96 2218   4.143   4.338   1.765
    6CHTO  H183 2219   4.202   4.348   1.674
    6CHTO   C98 2220   4.012   4.421   1.749
    6CHTO  H185 2221   3.971   4.442   1.849
    6CHTO   O67 2222   4.045   4.550   1.695
    6CHTO  H167 2223   3.970   4.606   1.694
    6CHTO  C102 2224   3.899   4.352   1.655
    6CHTO  H189 2225   3.884   4.422   1.571
    6CHTO   N18 2226   3.765   4.336   1.717
    6CHTO  H176 2227   3.765   4.375   1.818
    6CHTO  H177 2228   3.690   4.386   1.658
    6CHTO  C105 2229   3.951   4.220   1.593
    6CHTO  H192 2230   3.868   4.165   1.549
    6CHTO   O65 2231   4.018   4.130   1.685
    6CHTO  C100 2232   4.107   4.185   1.784
    6CHTO  H187 2233   4.058   4.174   1.881
    6CHTO  C107 2234   4.237   4.100   1.787
    6CHTO   O70 2235   4.209   3.965   1.826
    6CHTO  H170 2236   4.289   3.915   1.826
    6CHTO   O57 2237   4.044   4.269   1.479
    6CHTO   C85 2238   4.067   4.188   1.362
    6CHTO  H157 2239   3.976   4.125   1.350
    6CHTO   C83 2240   4.184   4.088   1.390
    6CHTO  H155 2241   4.149   4.015   1.463
    6CHTO   O56 2242   4.294   4.159   1.451
    6CHTO  H135 2243   4.361   4.098   1.477
    6CHTO   C81 2244   4.221   4.014   1.259
    6CHTO  H153 2245   4.131   3.964   1.221
    6CHTO   N14 2246   4.319   3.903   1.277
    6CHTO  H141 2247   4.356   3.901   1.378
    6CHTO  H142 2248   4.275   3.809   1.253
    6CHTO   C79 2249   4.268   4.119   1.151
    6CHTO  H151 2250   4.292   4.063   1.060
    6CHTO   O52 2251   4.155   4.206   1.119
    6CHTO   C86 2252   4.095   4.276   1.233
    6CHTO  H158 2253   4.167   4.358   1.255
    6CHTO   C90 2254   3.966   4.344   1.181
    6CHTO   O60 2255   3.901   4.423   1.281
    6CHTO  H138 2256   3.953   4.498   1.303
    6CHTO   O50 2257   4.382   4.197   1.190
    6CHTO   C73 2258   4.469   4.289   1.122
    6CHTO  H145 2259   4.410   4.355   1.057
    6CHTO   C74 2260   4.570   4.210   1.034
    6CHTO  H146 2261   4.511   4.146   0.965
    6CHTO   O54 2262   4.641   4.304   0.951
    6CHTO  H133 2263   4.698   4.259   0.892
    6CHTO   C75 2264   4.663   4.124   1.128
    6CHTO  H147 2265   4.601   4.053   1.184
    6CHTO   N13 2266   4.761   4.039   1.055
    6CHTO  H139 2267   4.825   4.101   0.993
    6CHTO  H140 2268   4.709   3.969   0.991
    6CHTO   C76 2269   4.734   4.220   1.235
    6CHTO  H148 2270   4.799   4.289   1.181
    6CHTO   O49 2271   4.632   4.294   1.309
    6CHTO   C77 2272   4.546   4.376   1.226
    6CHTO  H149 2273   4.606   4.450   1.173
    6CHTO   C88 2274   4.454   4.455   1.320
    6CHTO   O58 2275   4.372   4.550   1.247
    6CHTO  H136 2276   4.316   4.596   1.307
    6CHTO   O51 2277   4.814   4.133   1.347
    6CHTO   C78 2278   4.912   4.214   1.453
    6CHTO  H150 2279   4.960   4.140   1.519
    6CHTO   C80 2280   4.835   4.315   1.541
    6CHTO  H152 2281   4.787   4.390   1.475
    6CHTO   O55 2282   4.733   4.239   1.609
    6CHTO  H134 2283   4.677   4.297   1.658
    6CHTO   C84 2284   4.933   4.388   1.642
    6CHTO  H156 2285   4.972   4.312   1.710
    6CHTO   N15 2286   4.863   4.489   1.727
    6CHTO  H143 2287   4.820   4.566   1.666
    6CHTO  H144 2288   4.932   4.534   1.795
    6CHTO   C87 2289   5.051   4.450   1.564
    6CHTO  H159 2290   5.017   4.533   1.503
    6CHTO   O53 2291   5.116   4.342   1.476
    6CHTO   C82 2292   5.026   4.286   1.379
    6CHTO  H154 2293   4.988   4.363   1.313
    6CHTO   C89 2294   5.106   4.187   1.292
    6CHTO   O59 2295   5.218   4.251   1.230
    6CHTO  H137 2296   5.188   4.313   1.166
    6CHTO   O45 2297   5.169   4.504   1.666
    6CHTO   C67 2298   5.281   4.563   1.597
    6CHTO  H124 2299   5.270   4.552   1.489
    6CHTO   C65 2300   5.292   4.714   1.632
    6CHTO  H122 2301   5.191   4.755   1.622
    6CHTO   O44 2302   5.378   4.781   1.538
    6CHTO  H102 2303   5.467   4.752   1.549
    6CHTO   C63 2304   5.329   4.731   1.784
    6CHTO  H120 2305   5.255   4.676   1.843
    6CHTO   N11 2306   5.317   4.870   1.840
    6CHTO  H108 2307   5.235   4.877   1.908
    6CHTO  H109 2308   5.305   4.941   1.761
    6CHTO   C61 2309   5.468   4.661   1.811
    6CHTO  H118 2310   5.482   4.662   1.920
    6CHTO   O40 2311   5.465   4.521   1.770
    6CHTO   C68 2312   5.413   4.484   1.637
    6CHTO  H125 2313   5.386   4.377   1.644
    6CHTO   C72 2314   5.526   4.495   1.531
    6CHTO   O48 2315   5.486   4.447   1.402
    6CHTO  H105 2316   5.557   4.459   1.342
    6CHTO   O38 2317   5.581   4.723   1.745
    6CHTO   C55 2318   5.670   4.806   1.823
    6CHTO  H112 2319   5.626   4.829   1.921
    6CHTO   C56 2320   5.702   4.938   1.741
    6CHTO  H113 2321   5.736   4.906   1.641
    6CHTO   O42 2322   5.582   5.014   1.719
    6CHTO  H100 2323   5.545   5.040   1.801
    6CHTO   C57 2324   5.814   5.025   1.811
    6CHTO  H114 2325   5.770   5.065   1.903
    6CHTO   N10 2326   5.859   5.141   1.730
    6CHTO  H106 2327   5.853   5.118   1.625
    6CHTO  H107 2328   5.798   5.227   1.751
    6CHTO   C58 2329   5.934   4.936   1.849
    6CHTO  H115 2330   5.986   4.902   1.756
    6CHTO   O37 2331   5.893   4.820   1.924
    6CHTO   C59 2332   5.805   4.732   1.853
    6CHTO  H116 2333   5.852   4.700   1.760
    6CHTO   C70 2334   5.785   4.606   1.938
    6CHTO   O46 2335   5.728   4.631   2.067
    6CHTO  H103 2336   5.638   4.658   2.058
    6CHTO   O39 2337   6.039   5.017   1.946
    6CHTO   C60 2338   6.176   4.990   1.915
    6CHTO  H117 2339   6.188   4.884   1.891
    6CHTO   C62 2340   6.225   5.074   1.793
    6CHTO  H119 2341   6.158   5.047   1.708
    6CHTO   O43 2342   6.208   5.215   1.820
    6CHTO  H101 2343   6.262   5.241   1.891
    6CHTO   C66 2344   6.375   5.032   1.757
    6CHTO  H123 2345   6.377   4.925   1.739
    6CHTO   N12 2346   6.424   5.096   1.632
    6CHTO  H110 2347   6.525   5.064   1.611
    6CHTO  H111 2348   6.358   5.070   1.550
    6CHTO   C69 2349   6.467   5.061   1.878
    6CHTO  H126 2350   6.472   5.171   1.898
    6CHTO   O41 2351   6.412   4.987   2.006
    6CHTO   C64 2352   6.266   5.018   2.039
    6CHTO  H121 2353   6.256   5.125   2.067
    6CHTO   C71 2354   6.222   4.932   2.159
    6CHTO   O47 2355   6.298   4.964   2.277
    6CHTO  H104 2356   6.387   4.937   2.266
    6CHTO   O34 2357   6.612   5.010   1.853
    6CHTO   C49 2358   6.757   5.021   1.892
    6CHTO   H91 2359   6.808   4.939   1.842
    6CHTO   C47 2360   6.772   5.007   2.045
    6CHTO   H89 2361   6.881   4.998   2.064
    6CHTO   O33 2362   6.708   4.884   2.086
    6CHTO   H70 2363   6.616   4.889   2.074
    6CHTO   C45 2364   6.714   5.137   2.119
    6CHTO   H87 2365   6.608   5.149   2.092
    6CHTO    N8 2366   6.722   5.126   2.267
    6CHTO   H75 2367   6.671   5.037   2.300
    6CHTO   H76 2368   6.676   5.213   2.313
    6CHTO   C43 2369   6.786   5.269   2.062
    6CHTO   H85 2370   6.734   5.354   2.107
    6CHTO   O29 2371   6.778   5.273   1.918
    6CHTO   C50 2372   6.817   5.156   1.844
    6CHTO   H92 2373   6.782   5.171   1.740
    6CHTO   C54 2374   6.971   5.145   1.827
    6CHTO   O36 2375   7.024   5.257   1.754
    6CHTO   H72 2376   7.019   5.334   1.807
    6CHTO   O27 2377   6.924   5.281   2.104
    6CHTO   C37 2378   7.025   5.382   2.119
    6CHTO   H79 2379   7.115   5.352   2.064
    6CHTO   C38 2380   6.980   5.520   2.063
    6CHTO   H80 2381   6.882   5.544   2.106
    6CHTO   O31 2382   6.965   5.507   1.920
    6CHTO   H68 2383   6.892   5.452   1.899
    6CHTO   C39 2384   7.081   5.635   2.099
    6CHTO   H81 2385   7.174   5.615   2.045
    6CHTO    N7 2386   7.033   5.771   2.057
    6CHTO   H73 2387   7.106   5.846   2.084
    6CHTO   H74 2388   7.017   5.773   1.950
    6CHTO   C40 2389   7.115   5.630   2.253
    6CHTO   H82 2390   7.025   5.657   2.309
    6CHTO   O26 2391   7.162   5.499   2.289
    6CHTO   C41 2392   7.061   5.395   2.270
    6CHTO   H83 2393   6.971   5.421   2.327
    6CHTO   C52 2394   7.117   5.263   2.329
    6CHTO   O35 2395   7.244   5.217   2.264
    6CHTO   H71 2396   7.312   5.280   2.280
    6CHTO   O28 2397   7.221   5.721   2.291
    6CHTO   C42 2398   7.238   5.767   2.429
    6CHTO   H84 2399   7.320   5.838   2.421
    6CHTO   C44 2400   7.285   5.659   2.532
    6CHTO   H86 2401   7.214   5.576   2.531
    6CHTO   O32 2402   7.412   5.610   2.483
    6CHTO   H69 2403   7.444   5.542   2.539
    6CHTO   C48 2404   7.294   5.715   2.680
    6CHTO   H90 2405   7.370   5.793   2.683
    6CHTO    N9 2406   7.338   5.611   2.779
    6CHTO   H77 2407   7.270   5.527   2.777
    6CHTO   H78 2408   7.439   5.579   2.756
    6CHTO   C51 2409   7.154   5.779   2.716
    6CHTO   H93 2410   7.078   5.702   2.703
    6CHTO   O30 2411   7.133   5.890   2.629
    6CHTO   C46 2412   7.114   5.845   2.482
    6CHTO   H88 2413   7.027   5.780   2.480
    6CHTO   C53 2414   7.086   5.971   2.395
    6CHTO   O72 2415   7.190   6.069   2.405
    6CHTO  H199 2416   7.188   6.109   2.490
    6CHTO   O22 2417   7.148   5.834   2.849
    6CHTO   C31 2418   7.022   5.826   0.053
    6CHTO   H59 2419   6.939   5.826   2.852
    6CHTO   C29 2420   7.007   5.696   0.136
    6CHTO   H57 2421   7.093   5.693   0.205
    6CHTO   O21 2422   7.020   5.582   0.049
    6CHTO   H37 2423   6.948   5.579   2.862
    6CHTO   C27 2424   6.873   5.691   0.220
    6CHTO   H55 2425   6.789   5.674   0.151
    6CHTO    N5 2426   6.874   5.582   0.321
    6CHTO   H43 2427   6.954   5.598   0.393
    6CHTO   H44 2428   6.887   5.486   0.272
    6CHTO   C25 2429   6.844   5.829   0.290
    6CHTO   H53 2430   6.913   5.844   0.375
    6CHTO   O17 2431   6.863   5.940   0.197
    6CHTO   C32 2432   6.997   5.948   0.146
    6CHTO   H60 2433   7.069   5.945   0.228
    6CHTO   C36 2434   7.011   6.085   0.074
    6CHTO   O25 2435   7.147   6.114   0.038
    6CHTO   H40 2436   7.177   6.053   2.848
    6CHTO   O15 2437   6.691   5.834   0.345
    6CHTO   C19 2438   6.596   5.925   0.409
    6CHTO   H47 2439   6.624   5.921   0.515
    6CHTO   C20 2440   6.609   6.074   0.361
    6CHTO   H48 2441   6.607   6.081   0.251
    6CHTO   O19 2442   6.739   6.120   0.403
    6CHTO   H35 2443   6.745   6.121   0.497
    6CHTO   C21 2444   6.494   6.166   0.418
    6CHTO   H49 2445   6.504   6.171   0.526
    6CHTO    N4 2446   6.502   6.306   0.368
    6CHTO   H41 2447   6.423   6.365   0.411
    6CHTO   H42 2448   6.494   6.307   0.260
    6CHTO   C22 2449   6.358   6.098   0.386
    6CHTO   H50 2450   6.351   6.086   0.278
    6CHTO   O14 2451   6.354   5.970   0.450
    6CHTO   C23 2452   6.448   5.874   0.399
    6CHTO   H51 2453   6.420   5.851   0.296
    6CHTO   C34 2454   6.430   5.746   0.483
    6CHTO   O23 2455   6.302   5.686   0.461
    6CHTO   H38 2456   6.235   5.741   0.495
    6CHTO   O16 2457   6.244   6.170   0.437
    6CHTO   C24 2458   6.107   6.143   0.351
    6CHTO   H52 2459   6.112   6.049   0.295
    6CHTO   C26 2460   6.084   6.261   0.255
    6CHTO   H54 2461   6.092   6.355   0.314
    6CHTO   O20 2462   6.191   6.262   0.159
    6CHTO   H36 2463   6.188   6.185   0.105
    6CHTO   C30 2464   5.944   6.255   0.185
    6CHTO   H58 2465   5.946   6.178   0.107
    6CHTO    N6 2466   5.918   6.383   0.114
    6CHTO   H45 2467   5.823   6.378   0.063
    6CHTO   H46 2468   5.916   6.465   0.184
    6CHTO   C33 2469   5.828   6.216   0.283
    6CHTO   H61 2470   5.800   6.302   0.346
    6CHTO   O18 2471   5.869   6.108   0.370
    6CHTO   C28 2472   5.987   6.131   0.448
    6CHTO   H56 2473   5.978   6.223   0.505
    6CHTO   C35 2474   6.011   6.013   0.545
    6CHTO   O24 2475   5.911   6.005   0.648
    6CHTO   H39 2476   5.929   5.930   0.702
    6CHTO    O9 2477   5.707   6.181   0.210
    6CHTO   C13 2478   5.592   6.303   0.187
    6CHTO   H26 2479   5.645   6.398   0.172
    6CHTO   C11 2480   5.492   6.310   0.309
    6CHTO   H24 2481   5.552   6.330   0.400
    6CHTO    O8 2482   5.429   6.181   0.327
    6CHTO    H3 2483   5.373   6.183   0.402
    6CHTO    C9 2484   5.396   6.430   0.285
    6CHTO   H22 2485   5.459   6.520   0.292
    6CHTO    N2 2486   5.299   6.448   0.396
    6CHTO   H10 2487   5.244   6.540   0.383
    6CHTO   H11 2488   5.351   6.449   0.491
    6CHTO    C7 2489   5.334   6.427   0.138
    6CHTO   H20 2490   5.384   6.513   0.088
    6CHTO    O4 2491   5.367   6.306   0.068
    6CHTO   C14 2492   5.508   6.280   0.052
    6CHTO   H27 2493   5.546   6.351   2.849
    6CHTO   C18 2494   5.523   6.138   2.866
    6CHTO   O13 2495   5.461   6.035   0.071
    6CHTO    H7 2496   5.368   6.044   0.067
    6CHTO    O2 2497   5.168   6.452   0.128
    6CHTO    C1 2498   5.120   6.481   2.869
    6CHTO   H14 2499   5.200   6.458   2.794
    6CHTO    C2 2500   5.075   6.632   2.851
    6CHTO   H15 2501   5.004   6.652   0.058
    6CHTO    O6 2502   5.190   6.717   2.867
    6CHTO    H1 2503   5.253   6.701   2.799
    6CHTO    C3 2504   5.004   6.655   2.708
    6CHTO   H16 2505   5.078   6.640   2.628
    6CHTO    N1 2506   4.949   6.794   2.693
    6CHTO    H8 2507   4.876   6.813   2.771
    6CHTO    H9 2508   5.029   6.866   2.699
    6CHTO    C4 2509   4.894   6.544   2.686
    6CHTO   H17 2510   4.814   6.560   2.758
    6CHTO    O1 2511   4.953   6.414   2.702
    6CHTO    C5 2512   5.000   6.387   2.835
    6CHTO   H18 2513   4.921   6.404   0.034
    6CHTO   C16 2514   5.038   6.237   2.837
    6CHTO   O11 2515   5.067   6.191   0.096
    6CHTO    H5 2516   5.093   6.101   0.092
    6CHTO    O3 2517   4.841   6.545   2.551
    6CHTO    C6 2518   4.704   6.499   2.519
    6CHTO   H19 2519   4.704   6.440   2.428
    6CHTO    C8 2520   4.634   6.409   2.627
    6CHTO   H21 2521   4.634   6.462   2.723
    6CHTO    O7 2522   4.711   6.288   2.637
    6CHTO    H2 2523   4.678   6.235   2.707
    6CHTO   C12 2524   4.483   6.380   2.588
    6CHTO   H25 2525   4.486   6.318   2.496
    6CHTO    N3 2526   4.413   6.298   2.693
    6CHTO   H12 2527   4.312   6.278   2.662
    6CHTO   H13 2528   4.413   6.352   2.787
    6CHTO   C15 2529   4.410   6.514   2.555
    6CHTO   H28 2530   4.397   6.577   2.644
    6CHTO   O10 2531   4.271   6.492   2.488
    6CHTO    H4 2532   4.279   6.437   2.413
    6CHTO    O5 2533   4.481   6.587   2.454
    6CHTO   C10 2534   4.615   6.625   2.491
    6CHTO   H23 2535   4.610   6.687   2.580
    6CHTO   C17 2536   4.671   6.713   2.378
    6CHTO   O12 2537   4.674   6.647   2.252
    6CHTO    H6 2538   4.586   6.634   2.220
    7CHTO  H203 2539   4.768   1.701   2.813
    7CHTO   O82 2540   4.835   1.716   2.750
    7CHTO  C123 2541   4.898   1.844   2.771
    7CHTO  H227 2542   4.819   1.920   2.787
    7CHTO   O77 2543   4.973   1.824   0.021
    7CHTO  C118 2544   5.042   1.941   0.067
    7CHTO  H222 2545   4.969   2.024   0.076
    7CHTO  C125 2546   5.102   1.912   0.210
    7CHTO   O84 2547   5.198   1.805   0.208
    7CHTO  H205 2548   5.232   1.792   0.294
    7CHTO  C114 2549   5.149   1.980   2.838
    7CHTO  H218 2550   5.219   1.897   2.827
    7CHTO  C116 2551   5.084   2.007   2.699
    7CHTO  H220 2552   5.022   2.100   2.706
    7CHTO   O79 2553   5.189   2.035   2.604
    7CHTO  H201 2554   5.152   2.063   2.523
    7CHTO  C120 2555   4.995   1.885   2.654
    7CHTO  H224 2556   5.065   1.801   2.632
    7CHTO   N21 2557   4.920   1.913   2.528
    7CHTO  H211 2558   4.979   1.886   2.442
    7CHTO  H212 2559   4.891   2.018   2.524
    7CHTO   O75 2560   5.216   2.095   0.019
    7CHTO  C112 2561   5.376   2.093   2.870
    7CHTO  H216 2562   5.397   2.056   2.768
    7CHTO   O73 2563   5.433   2.007   0.096
    7CHTO  C113 2564   5.575   1.995   0.089
    7CHTO  H217 2565   5.604   1.961   2.861
    7CHTO  C124 2566   5.622   1.886   0.187
    7CHTO   O83 2567   5.583   1.910   0.323
    7CHTO  H204 2568   5.630   1.984   0.357
    7CHTO  C109 2569   5.641   2.133   0.117
    7CHTO  H213 2570   5.612   2.161   0.219
    7CHTO  C110 2571   5.589   2.238   0.014
    7CHTO  H214 2572   5.629   2.212   2.790
    7CHTO   O78 2573   5.642   2.367   0.049
    7CHTO  H200 2574   5.620   2.430   2.858
    7CHTO  C111 2575   5.433   2.240   0.009
    7CHTO  H215 2576   5.396   2.280   0.105
    7CHTO   N19 2577   5.380   2.328   2.776
    7CHTO  H207 2578   5.317   2.405   2.818
    7CHTO  H208 2579   5.324   2.272   2.702
    7CHTO   O74 2580   5.786   2.122   0.111
    7CHTO  C115 2581   5.859   2.208   0.222
    7CHTO  H219 2582   5.801   2.297   0.248
    7CHTO   O76 2583   5.876   2.125   0.359
    7CHTO  C122 2584   5.961   2.010   0.343
    7CHTO  H226 2585   5.915   1.942   0.271
    7CHTO  C126 2586   5.966   1.932   0.479
    7CHTO   O85 2587   5.839   1.877   0.516
    7CHTO  H206 2588   5.779   1.946   0.537
    7CHTO  C121 2589   6.104   2.053   0.292
    7CHTO  H225 2590   6.149   2.123   0.366
    7CHTO   O81 2591   6.191   1.939   0.283
    7CHTO  H202 2592   6.204   1.902   0.368
    7CHTO  C119 2593   6.089   2.127   0.155
    7CHTO  H223 2594   6.189   2.159   0.123
    7CHTO  C117 2595   5.997   2.254   0.162
    7CHTO  H221 2596   5.971   2.298   0.065
    7CHTO   N20 2597   6.056   2.368   0.240
    7CHTO  H209 2598   6.071   2.338   0.343
    7CHTO  H210 2599   5.990   2.454   0.236
    7CHTO   O80 2600   6.046   2.035   0.035
    7CHTO  C103 2601   6.154   1.952   2.822
    7CHTO  H190 2602   6.135   1.968   2.716
    7CHTO  C101 2603   6.308   1.975   2.848
    7CHTO  H188 2604   6.327   1.973   0.082
    7CHTO   O68 2605   6.348   2.116   2.795
    7CHTO  H168 2606   6.302   2.182   2.843
    7CHTO   C99 2607   6.397   1.860   2.780
    7CHTO  H186 2608   6.393   1.873   2.669
    7CHTO   N17 2609   6.543   1.867   2.817
    7CHTO  H174 2610   6.582   1.965   2.794
    7CHTO  H175 2611   6.555   1.844   0.048
    7CHTO   C97 2612   6.338   1.719   2.808
    7CHTO  H184 2613   6.353   1.696   0.041
    7CHTO   O64 2614   6.199   1.718   2.772
    7CHTO  C104 2615   6.117   1.803   2.853
    7CHTO  H191 2616   6.132   1.783   0.085
    7CHTO  C108 2617   5.970   1.772   2.823
    7CHTO   O71 2618   5.936   1.638   2.864
    7CHTO  H171 2619   5.981   1.576   2.810
    7CHTO   O62 2620   6.404   1.616   2.729
    7CHTO   C91 2621   6.350   1.482   2.719
    7CHTO  H178 2622   6.435   1.417   2.700
    7CHTO   C92 2623   6.260   1.475   2.590
    7CHTO  H179 2624   6.195   1.564   2.586
    7CHTO   O66 2625   6.347   1.489   2.476
    7CHTO  H166 2626   6.406   1.416   2.471
    7CHTO   C93 2627   6.172   1.345   2.580
    7CHTO  H180 2628   6.239   1.260   2.562
    7CHTO   N16 2629   6.076   1.346   2.467
    7CHTO  H172 2630   6.007   1.429   2.477
    7CHTO  H173 2631   6.022   1.253   2.462
    7CHTO   C94 2632   6.101   1.323   2.718
    7CHTO  H181 2633   6.041   1.410   2.748
    7CHTO   O61 2634   6.202   1.305   2.818
    7CHTO   C95 2635   6.276   1.424   2.847
    7CHTO  H182 2636   6.207   1.498   0.014
    7CHTO  C106 2637   6.380   1.392   0.087
    7CHTO   O69 2638   6.314   1.358   0.209
    7CHTO  H169 2639   6.273   1.435   0.245
    7CHTO   O63 2640   6.010   1.192   2.720
    7CHTO   C96 2641   5.897   1.203   2.823
    7CHTO  H183 2642   5.859   1.306   2.821
    7CHTO   C98 2643   5.940   1.172   0.097
    7CHTO  H185 2644   6.033   1.224   0.122
    7CHTO   O67 2645   5.841   1.225   0.186
    7CHTO  H167 2646   5.757   1.186   0.171
    7CHTO  C102 2647   5.952   1.014   0.124
    7CHTO  H189 2648   5.959   1.004   0.233
    7CHTO   N18 2649   6.074   0.949   0.070
    7CHTO  H176 2650   6.137   1.021   0.021
    7CHTO  H177 2651   6.129   0.901   0.150
    7CHTO  C105 2652   5.820   0.944   0.076
    7CHTO  H192 2653   5.843   0.864   0.006
    7CHTO   O65 2654   5.724   1.030   0.011
    7CHTO  C100 2655   5.780   1.106   2.776
    7CHTO  H187 2656   5.821   1.034   2.703
    7CHTO  C107 2657   5.666   1.183   2.705
    7CHTO   O70 2658   5.712   1.247   2.586
    7CHTO  H170 2659   5.769   1.318   2.608
    7CHTO   O57 2660   5.759   0.885   0.209
    7CHTO   C85 2661   5.764   0.743   0.227
    7CHTO  H157 2662   5.845   0.705   0.160
    7CHTO   C83 2663   5.632   0.679   0.174
    7CHTO  H155 2664   5.620   0.708   0.069
    7CHTO   O56 2665   5.519   0.734   0.244
    7CHTO  H135 2666   5.522   0.710   0.334
    7CHTO   C81 2667   5.645   0.524   0.182
    7CHTO  H153 2668   5.731   0.495   0.122
    7CHTO   N14 2669   5.531   0.452   0.119
    7CHTO  H141 2670   5.453   0.520   0.091
    7CHTO  H142 2671   5.564   0.399   0.032
    7CHTO   C79 2672   5.672   0.479   0.331
    7CHTO  H151 2673   5.699   0.374   0.328
    7CHTO   O52 2674   5.788   0.549   0.388
    7CHTO   C86 2675   5.785   0.694   0.375
    7CHTO  H158 2676   5.700   0.726   0.440
    7CHTO   C90 2677   5.912   0.757   0.437
    7CHTO   O60 2678   5.919   0.734   0.578
    7CHTO  H138 2679   5.996   0.773   0.613
    7CHTO   O50 2680   5.560   0.496   0.421
    7CHTO   C73 2681   5.533   0.394   0.518
    7CHTO  H145 2682   5.624   0.333   0.536
    7CHTO   C74 2683   5.421   0.299   0.465
    7CHTO  H146 2684   5.453   0.264   0.365
    7CHTO   O54 2685   5.419   0.182   0.549
    7CHTO  H133 2686   5.356   0.120   0.516
    7CHTO   C75 2687   5.284   0.376   0.460
    7CHTO  H147 2688   5.295   0.463   0.393
    7CHTO   N13 2689   5.171   0.297   0.404
    7CHTO  H139 2690   5.157   0.207   0.463
    7CHTO  H140 2691   5.193   0.269   0.302
    7CHTO   C76 2692   5.253   0.432   0.606
    7CHTO  H148 2693   5.251   0.346   0.674
    7CHTO   O49 2694   5.361   0.522   0.646
    7CHTO   C77 2695   5.490   0.457   0.654
    7CHTO  H149 2696   5.485   0.379   0.730
    7CHTO   C88 2697   5.593   0.559   0.706
    7CHTO   O58 2698   5.560   0.604   0.845
    7CHTO  H136 2699   5.480   0.653   0.845
    7CHTO   O51 2700   5.120   0.519   0.616
    7CHTO   C78 2701   5.068   0.519   0.767
    7CHTO  H150 2702   5.145   0.477   0.835
    7CHTO   C80 2703   4.939   0.436   0.780
    7CHTO  H152 2704   4.862   0.479   0.712
    7CHTO   O55 2705   4.969   0.302   0.736
    7CHTO  H134 2706   4.984   0.300   0.644
    7CHTO   C84 2707   4.884   0.437   0.928
    7CHTO  H156 2708   4.957   0.384   0.990
    7CHTO   N15 2709   4.753   0.364   0.943
    7CHTO  H143 2710   4.765   0.261   0.915
    7CHTO  H144 2711   4.679   0.409   0.881
    7CHTO   C87 2712   4.873   0.582   0.982
    7CHTO  H159 2713   4.790   0.634   0.934
    7CHTO   O53 2714   5.008   0.658   0.953
    7CHTO   C82 2715   5.043   0.664   0.814
    7CHTO  H154 2716   4.964   0.712   0.757
    7CHTO   C89 2717   5.168   0.754   0.804
    7CHTO   O59 2718   5.198   0.789   0.668
    7CHTO  H137 2719   5.276   0.840   0.666
    7CHTO   O45 2720   4.844   0.579   1.151
    7CHTO   C67 2721   4.919   0.673   1.229
    7CHTO  H124 2722   5.020   0.683   1.188
    7CHTO   C65 2723   4.851   0.815   1.229
    7CHTO  H122 2724   4.744   0.797   1.221
    7CHTO   O44 2725   4.897   0.882   1.111
    7CHTO  H102 2726   4.987   0.908   1.120
    7CHTO   C63 2727   4.868   0.891   1.367
    7CHTO  H120 2728   4.797   0.850   1.438
    7CHTO   N11 2729   4.831   1.036   1.367
    7CHTO  H108 2730   4.899   1.092   1.306
    7CHTO  H109 2731   4.833   1.075   1.467
    7CHTO   C61 2732   5.011   0.859   1.424
    7CHTO  H118 2733   5.020   0.910   1.521
    7CHTO   O40 2734   5.029   0.716   1.451
    7CHTO   C68 2735   4.941   0.623   1.378
    7CHTO  H125 2736   4.844   0.619   1.430
    7CHTO   C72 2737   5.002   0.481   1.384
    7CHTO   O48 2738   5.132   0.472   1.325
    7CHTO  H105 2739   5.165   0.385   1.335
    7CHTO   O38 2740   5.115   0.902   1.333
    7CHTO   C55 2741   5.244   0.932   1.390
    7CHTO  H112 2742   5.259   0.873   1.481
    7CHTO   C56 2743   5.256   1.087   1.417
    7CHTO  H113 2744   5.221   1.138   1.325
    7CHTO   O42 2745   5.163   1.125   1.521
    7CHTO  H100 2746   5.164   1.218   1.533
    7CHTO   C57 2747   5.404   1.129   1.451
    7CHTO  H114 2748   5.427   1.087   1.549
    7CHTO   N10 2749   5.421   1.276   1.461
    7CHTO  H106 2750   5.500   1.300   1.530
    7CHTO  H107 2751   5.443   1.319   1.364
    7CHTO   C58 2752   5.501   1.068   1.347
    7CHTO  H115 2753   5.478   1.111   1.246
    7CHTO   O37 2754   5.484   0.925   1.343
    7CHTO   C59 2755   5.355   0.887   1.291
    7CHTO  H116 2756   5.340   0.932   1.193
    7CHTO   C70 2757   5.354   0.735   1.272
    7CHTO   O46 2758   5.446   0.691   1.172
    7CHTO  H103 2759   5.418   0.719   1.088
    7CHTO   O39 2760   5.660   1.101   1.385
    7CHTO   C60 2761   5.767   1.047   1.304
    7CHTO  H117 2762   5.794   0.950   1.344
    7CHTO   C62 2763   5.734   1.027   1.152
    7CHTO  H119 2764   5.651   0.952   1.148
    7CHTO   O43 2765   5.686   1.151   1.096
    7CHTO  H101 2766   5.659   1.138   1.007
    7CHTO   C66 2767   5.862   0.968   1.076
    7CHTO  H123 2768   5.896   0.879   1.128
    7CHTO   N12 2769   5.832   0.926   0.937
    7CHTO  H110 2770   5.921   0.887   0.890
    7CHTO  H111 2771   5.753   0.852   0.938
    7CHTO   C69 2772   5.976   1.073   1.084
    7CHTO  H126 2773   5.943   1.170   1.039
    7CHTO   O41 2774   6.012   1.096   1.234
    7CHTO   C64 2775   5.892   1.140   1.321
    7CHTO  H121 2776   5.863   1.243   1.292
    7CHTO   C71 2777   5.938   1.145   1.469
    7CHTO   O47 2778   5.988   1.018   1.514
    7CHTO  H104 2779   6.017   1.026   1.603
    7CHTO   O34 2780   6.107   1.027   1.008
    7CHTO   C49 2781   6.228   0.948   1.050
    7CHTO   H91 2782   6.290   1.015   1.110
    7CHTO   C47 2783   6.305   0.905   0.922
    7CHTO   H89 2784   6.400   0.860   0.957
    7CHTO   O33 2785   6.336   1.023   0.845
    7CHTO   H70 2786   6.257   1.062   0.811
    7CHTO   C45 2787   6.218   0.796   0.842
    7CHTO   H87 2788   6.119   0.840   0.819
    7CHTO    N8 2789   6.281   0.755   0.714
    7CHTO   H75 2790   6.375   0.705   0.733
    7CHTO   H76 2791   6.215   0.690   0.659
    7CHTO   C43 2792   6.187   0.670   0.939
    7CHTO   H85 2793   6.120   0.605   0.883
    7CHTO   O29 2794   6.128   0.715   1.062
    7CHTO   C50 2795   6.190   0.823   1.134
    7CHTO   H92 2796   6.118   0.856   1.211
    7CHTO   C54 2797   6.311   0.776   1.220
    7CHTO   O36 2798   6.273   0.673   1.312
    7CHTO   H72 2799   6.217   0.708   1.378
    7CHTO   O27 2800   6.305   0.592   0.966
    7CHTO   C37 2801   6.348   0.471   1.029
    7CHTO   H79 2802   6.345   0.481   1.138
    7CHTO   C38 2803   6.255   0.352   0.991
    7CHTO   H80 2804   6.239   0.354   0.882
    7CHTO   O31 2805   6.128   0.375   1.055
    7CHTO   H68 2806   6.137   0.372   1.149
    7CHTO   C39 2807   6.315   0.212   1.032
    7CHTO   H81 2808   6.314   0.207   1.141
    7CHTO    N7 2809   6.234   0.095   0.982
    7CHTO   H73 2810   6.148   0.129   0.926
    7CHTO   H74 2811   6.294   0.029   0.921
    7CHTO   C40 2812   6.466   0.202   0.987
    7CHTO   H82 2813   6.470   0.200   0.878
    7CHTO   O26 2814   6.539   0.314   1.040
    7CHTO   C41 2815   6.494   0.442   0.986
    7CHTO   H83 2816   6.499   0.439   0.876
    7CHTO   C52 2817   6.592   0.553   1.033
    7CHTO   O35 2818   6.599   0.566   1.182
    7CHTO   H71 2819   6.658   0.635   1.205
    7CHTO   O28 2820   6.533   0.085   1.039
    7CHTO   C42 2821   6.652   0.031   0.974
    7CHTO   H84 2822   6.680   9.947   1.038
    7CHTO   C44 2823   6.777   0.125   0.971
    7CHTO   H86 2824   6.748   0.220   0.925
    7CHTO   O32 2825   6.812   0.151   1.108
    7CHTO   H69 2826   6.880   0.215   1.113
    7CHTO   C48 2827   6.898   0.066   0.887
    7CHTO   H90 2828   6.936   9.977   0.937
    7CHTO    N9 2829   7.013   0.163   0.880
    7CHTO   H77 2830   6.982   0.254   0.832
    7CHTO   H78 2831   7.095   0.118   0.826
    7CHTO   C51 2832   6.842   0.027   0.745
    7CHTO   H93 2833   6.795   0.116   0.704
    7CHTO   O30 2834   6.748   9.921   0.766
    7CHTO   C46 2835   6.621   9.971   0.833
    7CHTO   H88 2836   6.576   0.048   0.769
    7CHTO   C53 2837   6.524   9.851   0.845
    7CHTO   O72 2838   6.487   9.801   0.716
    7CHTO  H199 2839   6.429   9.729   0.726
    7CHTO   O22 2840   6.938   9.974   0.652
    7CHTO   C31 2841   6.924   0.006   0.507
    7CHTO   H59 2842   6.991   9.935   0.454
    7CHTO   C29 2843   6.781   9.985   0.449
    7CHTO   H57 2844   6.711   0.046   0.509
    7CHTO   O21 2845   6.744   9.847   0.470
    7CHTO   H37 2846   6.738   9.829   0.562
    7CHTO   C27 2847   6.770   0.027   0.298
    7CHTO   H55 2848   6.832   9.960   0.237
    7CHTO    N5 2849   6.630   0.020   0.247
    7CHTO   H43 2850   6.597   0.115   0.208
    7CHTO   H44 2851   6.622   9.944   0.170
    7CHTO   C25 2852   6.830   0.171   0.280
    7CHTO   H53 2853   6.769   0.243   0.337
    7CHTO   O17 2854   6.966   0.175   0.331
    7CHTO   C32 2855   6.977   0.149   0.472
    7CHTO   H60 2856   6.919   0.222   0.527
    7CHTO   C36 2857   7.126   0.164   0.511
    7CHTO   O25 2858   7.170   0.299   0.495
    7CHTO   H40 2859   7.261   0.305   0.519
    7CHTO   O15 2860   6.833   0.215   0.130
    7CHTO   C19 2861   6.830   0.317   0.027
    7CHTO   H47 2862   6.925   0.303   2.847
    7CHTO   C20 2863   6.712   0.300   2.800
    7CHTO   H48 2864   6.614   0.306   2.850
    7CHTO   O19 2865   6.725   0.169   2.742
    7CHTO   H35 2866   6.704   0.103   2.806
    7CHTO   C21 2867   6.717   0.413   2.688
    7CHTO   H49 2868   6.810   0.402   2.632
    7CHTO    N4 2869   6.606   0.403   2.589
    7CHTO   H41 2870   6.511   0.414   2.640
    7CHTO   H42 2871   6.615   0.481   2.515
    7CHTO   C22 2872   6.723   0.551   2.759
    7CHTO   H50 2873   6.630   0.566   2.815
    7CHTO   O14 2874   6.835   0.557   2.848
    7CHTO   C23 2875   6.832   0.463   0.083
    7CHTO   H51 2876   6.743   0.485   0.143
    7CHTO   C34 2877   6.954   0.490   0.172
    7CHTO   O23 2878   7.078   0.474   0.102
    7CHTO   H38 2879   7.150   0.490   0.160
    7CHTO   O16 2880   6.742   0.658   2.664
    7CHTO   C24 2881   6.728   0.803   2.726
    7CHTO   H52 2882   6.737   0.801   2.835
    7CHTO   C26 2883   6.591   0.863   2.688
    7CHTO   H54 2884   6.578   0.853   2.577
    7CHTO   O20 2885   6.488   0.785   2.752
    7CHTO   H36 2886   6.485   0.698   2.716
    7CHTO   C30 2887   6.581   1.014   2.726
    7CHTO   H58 2888   6.576   1.024   2.835
    7CHTO    N6 2889   6.456   1.076   2.674
    7CHTO   H45 2890   6.370   1.028   2.718
    7CHTO   H46 2891   6.451   1.066   2.567
    7CHTO   C33 2892   6.709   1.092   2.680
    7CHTO   H61 2893   6.713   1.094   2.570
    7CHTO   O18 2894   6.825   1.022   2.729
    7CHTO   C28 2895   6.842   0.891   2.673
    7CHTO   H56 2896   6.837   0.894   2.564
    7CHTO   C35 2897   6.981   0.836   2.715
    7CHTO   O24 2898   7.089   0.916   2.665
    7CHTO   H39 2899   7.093   0.910   2.571
    7CHTO    O9 2900   6.709   1.230   2.722
    7CHTO   C13 2901   6.857   1.300   2.718
    7CHTO   H26 2902   6.921   1.243   2.648
    7CHTO   C11 2903   6.917   1.301   2.865
    7CHTO   H24 2904   6.937   1.196   0.019
    7CHTO    O8 2905   6.820   1.351   0.085
    7CHTO    H3 2906   6.800   1.441   0.067
    7CHTO    C9 2907   7.051   1.378   2.862
    7CHTO   H22 2908   7.111   1.330   2.784
    7CHTO    N2 2909   7.132   1.366   0.111
    7CHTO   H10 2910   7.222   1.309   0.092
    7CHTO   H11 2911   7.075   1.320   0.191
    7CHTO    C7 2912   7.022   1.527   2.818
    7CHTO   H20 2913   7.123   1.575   2.813
    7CHTO    O4 2914   6.965   1.529   2.686
    7CHTO   C14 2915   6.850   1.447   2.656
    7CHTO   H27 2916   6.850   1.435   2.545
    7CHTO   C18 2917   6.720   1.521   2.692
    7CHTO   O13 2918   6.703   1.638   2.611
    7CHTO    H7 2919   6.766   1.703   2.635
    7CHTO    O2 2920   6.922   1.611   0.050
    7CHTO    C1 2921   6.989   1.707   0.134
    7CHTO   H14 2922   7.100   1.695   0.123
    7CHTO    C2 2923   6.952   1.694   0.287
    7CHTO   H15 2924   6.843   1.709   0.295
    7CHTO    O6 2925   6.986   1.562   0.333
    7CHTO    H1 2926   6.958   1.551   0.422
    7CHTO    C3 2927   7.030   1.808   0.371
    7CHTO   H16 2928   7.138   1.788   0.364
    7CHTO    N1 2929   6.994   1.807   0.517
    7CHTO    H8 2930   7.018   1.710   0.559
    7CHTO    H9 2931   7.050   1.883   0.569
    7CHTO    C4 2932   7.008   1.949   0.305
    7CHTO   H17 2933   6.905   1.982   0.325
    7CHTO    O1 2934   7.032   1.947   0.163
    7CHTO    C5 2935   6.955   1.852   0.088
    7CHTO   H18 2936   6.849   1.869   0.106
    7CHTO   C16 2937   6.984   1.876   2.811
    7CHTO   O11 2938   6.940   2.005   2.769
    7CHTO    H5 2939   6.846   2.010   2.773
    7CHTO    O3 2940   7.104   2.044   0.355
    7CHTO    C6 2941   7.058   2.183   0.364
    7CHTO   H19 2942   6.966   2.202   0.310
    7CHTO    C8 2943   7.036   2.221   0.514
    7CHTO   H21 2944   7.125   2.190   0.571
    7CHTO    O7 2945   6.922   2.146   0.560
    7CHTO    H2 2946   6.911   2.157   0.652
    7CHTO   C12 2947   7.015   2.377   0.532
    7CHTO   H25 2948   6.916   2.400   0.487
    7CHTO    N3 2949   7.006   2.413   0.678
    7CHTO   H12 2950   6.913   2.464   0.698
    7CHTO   H13 2951   7.091   2.473   0.708
    7CHTO   C15 2952   7.126   2.456   0.454
    7CHTO   H28 2953   7.224   2.444   0.500
    7CHTO   O10 2954   7.094   2.605   0.440
    7CHTO    H4 2955   7.097   2.646   0.524
    7CHTO    O5 2956   7.130   2.414   0.316
    7CHTO   C10 2957   7.166   2.276   0.301
    7CHTO   H23 2958   7.263   2.258   0.350
    7CHTO   C17 2959   7.185   2.247   0.151
    7CHTO   O12 2960   7.296   2.321   0.098
    7CHTO    H6 2961   7.310   2.296   0.009
    8CHTO  H203 2962   6.917   7.878   2.161
    8CHTO   O82 2963   6.840   7.880   2.215
    8CHTO  C123 2964   6.730   7.935   2.141
    8CHTO  H227 2965   6.711   7.872   2.052
    8CHTO   O77 2966   6.618   7.924   2.234
    8CHTO  C118 2967   6.491   7.960   2.177
    8CHTO  H222 2968   6.471   7.896   2.089
    8CHTO  C125 2969   6.379   7.935   2.285
    8CHTO   O84 2970   6.366   7.796   2.315
    8CHTO  H205 2971   6.331   7.750   2.240
    8CHTO  C114 2972   6.491   8.108   2.133
    8CHTO  H218 2973   6.496   8.171   2.222
    8CHTO  C116 2974   6.614   8.143   2.042
    8CHTO  H220 2975   6.596   8.101   1.941
    8CHTO   O79 2976   6.619   8.286   2.025
    8CHTO  H201 2977   6.634   8.329   2.107
    8CHTO  C120 2978   6.749   8.086   2.101
    8CHTO  H224 2979   6.772   8.146   2.191
    8CHTO   N21 2980   6.863   8.105   2.006
    8CHTO  H211 2981   6.870   8.022   1.938
    8CHTO  H212 2982   6.853   8.199   1.953
    8CHTO   O75 2983   6.365   8.125   2.067
    8CHTO  C112 2984   6.299   8.271   2.074
    8CHTO  H216 2985   6.377   8.346   2.093
    8CHTO   O73 2986   6.201   8.268   2.179
    8CHTO  C113 2987   6.128   8.390   2.197
    8CHTO  H217 2988   6.200   8.474   2.213
    8CHTO  C124 2989   6.045   8.375   2.325
    8CHTO   O83 2990   5.982   8.497   2.367
    8CHTO  H204 2991   5.930   8.481   2.443
    8CHTO  C109 2992   6.042   8.416   2.070
    8CHTO  H213 2993   5.973   8.331   2.060
    8CHTO  C110 2994   6.135   8.425   1.945
    8CHTO  H214 2995   6.195   8.516   1.953
    8CHTO   O78 2996   6.055   8.439   1.826
    8CHTO  H200 2997   6.000   8.364   1.814
    8CHTO  C111 2998   6.229   8.301   1.935
    8CHTO  H215 2999   6.168   8.213   1.909
    8CHTO   N19 3000   6.332   8.315   1.828
    8CHTO  H207 3001   6.284   8.328   1.733
    8CHTO  H208 3002   6.394   8.226   1.825
    8CHTO   O74 3003   5.965   8.540   2.082
    8CHTO  C115 3004   5.806   8.520   2.076
    8CHTO  H219 3005   5.779   8.414   2.079
    8CHTO   O76 3006   5.732   8.587   2.205
    8CHTO  C122 3007   5.744   8.731   2.207
    8CHTO  H226 3008   5.849   8.757   2.215
    8CHTO  C126 3009   5.676   8.783   2.339
    8CHTO   O85 3010   5.699   8.922   2.363
    8CHTO  H206 3011   5.659   8.973   2.296
    8CHTO  C121 3012   5.680   8.790   2.075
    8CHTO  H225 3013   5.575   8.754   2.067
    8CHTO   O81 3014   5.675   8.933   2.077
    8CHTO  H202 3015   5.620   8.963   2.146
    8CHTO  C119 3016   5.762   8.737   1.953
    8CHTO  H223 3017   5.719   8.781   1.863
    8CHTO  C117 3018   5.756   8.581   1.940
    8CHTO  H221 3019   5.822   8.538   1.864
    8CHTO   N20 3020   5.620   8.529   1.904
    8CHTO  H209 3021   5.587   8.572   1.811
    8CHTO  H210 3022   5.622   8.421   1.896
    8CHTO   O80 3023   5.912   8.792   1.945
    8CHTO  C103 3024   5.939   8.941   1.903
    8CHTO  H190 3025   5.846   8.992   1.878
    8CHTO  C101 3026   6.020   9.028   2.007
    8CHTO  H188 3027   6.109   8.973   2.037
    8CHTO   O68 3028   5.933   9.048   2.133
    8CHTO  H168 3029   5.983   9.093   2.199
    8CHTO   C99 3030   6.065   9.167   1.942
    8CHTO  H186 3031   5.975   9.226   1.915
    8CHTO   N17 3032   6.147   9.253   2.034
    8CHTO  H174 3033   6.241   9.205   2.057
    8CHTO  H175 3034   6.163   9.350   1.989
    8CHTO   C97 3035   6.140   9.140   1.808
    8CHTO  H184 3036   6.234   9.088   1.831
    8CHTO   O64 3037   6.056   9.062   1.720
    8CHTO  C104 3038   6.024   8.931   1.769
    8CHTO  H191 3039   6.115   8.875   1.789
    8CHTO  C108 3040   5.950   8.853   1.659
    8CHTO   O71 3041   5.828   8.918   1.618
    8CHTO  H171 3042   5.765   8.915   1.688
    8CHTO   O62 3043   6.167   9.261   1.734
    8CHTO   C91 3044   6.260   9.248   1.624
    8CHTO  H178 3045   6.312   9.153   1.633
    8CHTO   C92 3046   6.371   9.358   1.639
    8CHTO  H179 3047   6.417   9.351   1.739
    8CHTO   O66 3048   6.477   9.327   1.546
    8CHTO  H166 3049   6.446   9.329   1.458
    8CHTO   C93 3050   6.320   9.503   1.607
    8CHTO  H180 3051   6.406   9.562   1.573
    8CHTO   N16 3052   6.270   9.575   1.727
    8CHTO  H172 3053   6.349   9.583   1.801
    8CHTO  H173 3054   6.235   9.674   1.700
    8CHTO   C94 3055   6.212   9.500   1.492
    8CHTO  H181 3056   6.110   9.500   1.532
    8CHTO   O61 3057   6.224   9.382   1.411
    8CHTO   C95 3058   6.191   9.259   1.480
    8CHTO  H182 3059   6.083   9.254   1.492
    8CHTO  C106 3060   6.233   9.140   1.386
    8CHTO   O69 3061   6.197   9.013   1.441
    8CHTO  H169 3062   6.251   8.995   1.516
    8CHTO   O63 3063   6.233   9.624   1.403
    8CHTO   C96 3064   6.125   9.640   1.293
    8CHTO  H183 3065   6.055   9.556   1.300
    8CHTO   C98 3066   6.184   9.640   1.149
    8CHTO  H185 3067   6.269   9.711   1.144
    8CHTO   O67 3068   6.240   9.510   1.126
    8CHTO  H167 3069   6.316   9.496   1.179
    8CHTO  C102 3070   6.074   9.677   1.038
    8CHTO  H189 3071   6.005   9.592   1.035
    8CHTO   N18 3072   6.129   9.689   0.900
    8CHTO  H176 3073   6.079   9.621   0.833
    8CHTO  H177 3074   6.120   9.790   0.863
    8CHTO  C105 3075   5.994   9.802   1.083
    8CHTO  H192 3076   6.059   9.890   1.077
    8CHTO   O65 3077   5.945   9.792   1.218
    8CHTO  C100 3078   6.045   9.772   1.319
    8CHTO  H187 3079   6.114   9.857   1.316
    8CHTO  C107 3080   5.974   9.773   1.457
    8CHTO   O70 3081   5.879   9.667   1.470
    8CHTO  H170 3082   5.838   9.672   1.554
    8CHTO   O57 3083   5.869   9.817   0.986
    8CHTO   C85 3084   5.854   9.934   0.904
    8CHTO  H157 3085   5.951   9.948   0.852
    8CHTO   C83 3086   5.833   0.062   0.992
    8CHTO  H155 3087   5.924   0.079   1.051
    8CHTO   O56 3088   5.727   0.039   1.087
    8CHTO  H135 3089   5.751   9.970   1.146
    8CHTO   C81 3090   5.810   0.185   0.900
    8CHTO  H153 3091   5.897   0.195   0.834
    8CHTO   N14 3092   5.805   0.315   0.973
    8CHTO  H141 3093   5.890   0.375   0.949
    8CHTO  H142 3094   5.801   0.300   1.079
    8CHTO   C79 3095   5.683   0.161   0.809
    8CHTO  H151 3096   5.676   0.246   0.741
    8CHTO   O52 3097   5.704   0.043   0.726
    8CHTO   C86 3098   5.735   9.921   0.802
    8CHTO  H158 3099   5.641   9.898   0.856
    8CHTO   C90 3100   5.759   9.803   0.706
    8CHTO   O60 3101   5.641   9.772   0.630
    8CHTO  H138 3102   5.624   9.841   0.569
    8CHTO   O50 3103   5.559   0.150   0.882
    8CHTO   C73 3104   5.419   0.170   0.903
    8CHTO  H145 3105   5.370   0.198   0.808
    8CHTO   C74 3106   5.396   0.286   1.006
    8CHTO  H146 3107   5.443   0.376   0.964
    8CHTO   O54 3108   5.254   0.313   1.014
    8CHTO  H133 3109   5.223   0.348   0.932
    8CHTO   C75 3110   5.460   0.244   1.144
    8CHTO  H147 3111   5.568   0.232   1.129
    8CHTO   N13 3112   5.448   0.346   1.250
    8CHTO  H139 3113   5.344   0.367   1.270
    8CHTO  H140 3114   5.497   0.437   1.220
    8CHTO   C76 3115   5.403   0.102   1.190
    8CHTO  H148 3116   5.298   0.114   1.218
    8CHTO   O49 3117   5.413   0.002   1.083
    8CHTO   C77 3118   5.353   0.040   0.958
    8CHTO  H149 3119   5.246   0.057   0.971
    8CHTO   C88 3120   5.365   9.920   0.862
    8CHTO   O58 3121   5.313   9.951   0.728
    8CHTO  H136 3122   5.220   9.963   0.732
    8CHTO   O51 3123   5.493   0.043   1.307
    8CHTO   C78 3124   5.437   9.911   1.368
    8CHTO  H150 3125   5.367   9.861   1.298
    8CHTO   C80 3126   5.364   9.939   1.501
    8CHTO  H152 3127   5.433   9.996   1.568
    8CHTO   O55 3128   5.251   0.023   1.469
    8CHTO  H134 3129   5.206   0.047   1.548
    8CHTO   C84 3130   5.323   9.803   1.570
    8CHTO  H156 3131   5.257   9.749   1.502
    8CHTO   N15 3132   5.246   9.825   1.697
    8CHTO  H143 3133   5.217   9.731   1.739
    8CHTO  H144 3134   5.307   9.878   1.768
    8CHTO   C87 3135   5.451   9.719   1.591
    8CHTO  H159 3136   5.520   9.772   1.658
    8CHTO   O53 3137   5.515   9.694   1.455
    8CHTO   C82 3138   5.556   9.814   1.388
    8CHTO  H154 3139   5.636   9.863   1.445
    8CHTO   C89 3140   5.618   9.774   1.251
    8CHTO   O59 3141   5.525   9.706   1.165
    8CHTO  H137 3142   5.504   9.622   1.201
    8CHTO   O45 3143   5.422   9.570   1.648
    8CHTO   C67 3144   5.506   9.518   1.753
    8CHTO  H124 3145   5.480   9.413   1.761
    8CHTO   C65 3146   5.661   9.529   1.726
    8CHTO  H122 3147   5.676   9.612   1.657
    8CHTO   O44 3148   5.700   9.407   1.661
    8CHTO  H102 3149   5.660   9.401   1.576
    8CHTO   C63 3150   5.744   9.570   1.855
    8CHTO  H120 3151   5.727   9.676   1.874
    8CHTO   N11 3152   5.893   9.565   1.842
    8CHTO  H108 3153   5.922   9.514   1.753
    8CHTO  H109 3154   5.934   9.664   1.840
    8CHTO   C61 3155   5.688   9.495   1.981
    8CHTO  H118 3156   5.742   9.536   2.068
    8CHTO   O40 3157   5.548   9.527   2.002
    8CHTO   C68 3158   5.467   9.581   1.893
    8CHTO  H125 3159   5.477   9.691   1.891
    8CHTO   C72 3160   5.319   9.550   1.927
    8CHTO   O48 3161   5.272   9.615   2.046
    8CHTO  H105 3162   5.317   9.581   2.121
    8CHTO   O38 3163   5.709   9.352   1.977
    8CHTO   C55 3164   5.635   9.258   2.061
    8CHTO  H112 3165   5.705   9.175   2.075
    8CHTO   C56 3166   5.504   9.213   1.983
    8CHTO  H113 3167   5.463   9.303   1.935
    8CHTO   O42 3168   5.542   9.125   1.876
    8CHTO  H100 3169   5.592   9.172   1.812
    8CHTO   C57 3170   5.392   9.146   2.072
    8CHTO  H114 3171   5.423   9.043   2.092
    8CHTO   N10 3172   5.261   9.139   2.002
    8CHTO  H106 3173   5.179   9.141   2.074
    8CHTO  H107 3174   5.249   9.223   1.935
    8CHTO   C58 3175   5.381   9.221   2.207
    8CHTO  H115 3176   5.350   9.327   2.187
    8CHTO   O37 3177   5.510   9.220   2.271
    8CHTO   C59 3178   5.604   9.308   2.207
    8CHTO  H116 3179   5.563   9.409   2.207
    8CHTO   C70 3180   5.733   9.310   2.290
    8CHTO   O46 3181   5.713   9.361   2.422
    8CHTO  H103 3182   5.694   9.453   2.418
    8CHTO   O39 3183   5.273   9.148   2.313
    8CHTO   C60 3184   5.157   9.228   2.341
    8CHTO  H117 3185   5.162   9.322   2.285
    8CHTO   C62 3186   5.026   9.155   2.297
    8CHTO  H119 3187   5.038   9.132   2.189
    8CHTO   O43 3188   5.013   9.031   2.368
    8CHTO  H101 3189   4.937   8.985   2.338
    8CHTO   C66 3190   4.901   9.255   2.315
    8CHTO  H123 3191   4.921   9.346   2.258
    8CHTO   N12 3192   4.776   9.197   2.260
    8CHTO  H110 3193   4.701   9.186   2.337
    8CHTO  H111 3194   4.739   9.258   2.179
    8CHTO   C69 3195   4.889   9.297   2.464
    8CHTO  H126 3196   4.864   9.208   2.525
    8CHTO   O41 3197   5.027   9.359   2.515
    8CHTO   C64 3198   5.148   9.265   2.491
    8CHTO  H121 3199   5.136   9.172   2.550
    8CHTO   C71 3200   5.278   9.334   2.538
    8CHTO   O47 3201   5.272   9.370   2.677
    8CHTO  H104 3202   5.273   9.293   2.730
    8CHTO   O34 3203   4.772   9.405   2.483
    8CHTO   C49 3204   4.745   9.558   2.472
    8CHTO   H91 3205   4.769   9.601   2.569
    8CHTO   C47 3206   4.596   9.580   2.439
    8CHTO   H89 3207   4.578   9.690   2.447
    8CHTO   O33 3208   4.517   9.513   2.539
    8CHTO   H70 3209   4.527   9.555   2.622
    8CHTO   C45 3210   4.567   9.531   2.289
    8CHTO   H87 3211   4.598   9.426   2.281
    8CHTO    N8 3212   4.423   9.538   2.253
    8CHTO   H75 3213   4.408   9.497   2.154
    8CHTO   H76 3214   4.364   9.483   2.324
    8CHTO   C43 3215   4.661   9.612   2.187
    8CHTO   H85 3216   4.643   9.569   2.088
    8CHTO   O29 3217   4.799   9.599   2.226
    8CHTO   C50 3218   4.834   9.625   2.364
    8CHTO   H92 3219   4.936   9.586   2.378
    8CHTO   C54 3220   4.851   9.777   2.392
    8CHTO   O36 3221   4.954   9.835   2.312
    8CHTO   H72 3222   4.928   9.836   2.222
    8CHTO   O27 3223   4.624   9.752   2.176
    8CHTO   C37 3224   4.596   9.843   2.069
    8CHTO   H79 3225   4.562   9.788   1.980
    8CHTO   C38 3226   4.480   9.940   2.109
    8CHTO   H80 3227   4.506   9.986   2.206
    8CHTO   O31 3228   4.360   9.861   2.127
    8CHTO   H68 3229   4.368   9.806   2.202
    8CHTO   C39 3230   4.457   0.054   2.001
    8CHTO   H81 3231   4.420   0.005   1.911
    8CHTO    N7 3232   4.355   0.155   2.043
    8CHTO   H73 3233   4.341   0.228   1.965
    8CHTO   H74 3234   4.386   0.204   2.134
    8CHTO   C40 3235   4.595   0.122   1.965
    8CHTO   H82 3236   4.629   0.176   2.054
    8CHTO   O26 3237   4.690   0.021   1.925
    8CHTO   C41 3238   4.722   9.926   2.031
    8CHTO   H83 3239   4.757   9.980   2.120
    8CHTO   C52 3240   4.838   9.837   1.981
    8CHTO   O35 3241   4.962   9.914   1.956
    8CHTO   H71 3242   4.949   9.973   1.884
    8CHTO   O28 3243   4.588   0.224   1.862
    8CHTO   C42 3244   4.586   0.208   1.716
    8CHTO   H84 3245   4.567   0.310   1.682
    8CHTO   C44 3246   4.472   0.121   1.655
    8CHTO   H86 3247   4.483   0.018   1.690
    8CHTO   O32 3248   4.348   0.174   1.705
    8CHTO   H69 3249   4.276   0.121   1.677
    8CHTO   C48 3250   4.475   0.122   1.496
    8CHTO   H90 3251   4.450   0.223   1.463
    8CHTO    N9 3252   4.370   0.032   1.436
    8CHTO   H77 3253   4.303   0.090   1.373
    8CHTO   H78 3254   4.313   9.981   1.513
    8CHTO   C51 3255   4.620   0.087   1.443
    8CHTO   H93 3256   4.641   9.982   1.464
    8CHTO   O30 3257   4.716   0.175   1.503
    8CHTO   C46 3258   4.722   0.163   1.655
    8CHTO   H88 3259   4.741   0.059   1.681
    8CHTO   C53 3260   4.841   0.251   1.705
    8CHTO   O72 3261   4.824   0.390   1.674
    8CHTO  H199 3262   4.754   0.426   1.725
    8CHTO   O22 3263   4.632   0.115   1.302
    8CHTO   C31 3264   4.718   0.038   1.209
    8CHTO   H59 3265   4.729   0.102   1.119
    8CHTO   C29 3266   4.861   0.007   1.259
    8CHTO   H57 3267   4.853   9.948   1.352
    8CHTO   O21 3268   4.926   0.131   1.293
    8CHTO   H37 3269   4.882   0.172   1.365
    8CHTO   C27 3270   4.945   9.925   1.153
    8CHTO   H55 3271   4.963   9.989   1.065
    8CHTO    N5 3272   5.077   9.879   1.205
    8CHTO   H43 3273   5.157   9.926   1.151
    8CHTO   H44 3274   5.086   9.898   1.310
    8CHTO   C25 3275   4.861   9.802   1.102
    8CHTO   H53 3276   4.847   9.731   1.184
    8CHTO   O17 3277   4.729   9.845   1.056
    8CHTO   C32 3278   4.650   9.906   1.159
    8CHTO   H60 3279   4.642   9.837   1.243
    8CHTO   C36 3280   4.508   9.930   1.103
    8CHTO   O25 3281   4.508   0.029   1.000
    8CHTO   H40 3282   4.421   0.042   0.969
    8CHTO   O15 3283   4.931   9.729   0.983
    8CHTO   C19 3284   4.956   9.701   0.843
    8CHTO   H47 3285   4.864   9.650   0.809
    8CHTO   C20 3286   4.978   9.827   0.754
    8CHTO   H48 3287   5.062   9.889   0.789
    8CHTO   O19 3288   4.859   9.908   0.763
    8CHTO   H35 3289   4.852   9.946   0.849
    8CHTO   C21 3290   5.007   9.787   0.603
    8CHTO   H49 3291   4.917   9.742   0.561
    8CHTO    N4 3292   5.040   9.904   0.516
    8CHTO   H41 3293   5.128   9.954   0.553
    8CHTO   H42 3294   4.957   9.974   0.515
    8CHTO   C22 3295   5.118   9.679   0.598
    8CHTO   H50 3296   5.212   9.723   0.631
    8CHTO   O14 3297   5.083   9.568   0.683
    8CHTO   C23 3298   5.073   9.601   0.822
    8CHTO   H51 3299   5.169   9.643   0.854
    8CHTO   C34 3300   5.054   9.470   0.900
    8CHTO   O23 3301   4.934   9.402   0.862
    8CHTO   H38 3302   4.925   9.323   0.912
    8CHTO   O16 3303   5.134   9.619   0.467
    8CHTO   C24 3304   5.269   9.529   0.456
    8CHTO   H52 3305   5.312   9.508   0.554
    8CHTO   C26 3306   5.373   9.602   0.369
    8CHTO   H54 3307   5.326   9.626   0.271
    8CHTO   O20 3308   5.406   9.727   0.434
    8CHTO   H36 3309   5.333   9.785   0.432
    8CHTO   C30 3310   5.499   9.513   0.345
    8CHTO   H58 3311   5.553   9.501   0.440
    8CHTO    N6 3312   5.595   9.578   0.252
    8CHTO   H45 3313   5.548   9.596   0.156
    8CHTO   H46 3314   5.630   9.671   0.293
    8CHTO   C33 3315   5.459   9.370   0.299
    8CHTO   H61 3316   5.419   9.374   0.196
    8CHTO   O18 3317   5.357   9.315   0.385
    8CHTO   C28 3318   5.236   9.391   0.392
    8CHTO   H56 3319   5.196   9.408   0.291
    8CHTO   C35 3320   5.130   9.312   0.473
    8CHTO   O24 3321   5.171   9.284   0.607
    8CHTO   H39 3322   5.103   9.237   0.651
    8CHTO    O9 3323   5.574   9.283   0.291
    8CHTO   C13 3324   5.544   9.132   0.235
    8CHTO   H26 3325   5.454   9.137   0.171
    8CHTO   C11 3326   5.524   9.031   0.357
    8CHTO   H24 3327   5.416   9.028   0.381
    8CHTO    O8 3328   5.594   9.079   0.474
    8CHTO    H3 3329   5.574   9.025   0.548
    8CHTO    C9 3330   5.572   8.889   0.315
    8CHTO   H22 3331   5.517   8.866   0.222
    8CHTO    N2 3332   5.531   8.781   0.408
    8CHTO   H10 3333   5.582   8.793   0.503
    8CHTO   H11 3334   5.555   8.685   0.365
    8CHTO    C7 3335   5.727   8.895   0.283
    8CHTO   H20 3336   5.746   8.806   0.220
    8CHTO    O4 3337   5.764   9.015   0.212
    8CHTO   C14 3338   5.662   9.085   0.139
    8CHTO   H27 3339   5.619   9.015   0.063
    8CHTO   C18 3340   5.726   9.202   0.061
    8CHTO   O13 3341   5.817   9.154   2.836
    8CHTO    H7 3342   5.853   9.226   2.788
    8CHTO    O2 3343   5.817   8.888   0.422
    8CHTO    C1 3344   5.959   8.863   0.414
    8CHTO   H14 3345   6.000   8.873   0.517
    8CHTO    C2 3346   6.041   8.959   0.318
    8CHTO   H15 3347   6.003   8.942   0.216
    8CHTO    O6 3348   6.018   9.095   0.358
    8CHTO    H1 3349   6.049   9.110   0.445
    8CHTO    C3 3350   6.197   8.923   0.325
    8CHTO   H16 3351   6.234   8.954   0.424
    8CHTO    N1 3352   6.278   8.999   0.223
    8CHTO    H8 3353   6.383   8.973   0.232
    8CHTO    H9 3354   6.266   9.105   0.239
    8CHTO    C4 3355   6.223   8.767   0.316
    8CHTO   H17 3356   6.223   8.736   0.212
    8CHTO    O1 3357   6.129   8.689   0.392
    8CHTO    C5 3358   5.989   8.716   0.371
    8CHTO   H18 3359   5.965   8.706   0.265
    8CHTO   C16 3360   5.908   8.612   0.452
    8CHTO   O11 3361   5.933   8.479   0.404
    8CHTO    H5 3362   6.021   8.454   0.423
    8CHTO    O3 3363   6.349   8.737   0.380
    8CHTO    C6 3364   6.416   8.612   0.345
    8CHTO   H19 3365   6.355   8.546   0.284
    8CHTO    C8 3366   6.547   8.647   0.265
    8CHTO   H21 3367   6.597   8.729   0.317
    8CHTO    O7 3368   6.506   8.692   0.134
    8CHTO    H2 3369   6.464   8.776   0.140
    8CHTO   C12 3370   6.646   8.524   0.257
    8CHTO   H25 3371   6.598   8.449   0.191
    8CHTO    N3 3372   6.776   8.564   0.192
    8CHTO   H12 3373   6.824   8.642   0.249
    8CHTO   H13 3374   6.841   8.478   0.183
    8CHTO   C15 3375   6.664   8.463   0.400
    8CHTO   H28 3376   6.712   8.533   0.469
    8CHTO   O10 3377   6.742   8.331   0.401
    8CHTO    H4 3378   6.831   8.346   0.376
    8CHTO    O5 3379   6.536   8.423   0.451
    8CHTO   C10 3380   6.449   8.535   0.476
    8CHTO   H23 3381   6.498   8.603   0.547
    8CHTO   C17 3382   6.323   8.481   0.545
    8CHTO   O12 3383   6.351   8.418   0.670
    8CHTO    H6 3384   6.398   8.338   0.655
    9CHTO  H203 3385   7.477   3.045   0.405
    9CHTO   O82 3386   7.484   3.129   0.447
    9CHTO  C123 3387   7.582   3.210   0.380
    9CHTO  H227 3388   7.672   3.149   0.361
    9CHTO   O77 3389   7.517   3.245   0.254
    9CHTO  C118 3390   7.601   3.318   0.163
    9CHTO  H222 3391   7.692   3.260   0.143
    9CHTO  C125 3392   7.522   3.337   0.028
    9CHTO   O84 3393   7.399   3.410   0.045
    9CHTO  H205 3394   7.418   3.499   0.070
    9CHTO  C114 3395   7.640   3.454   0.226
    9CHTO  H218 3396   7.550   3.513   0.240
    9CHTO  C116 3397   7.706   3.435   0.366
    9CHTO  H220 3398   7.808   3.390   0.353
    9CHTO   O79 3399   7.727   3.565   0.425
    9CHTO  H201 3400   7.793   3.612   0.376
    9CHTO  C120 3401   7.618   3.342   0.459
    9CHTO  H224 3402   7.526   3.399   0.482
    9CHTO   N21 3403   7.685   3.313   0.589
    9CHTO  H211 3404   7.793   3.311   0.577
    9CHTO  H212 3405   7.657   3.386   0.662
    9CHTO   O75 3406   7.727   3.515   0.129
    9CHTO  C112 3407   7.695   3.671   0.104
    9CHTO  H216 3408   7.669   3.718   0.200
    9CHTO   O73 3409   7.587   3.678   0.010
    9CHTO  C113 3410   7.538   3.811   2.862
    9CHTO  H217 3411   7.505   3.854   0.085
    9CHTO  C124 3412   7.415   3.802   2.771
    9CHTO   O83 3413   7.309   3.724   2.828
    9CHTO  H204 3414   7.237   3.721   2.768
    9CHTO  C109 3415   7.649   3.900   2.799
    9CHTO  H213 3416   7.665   3.863   2.696
    9CHTO  C110 3417   7.782   3.892   0.007
    9CHTO  H214 3418   7.769   3.949   0.099
    9CHTO   O78 3419   7.887   3.956   2.807
    9CHTO  H200 3420   7.903   3.912   2.726
    9CHTO  C111 3421   7.820   3.744   0.042
    9CHTO  H215 3422   7.848   3.692   2.824
    9CHTO   N19 3423   7.937   3.734   0.134
    9CHTO  H207 3424   7.960   3.630   0.153
    9CHTO  H208 3425   8.023   3.781   0.088
    9CHTO   O74 3426   7.599   4.037   2.792
    9CHTO  C115 3427   7.666   4.134   2.685
    9CHTO  H219 3428   7.771   4.153   2.708
    9CHTO   O76 3429   7.665   4.068   2.533
    9CHTO  C122 3430   7.534   4.060   2.473
    9CHTO  H226 3431   7.477   3.986   2.528
    9CHTO  C126 3432   7.549   4.003   2.327
    9CHTO   O85 3433   7.631   4.085   2.242
    9CHTO  H206 3434   7.590   4.168   2.229
    9CHTO  C121 3435   7.460   4.199   2.475
    9CHTO  H225 3436   7.519   4.274   2.419
    9CHTO   O81 3437   7.330   4.189   2.414
    9CHTO  H202 3438   7.291   4.274   2.408
    9CHTO  C119 3439   7.448   4.246   2.624
    9CHTO  H223 3440   7.393   4.340   2.625
    9CHTO  C117 3441   7.588   4.270   2.693
    9CHTO  H221 3442   7.584   4.292   2.799
    9CHTO   N20 3443   7.668   4.383   2.633
    9CHTO  H209 3444   7.686   4.459   2.707
    9CHTO  H210 3445   7.617   4.425   2.548
    9CHTO   O80 3446   7.352   4.153   2.708
    9CHTO  C103 3447   7.260   4.212   2.822
    9CHTO  H190 3448   7.220   4.130   0.007
    9CHTO  C101 3449   7.323   4.317   0.047
    9CHTO  H188 3450   7.361   4.402   2.864
    9CHTO   O68 3451   7.440   4.251   0.122
    9CHTO  H168 3452   7.409   4.181   0.175
    9CHTO   C99 3453   7.210   4.370   0.148
    9CHTO  H186 3454   7.174   4.285   0.209
    9CHTO   N17 3455   7.258   4.476   0.243
    9CHTO  H174 3456   7.180   4.500   0.314
    9CHTO  H175 3457   7.347   4.441   0.295
    9CHTO   C97 3458   7.086   4.420   0.067
    9CHTO  H184 3459   7.113   4.514   0.016
    9CHTO   O64 3460   7.041   4.320   2.848
    9CHTO  C104 3461   7.138   4.280   2.749
    9CHTO  H191 3462   7.173   4.365   2.692
    9CHTO  C108 3463   7.071   4.185   2.649
    9CHTO   O71 3464   6.968   4.252   2.576
    9CHTO  H171 3465   6.927   4.191   2.516
    9CHTO   O62 3466   6.972   4.438   0.153
    9CHTO   C91 3467   6.868   4.523   0.101
    9CHTO  H178 3468   6.893   4.552   2.873
    9CHTO   C92 3469   6.865   4.655   0.185
    9CHTO  H179 3470   6.968   4.686   0.208
    9CHTO   O66 3471   6.810   4.760   0.104
    9CHTO  H166 3472   6.723   4.740   0.078
    9CHTO   C93 3473   6.778   4.644   0.315
    9CHTO  H180 3474   6.773   4.746   0.356
    9CHTO   N16 3475   6.839   4.564   0.425
    9CHTO  H172 3476   6.936   4.528   0.397
    9CHTO  H173 3477   6.775   4.482   0.454
    9CHTO   C94 3478   6.631   4.598   0.277
    9CHTO  H181 3479   6.592   4.522   0.345
    9CHTO   O61 3480   6.619   4.544   0.144
    9CHTO   C95 3481   6.724   4.455   0.101
    9CHTO  H182 3482   6.727   4.369   0.168
    9CHTO  C106 3483   6.692   4.399   2.832
    9CHTO   O69 3484   6.578   4.314   2.835
    9CHTO  H169 3485   6.562   4.279   2.749
    9CHTO   O63 3486   6.541   4.727   0.281
    9CHTO   C96 3487   6.435   4.731   0.396
    9CHTO  H183 3488   6.452   4.646   0.462
    9CHTO   C98 3489   6.288   4.722   0.344
    9CHTO  H185 3490   6.275   4.793   0.261
    9CHTO   O67 3491   6.271   4.591   0.287
    9CHTO  H167 3492   6.277   4.525   0.354
    9CHTO  C102 3493   6.180   4.752   0.460
    9CHTO  H189 3494   6.192   4.670   0.533
    9CHTO   N18 3495   6.038   4.747   0.416
    9CHTO  H176 3496   5.973   4.765   0.500
    9CHTO  H177 3497   6.021   4.821   0.340
    9CHTO  C105 3498   6.219   4.885   0.529
    9CHTO  H192 3499   6.211   4.967   0.456
    9CHTO   O65 3500   6.353   4.881   0.579
    9CHTO  C100 3501   6.457   4.862   0.481
    9CHTO  H187 3502   6.456   4.948   0.414
    9CHTO  C107 3503   6.593   4.861   0.556
    9CHTO   O70 3504   6.601   4.756   0.653
    9CHTO  H170 3505   6.601   4.672   0.611
    9CHTO   O57 3506   6.118   4.911   0.654
    9CHTO   C85 3507   6.081   5.044   0.693
    9CHTO  H157 3508   6.039   5.091   0.601
    9CHTO   C83 3509   6.207   5.129   0.729
    9CHTO  H155 3510   6.263   5.147   0.637
    9CHTO   O56 3511   6.295   5.054   0.815
    9CHTO  H135 3512   6.326   4.977   0.771
    9CHTO   C81 3513   6.163   5.266   0.789
    9CHTO  H153 3514   6.099   5.315   0.716
    9CHTO   N14 3515   6.276   5.361   0.809
    9CHTO  H141 3516   6.238   5.455   0.842
    9CHTO  H142 3517   6.329   5.375   0.717
    9CHTO   C79 3518   6.080   5.242   0.919
    9CHTO  H151 3519   6.050   5.340   0.957
    9CHTO   O52 3520   5.958   5.170   0.885
    9CHTO   C86 3521   5.975   5.044   0.812
    9CHTO  H158 3522   6.003   4.971   0.891
    9CHTO   C90 3523   5.835   5.001   0.761
    9CHTO   O60 3524   5.836   4.867   0.709
    9CHTO  H138 3525   5.749   4.845   0.680
    9CHTO   O50 3526   6.152   5.173   1.023
    9CHTO   C73 3527   6.163   5.138   1.162
    9CHTO  H145 3528   6.065   5.106   1.200
    9CHTO   C74 3529   6.211   5.260   1.247
    9CHTO  H146 3530   6.141   5.343   1.228
    9CHTO   O54 3531   6.195   5.225   1.386
    9CHTO  H133 3532   6.217   5.298   1.440
    9CHTO   C75 3533   6.359   5.299   1.207
    9CHTO  H147 3534   6.359   5.331   1.102
    9CHTO   N13 3535   6.415   5.413   1.284
    9CHTO  H139 3536   6.515   5.434   1.251
    9CHTO  H140 3537   6.354   5.501   1.269
    9CHTO   C76 3538   6.452   5.169   1.216
    9CHTO  H148 3539   6.458   5.139   1.321
    9CHTO   O49 3540   6.395   5.060   1.137
    9CHTO   C77 3541   6.263   5.021   1.179
    9CHTO  H149 3542   6.265   4.990   1.283
    9CHTO   C88 3543   6.220   4.897   1.099
    9CHTO   O58 3544   6.311   4.781   1.125
    9CHTO  H136 3545   6.397   4.799   1.092
    9CHTO   O51 3546   6.596   5.194   1.152
    9CHTO   C78 3547   6.695   5.074   1.186
    9CHTO  H150 3548   6.640   4.985   1.223
    9CHTO   C80 3549   6.798   5.117   1.292
    9CHTO  H152 3550   6.853   5.207   1.255
    9CHTO   O55 3551   6.723   5.155   1.410
    9CHTO  H134 3552   6.781   5.191   1.474
    9CHTO   C84 3553   6.900   5.001   1.322
    9CHTO  H156 3554   6.844   4.918   1.367
    9CHTO   N15 3555   7.006   5.040   1.422
    9CHTO  H143 3556   7.071   4.957   1.441
    9CHTO  H144 3557   6.959   5.069   1.514
    9CHTO   C87 3558   6.964   4.950   1.191
    9CHTO  H159 3559   7.032   5.025   1.151
    9CHTO   O53 3560   6.852   4.918   1.085
    9CHTO   C82 3561   6.769   5.031   1.057
    9CHTO  H154 3562   6.830   5.113   1.020
    9CHTO   C89 3563   6.669   4.994   0.944
    9CHTO   O59 3564   6.583   4.885   0.978
    9CHTO  H137 3565   6.633   4.806   0.986
    9CHTO   O45 3566   7.044   4.810   1.217
    9CHTO   C67 3567   7.175   4.804   1.157
    9CHTO  H124 3568   7.218   4.903   1.144
    9CHTO   C65 3569   7.269   4.719   1.248
    9CHTO  H122 3570   7.256   4.760   1.348
    9CHTO   O44 3571   7.406   4.735   1.208
    9CHTO  H102 3572   7.420   4.697   1.124
    9CHTO   C63 3573   7.216   4.571   1.255
    9CHTO  H120 3574   7.112   4.573   1.287
    9CHTO   N11 3575   7.280   4.486   1.360
    9CHTO  H108 3576   7.313   4.393   1.319
    9CHTO  H109 3577   7.212   4.467   1.441
    9CHTO   C61 3578   7.214   4.508   1.109
    9CHTO  H118 3579   7.152   4.418   1.118
    9CHTO   O40 3580   7.148   4.594   1.011
    9CHTO   C68 3581   7.164   4.740   1.012
    9CHTO  H125 3582   7.072   4.782   0.967
    9CHTO   C72 3583   7.282   4.782   0.921
    9CHTO   O48 3584   7.255   4.754   0.783
    9CHTO  H105 3585   7.329   4.779   0.731
    9CHTO   O38 3586   7.345   4.474   1.060
    9CHTO   C55 3587   7.360   4.348   0.990
    9CHTO  H112 3588   7.271   4.331   0.927
    9CHTO   C56 3589   7.383   4.228   1.093
    9CHTO  H113 3590   7.455   4.265   1.168
    9CHTO   O42 3591   7.261   4.202   1.163
    9CHTO  H100 3592   7.275   4.138   1.231
    9CHTO   C57 3593   7.438   4.096   1.024
    9CHTO  H114 3594   7.356   4.053   0.965
    9CHTO   N10 3595   7.481   3.993   1.122
    9CHTO  H106 3596   7.559   3.931   1.082
    9CHTO  H107 3597   7.397   3.932   1.151
    9CHTO   C58 3598   7.553   4.132   0.927
    9CHTO  H115 3599   7.637   4.176   0.986
    9CHTO   O37 3600   7.508   4.230   0.833
    9CHTO   C59 3601   7.480   4.358   0.891
    9CHTO  H116 3602   7.569   4.395   0.943
    9CHTO   C70 3603   7.447   4.457   0.778
    9CHTO   O46 3604   7.559   4.478   0.691
    9CHTO  H103 3605   7.534   4.539   0.624
    9CHTO   O39 3606   7.613   3.996   0.843
    9CHTO   C60 3607   7.531   3.943   0.737
    9CHTO  H117 3608   7.426   3.958   0.763
    9CHTO   C62 3609   7.560   4.013   0.601
    9CHTO  H119 3610   7.540   4.122   0.616
    9CHTO   O43 3611   7.699   3.997   0.568
    9CHTO  H101 3612   7.719   4.044   0.489
    9CHTO   C66 3613   7.459   3.957   0.490
    9CHTO  H123 3614   7.357   3.973   0.525
    9CHTO   N12 3615   7.470   4.029   0.361
    9CHTO  H110 3616   7.446   4.133   0.375
    9CHTO  H111 3617   7.570   4.018   0.321
    9CHTO   C69 3618   7.478   3.803   0.474
    9CHTO  H126 3619   7.578   3.781   0.430
    9CHTO   O41 3620   7.464   3.733   0.613
    9CHTO   C64 3621   7.552   3.790   0.723
    9CHTO  H121 3622   7.659   3.770   0.699
    9CHTO   C71 3623   7.519   3.716   0.855
    9CHTO   O47 3624   7.546   3.576   0.844
    9CHTO  H104 3625   7.639   3.561   0.839
    9CHTO   O34 3626   7.371   3.747   0.382
    9CHTO   C49 3627   7.278   3.647   0.331
    9CHTO   H91 3628   7.324   3.604   0.241
    9CHTO   C47 3629   7.146   3.719   0.296
    9CHTO   H89 3630   7.083   3.639   0.248
    9CHTO   O33 3631   7.169   3.822   0.199
    9CHTO   H70 3632   7.087   3.857   0.169
    9CHTO   C45 3633   7.076   3.778   0.429
    9CHTO   H87 3634   7.113   3.881   0.445
    9CHTO    N8 3635   6.929   3.786   0.404
    9CHTO   H75 3636   6.888   3.686   0.395
    9CHTO   H76 3637   6.881   3.837   0.486
    9CHTO   C43 3638   7.122   3.697   0.561
    9CHTO   H85 3639   7.215   3.744   0.592
    9CHTO   O29 3640   7.140   3.558   0.528
    9CHTO   C50 3641   7.246   3.533   0.434
    9CHTO   H92 3642   7.338   3.513   0.491
    9CHTO   C54 3643   7.218   3.400   0.361
    9CHTO   O36 3644   7.220   3.289   0.453
    9CHTO   H72 3645   7.205   3.210   0.406
    9CHTO   O27 3646   7.035   3.713   0.675
    9CHTO   C37 3647   7.039   3.691   0.817
    9CHTO   H79 3648   6.937   3.680   0.856
    9CHTO   C38 3649   7.115   3.559   0.853
    9CHTO   H80 3650   7.214   3.561   0.805
    9CHTO   O31 3651   7.039   3.450   0.797
    9CHTO   H68 3652   7.085   3.369   0.808
    9CHTO   C39 3653   7.132   3.542   1.009
    9CHTO   H81 3654   7.033   3.526   1.050
    9CHTO    N7 3655   7.215   3.422   1.046
    9CHTO   H73 3656   7.221   3.413   1.154
    9CHTO   H74 3657   7.314   3.431   1.004
    9CHTO   C40 3658   7.190   3.675   1.073
    9CHTO   H82 3659   7.294   3.686   1.041
    9CHTO   O26 3660   7.110   3.788   1.033
    9CHTO   C41 3661   7.108   3.811   0.889
    9CHTO   H83 3662   7.211   3.822   0.852
    9CHTO   C52 3663   7.032   3.943   0.861
    9CHTO   O35 3664   7.099   4.059   0.921
    9CHTO   H71 3665   7.050   4.136   0.902
    9CHTO   O28 3666   7.196   3.671   1.218
    9CHTO   C42 3667   7.091   3.706   1.314
    9CHTO   H84 3668   7.127   3.661   1.407
    9CHTO   C44 3669   6.949   3.644   1.290
    9CHTO   H86 3670   6.916   3.671   1.190
    9CHTO   O32 3671   6.967   3.501   1.296
    9CHTO   H69 3672   6.887   3.458   1.274
    9CHTO   C48 3673   6.841   3.693   1.395
    9CHTO   H90 3674   6.867   3.653   1.493
    9CHTO    N9 3675   6.704   3.639   1.364
    9CHTO   H77 3676   6.673   3.670   1.265
    9CHTO   H78 3677   6.704   3.531   1.371
    9CHTO   C51 3678   6.845   3.850   1.403
    9CHTO   H93 3679   6.820   3.890   1.305
    9CHTO   O30 3680   6.977   3.886   1.444
    9CHTO   C46 3681   7.081   3.859   1.340
    9CHTO   H88 3682   7.052   3.911   1.248
    9CHTO   C53 3683   7.215   3.915   1.393
    9CHTO   O72 3684   7.207   4.056   1.419
    9CHTO  H199 3685   7.198   4.103   1.339
    9CHTO   O22 3686   6.758   3.904   1.505
    9CHTO   C31 3687   6.719   4.047   1.509
    9CHTO   H59 3688   6.675   4.063   1.610
    9CHTO   C29 3689   6.838   4.146   1.496
    9CHTO   H57 3690   6.892   4.120   1.403
    9CHTO   O21 3691   6.929   4.121   1.604
    9CHTO   H37 3692   6.890   4.147   1.686
    9CHTO   C27 3693   6.791   4.297   1.486
    9CHTO   H55 3694   6.743   4.325   1.581
    9CHTO    N5 3695   6.904   4.390   1.461
    9CHTO   H43 3696   6.869   4.492   1.459
    9CHTO   H44 3697   6.953   4.366   1.368
    9CHTO   C25 3698   6.684   4.306   1.373
    9CHTO   H53 3699   6.728   4.269   1.279
    9CHTO   O17 3700   6.572   4.220   1.408
    9CHTO   C32 3701   6.604   4.080   1.407
    9CHTO   H60 3702   6.636   4.050   1.307
    9CHTO   C36 3703   6.471   4.009   1.441
    9CHTO   O25 3704   6.478   3.867   1.428
    9CHTO   H40 3705   6.488   3.844   1.337
    9CHTO   O15 3706   6.625   4.457   1.350
    9CHTO   C19 3707   6.604   4.502   1.213
    9CHTO   H47 3708   6.559   4.602   1.226
    9CHTO   C20 3709   6.738   4.518   1.133
    9CHTO   H48 3710   6.800   4.427   1.139
    9CHTO   O19 3711   6.811   4.624   1.196
    9CHTO   H35 3712   6.842   4.597   1.280
    9CHTO   C21 3713   6.714   4.548   0.980
    9CHTO   H49 3714   6.669   4.647   0.970
    9CHTO    N4 3715   6.841   4.552   0.901
    9CHTO   H41 3716   6.819   4.575   0.798
    9CHTO   H42 3717   6.891   4.457   0.906
    9CHTO   C22 3718   6.612   4.445   0.925
    9CHTO   H50 3719   6.655   4.345   0.938
    9CHTO   O14 3720   6.489   4.456   0.998
    9CHTO   C23 3721   6.498   4.416   1.135
    9CHTO   H51 3722   6.523   4.309   1.137
    9CHTO   C34 3723   6.356   4.432   1.192
    9CHTO   O23 3724   6.344   4.385   1.327
    9CHTO   H38 3725   6.256   4.397   1.357
    9CHTO   O16 3726   6.578   4.470   0.787
    9CHTO   C24 3727   6.531   4.340   0.709
    9CHTO   H52 3728   6.491   4.264   0.777
    9CHTO   C26 3729   6.650   4.283   0.630
    9CHTO   H54 3730   6.696   4.367   0.572
    9CHTO   O20 3731   6.749   4.235   0.723
    9CHTO   H36 3732   6.787   4.306   0.770
    9CHTO   C30 3733   6.608   4.172   0.529
    9CHTO   H58 3734   6.585   4.080   0.585
    9CHTO    N6 3735   6.720   4.135   0.437
    9CHTO   H45 3736   6.752   4.221   0.381
    9CHTO   H46 3737   6.803   4.096   0.494
    9CHTO   C33 3738   6.479   4.210   0.451
    9CHTO   H61 3739   6.503   4.288   0.377
    9CHTO   O18 3740   6.379   4.262   0.540
    9CHTO   C28 3741   6.416   4.379   0.613
    9CHTO   H56 3742   6.452   4.456   0.545
    9CHTO   C35 3743   6.291   4.430   0.689
    9CHTO   O24 3744   6.309   4.558   0.750
    9CHTO   H39 3745   6.372   4.552   0.819
    9CHTO    O9 3746   6.428   4.098   0.375
    9CHTO   C13 3747   6.399   4.125   0.217
    9CHTO   H26 3748   6.496   4.148   0.169
    9CHTO   C11 3749   6.295   4.245   0.199
    9CHTO   H24 3750   6.348   4.339   0.224
    9CHTO    O8 3751   6.185   4.231   0.292
    9CHTO    H3 3752   6.138   4.152   0.275
    9CHTO    C9 3753   6.250   4.249   0.051
    9CHTO   H22 3754   6.343   4.254   2.866
    9CHTO    N2 3755   6.179   4.374   0.014
    9CHTO   H10 3756   6.154   4.432   0.101
    9CHTO   H11 3757   6.090   4.352   2.831
    9CHTO    C7 3758   6.178   4.113   0.013
    9CHTO   H20 3759   6.221   4.087   2.788
    9CHTO    O4 3760   6.206   4.007   0.107
    9CHTO   C14 3761   6.344   3.994   0.144
    9CHTO   H27 3762   6.404   3.977   0.052
    9CHTO   C18 3763   6.357   3.864   0.229
    9CHTO   O13 3764   6.493   3.834   0.260
    9CHTO    H7 3765   6.527   3.898   0.320
    9CHTO    O2 3766   6.010   4.129   2.868
    9CHTO    C1 3767   5.924   4.028   0.049
    9CHTO   H14 3768   5.966   3.989   0.144
    9CHTO    C2 3769   5.899   3.906   2.824
    9CHTO   H15 3770   5.870   3.950   2.728
    9CHTO    O6 3771   6.022   3.833   2.808
    9CHTO    H1 3772   6.086   3.887   2.766
    9CHTO    C3 3773   5.782   3.809   0.004
    9CHTO   H16 3774   5.819   3.754   0.091
    9CHTO    N1 3775   5.742   3.707   2.775
    9CHTO    H8 3776   5.709   3.756   2.685
    9CHTO    H9 3777   5.826   3.642   2.753
    9CHTO    C4 3778   5.659   3.893   0.055
    9CHTO   H17 3779   5.608   3.938   2.844
    9CHTO    O1 3780   5.703   3.995   0.146
    9CHTO    C5 3781   5.788   4.094   0.086
    9CHTO   H18 3782   5.742   4.134   2.870
    9CHTO   C16 3783   5.802   4.208   0.190
    9CHTO   O11 3784   5.853   4.327   0.130
    9CHTO    H5 3785   5.855   4.396   0.194
    9CHTO    O3 3786   5.566   3.812   0.131
    9CHTO    C6 3787   5.441   3.881   0.167
    9CHTO   H19 3788   5.445   3.988   0.149
    9CHTO    C8 3789   5.321   3.824   0.084
    9CHTO   H21 3790   5.315   3.716   0.102
    9CHTO    O7 3791   5.349   3.848   2.819
    9CHTO    H2 3792   5.352   3.940   2.801
    9CHTO   C12 3793   5.186   3.891   0.131
    9CHTO   H25 3794   5.194   3.999   0.104
    9CHTO    N3 3795   5.066   3.838   0.057
    9CHTO   H12 3796   5.095   3.763   2.859
    9CHTO   H13 3797   4.993   3.798   0.125
    9CHTO   C15 3798   5.173   3.880   0.287
    9CHTO   H28 3799   5.155   3.777   0.319
    9CHTO   O10 3800   5.061   3.972   0.345
    9CHTO    H4 3801   5.074   4.061   0.317
    9CHTO    O5 3802   5.290   3.932   0.352
    9CHTO   C10 3803   5.411   3.862   0.319
    9CHTO   H23 3804   5.399   3.756   0.343
    9CHTO   C17 3805   5.521   3.919   0.411
    9CHTO   O12 3806   5.640   3.840   0.407
    9CHTO    H6 3807   5.704   3.876   0.465
   10CHTO  H203 3808   4.153   6.699   0.154
   10CHTO   O82 3809   4.070   6.678   0.116
   10CHTO  C123 3810   3.979   6.788   0.129
   10CHTO  H227 3811   4.022   6.876   0.078
   10CHTO   O77 3812   3.861   6.741   0.058
   10CHTO  C118 3813   3.755   6.837   0.051
   10CHTO  H222 3814   3.795   6.933   0.012
   10CHTO  C125 3815   3.647   6.783   2.825
   10CHTO   O84 3816   3.700   6.772   2.692
   10CHTO  H205 3817   3.634   6.739   2.635
   10CHTO  C114 3818   3.699   6.860   0.192
   10CHTO  H218 3819   3.666   6.764   0.233
   10CHTO  C116 3820   3.814   6.914   0.286
   10CHTO  H220 3821   3.840   7.017   0.254
   10CHTO   O79 3822   3.765   6.925   0.421
   10CHTO  H201 3823   3.830   6.965   0.476
   10CHTO  C120 3824   3.942   6.820   0.279
   10CHTO  H224 3825   3.914   6.725   0.331
   10CHTO   N21 3826   4.058   6.877   0.353
   10CHTO  H211 3827   4.056   6.846   0.456
   10CHTO  H212 3828   4.059   6.985   0.345
   10CHTO   O75 3829   3.585   6.946   0.172
   10CHTO  C112 3830   3.505   7.008   0.303
   10CHTO  H216 3831   3.569   7.085   0.349
   10CHTO   O73 3832   3.476   6.900   0.394
   10CHTO  C113 3833   3.434   6.950   0.522
   10CHTO  H217 3834   3.514   7.015   0.562
   10CHTO  C124 3835   3.420   6.831   0.618
   10CHTO   O83 3836   3.545   6.765   0.641
   10CHTO  H204 3837   3.531   6.693   0.699
   10CHTO  C109 3838   3.301   7.031   0.513
   10CHTO  H213 3839   3.220   6.958   0.501
   10CHTO  C110 3840   3.301   7.131   0.392
   10CHTO  H214 3841   3.353   7.222   0.422
   10CHTO   O78 3842   3.165   7.171   0.364
   10CHTO  H200 3843   3.113   7.096   0.340
   10CHTO  C111 3844   3.367   7.072   0.263
   10CHTO  H215 3845   3.303   6.993   0.224
   10CHTO   N19 3846   3.384   7.172   0.154
   10CHTO  H207 3847   3.445   7.255   0.188
   10CHTO  H208 3848   3.287   7.209   0.123
   10CHTO   O74 3849   3.284   7.100   0.642
   10CHTO  C115 3850   3.144   7.170   0.670
   10CHTO  H219 3851   3.115   7.237   0.588
   10CHTO   O76 3852   3.027   7.066   0.679
   10CHTO  C122 3853   3.044   6.970   0.785
   10CHTO  H226 3854   3.120   6.898   0.752
   10CHTO  C126 3855   2.910   6.891   0.796
   10CHTO   O85 3856   2.916   6.786   0.893
   10CHTO  H206 3857   2.832   6.747   0.902
   10CHTO  C121 3858   3.087   7.037   0.923
   10CHTO  H225 3859   3.021   6.998   1.004
   10CHTO   O81 3860   3.220   6.998   0.958
   10CHTO  H202 3861   3.281   7.030   0.894
   10CHTO  C119 3862   3.072   7.192   0.919
   10CHTO  H223 3863   2.967   7.210   0.894
   10CHTO  C117 3864   3.159   7.254   0.804
   10CHTO  H221 3865   3.266   7.254   0.824
   10CHTO   N20 3866   3.124   7.399   0.782
   10CHTO  H209 3867   3.137   7.454   0.875
   10CHTO  H210 3868   3.187   7.441   0.705
   10CHTO   O80 3869   3.083   7.261   1.062
   10CHTO  C103 3870   2.961   7.341   1.118
   10CHTO  H190 3871   2.919   7.404   1.040
   10CHTO  C101 3872   2.845   7.256   1.182
   10CHTO  H188 3873   2.887   7.192   1.260
   10CHTO   O68 3874   2.783   7.165   1.072
   10CHTO  H168 3875   2.847   7.104   1.041
   10CHTO   C99 3876   2.737   7.353   1.249
   10CHTO  H186 3877   2.693   7.417   1.169
   10CHTO   N17 3878   2.623   7.280   1.314
   10CHTO  H174 3879   2.610   7.311   1.417
   10CHTO  H175 3880   2.532   7.295   1.258
   10CHTO   C97 3881   2.808   7.451   1.347
   10CHTO  H184 3882   2.846   7.394   1.433
   10CHTO   O64 3883   2.914   7.522   1.279
   10CHTO  C104 3884   3.019   7.438   1.228
   10CHTO  H191 3885   3.065   7.379   1.308
   10CHTO  C108 3886   3.131   7.527   1.172
   10CHTO   O71 3887   3.193   7.605   1.275
   10CHTO  H171 3888   3.132   7.669   1.308
   10CHTO   O62 3889   2.724   7.561   1.389
   10CHTO   C91 3890   2.681   7.563   1.526
   10CHTO  H178 3891   2.672   7.461   1.562
   10CHTO   C92 3892   2.536   7.623   1.530
   10CHTO  H179 3893   2.538   7.721   1.478
   10CHTO   O66 3894   2.450   7.539   1.451
   10CHTO  H166 3895   2.444   7.453   1.488
   10CHTO   C93 3896   2.479   7.639   1.676
   10CHTO  H180 3897   2.455   7.538   1.712
   10CHTO   N16 3898   2.351   7.714   1.681
   10CHTO  H172 3899   2.314   7.718   1.783
   10CHTO  H173 3900   2.365   7.814   1.642
   10CHTO   C94 3901   2.586   7.703   1.772
   10CHTO  H181 3902   2.603   7.809   1.749
   10CHTO   O61 3903   2.714   7.639   1.759
   10CHTO   C95 3904   2.771   7.645   1.627
   10CHTO  H182 3905   2.776   7.750   1.595
   10CHTO  C106 3906   2.918   7.592   1.635
   10CHTO   O69 3907   3.000   7.674   1.719
   10CHTO  H169 3908   3.012   7.758   1.680
   10CHTO   O63 3909   2.538   7.691   1.929
   10CHTO   C96 3910   2.596   7.568   2.017
   10CHTO  H183 3911   2.698   7.548   1.986
   10CHTO   C98 3912   2.514   7.436   2.003
   10CHTO  H185 3913   2.406   7.461   2.000
   10CHTO   O67 3914   2.544   7.381   1.874
   10CHTO  H167 3915   2.490   7.306   1.857
   10CHTO  C102 3916   2.543   7.329   2.119
   10CHTO  H189 3917   2.646   7.293   2.102
   10CHTO   N18 3918   2.457   7.207   2.115
   10CHTO  H176 3919   2.484   7.140   2.195
   10CHTO  H177 3920   2.469   7.157   2.020
   10CHTO  C105 3921   2.537   7.403   2.255
   10CHTO  H192 3922   2.437   7.444   2.269
   10CHTO   O65 3923   2.633   7.510   2.257
   10CHTO  C100 3924   2.602   7.617   2.167
   10CHTO  H187 3925   2.504   7.659   2.195
   10CHTO  C107 3926   2.709   7.727   2.190
   10CHTO   O70 3927   2.679   7.848   2.120
   10CHTO  H170 3928   2.747   7.911   2.136
   10CHTO   O57 3929   2.571   7.298   2.376
   10CHTO   C85 3930   2.517   7.330   2.506
   10CHTO  H157 3931   2.420   7.382   2.488
   10CHTO   C83 3932   2.608   7.434   2.578
   10CHTO  H155 3933   2.612   7.524   2.516
   10CHTO   O56 3934   2.743   7.384   2.585
   10CHTO  H135 3935   2.748   7.308   2.640
   10CHTO   C81 3936   2.545   7.471   2.715
   10CHTO  H153 3937   2.445   7.510   2.697
   10CHTO   N14 3938   2.615   7.582   2.783
   10CHTO  H141 3939   2.563   7.610   2.872
   10CHTO  H142 3940   2.621   7.667   2.718
   10CHTO   C79 3941   2.531   7.341   2.805
   10CHTO  H151 3942   2.476   7.370   0.020
   10CHTO   O52 3943   2.451   7.240   2.736
   10CHTO   C86 3944   2.499   7.205   2.601
   10CHTO  H158 3945   2.596   7.153   2.619
   10CHTO   C90 3946   2.405   7.101   2.537
   10CHTO   O60 3947   2.405   6.979   2.612
   10CHTO  H138 3948   2.345   6.918   2.573
   10CHTO   O50 3949   2.656   7.284   2.845
   10CHTO   C73 3950   2.718   7.195   0.065
   10CHTO  H145 3951   2.672   7.095   0.060
   10CHTO   C74 3952   2.703   7.249   0.211
   10CHTO  H146 3953   2.595   7.256   0.233
   10CHTO   O54 3954   2.757   7.152   0.302
   10CHTO  H133 3955   2.704   7.074   0.302
   10CHTO   C75 3956   2.774   7.390   0.220
   10CHTO  H147 3957   2.719   7.460   0.155
   10CHTO   N13 3958   2.770   7.452   0.355
   10CHTO  H139 3959   2.818   7.549   0.352
   10CHTO  H140 3960   2.667   7.466   0.386
   10CHTO   C76 3961   2.924   7.381   0.163
   10CHTO  H148 3962   2.986   7.328   0.236
   10CHTO   O49 3963   2.930   7.312   0.034
   10CHTO   C77 3964   2.869   7.182   0.031
   10CHTO  H149 3965   2.916   7.116   0.103
   10CHTO   C88 3966   2.890   7.118   2.767
   10CHTO   O58 3967   3.034   7.098   2.741
   10CHTO  H136 3968   3.045   7.062   2.655
   10CHTO   O51 3969   2.976   7.526   0.130
   10CHTO   C78 3970   3.126   7.528   0.089
   10CHTO  H150 3971   3.160   7.427   0.057
   10CHTO   C80 3972   3.212   7.575   0.208
   10CHTO  H152 3973   3.171   7.673   0.245
   10CHTO   O55 3974   3.198   7.478   0.313
   10CHTO  H134 3975   3.111   7.480   0.349
   10CHTO   C84 3976   3.363   7.594   0.166
   10CHTO  H156 3977   3.403   7.496   0.141
   10CHTO   N15 3978   3.446   7.649   0.279
   10CHTO  H143 3979   3.526   7.582   0.302
   10CHTO  H144 3980   3.487   7.745   0.253
   10CHTO   C87 3981   3.370   7.682   0.038
   10CHTO  H159 3982   3.337   7.783   0.062
   10CHTO   O53 3983   3.281   7.623   2.803
   10CHTO   C82 3984   3.143   7.622   2.842
   10CHTO  H154 3985   3.111   7.723   2.868
   10CHTO   C89 3986   3.056   7.576   2.723
   10CHTO   O59 3987   3.062   7.671   2.616
   10CHTO  H137 3988   3.005   7.644   2.546
   10CHTO   O45 3989   3.519   7.684   2.853
   10CHTO   C67 3990   3.552   7.807   2.785
   10CHTO  H124 3991   3.470   7.837   2.719
   10CHTO   C65 3992   3.580   7.920   0.014
   10CHTO  H122 3993   3.497   7.919   0.085
   10CHTO   O44 3994   3.581   8.048   2.822
   10CHTO  H102 3995   3.654   8.055   2.764
   10CHTO   C63 3996   3.708   7.883   0.097
   10CHTO  H120 3997   3.694   7.783   0.139
   10CHTO   N11 3998   3.731   7.967   0.220
   10CHTO  H108 3999   3.717   7.909   0.308
   10CHTO  H109 4000   3.830   8.008   0.219
   10CHTO   C61 4001   3.830   7.872   2.872
   10CHTO  H118 4002   3.913   7.829   0.057
   10CHTO   O40 4003   3.806   7.779   2.763
   10CHTO   C68 4004   3.677   7.781   2.692
   10CHTO  H125 4005   3.664   7.679   2.649
   10CHTO   C72 4006   3.684   7.879   2.572
   10CHTO   O48 4007   3.782   7.840   2.475
   10CHTO  H105 4008   3.755   7.761   2.432
   10CHTO   O38 4009   3.867   8.001   2.819
   10CHTO   C55 4010   4.006   8.039   2.812
   10CHTO  H112 4011   4.063   7.956   2.766
   10CHTO   C56 4012   4.064   8.078   0.082
   10CHTO  H113 4013   3.987   8.140   0.131
   10CHTO   O42 4014   4.079   7.961   0.165
   10CHTO  H100 4015   4.138   7.900   0.125
   10CHTO   C57 4016   4.201   8.157   0.074
   10CHTO  H114 4017   4.278   8.087   0.042
   10CHTO   N10 4018   4.244   8.215   0.204
   10CHTO  H106 4019   4.158   8.241   0.265
   10CHTO  H107 4020   4.304   8.143   0.258
   10CHTO   C58 4021   4.189   8.269   2.841
   10CHTO  H115 4022   4.111   8.342   2.874
   10CHTO   O37 4023   4.151   8.212   2.715
   10CHTO   C59 4024   4.018   8.160   2.715
   10CHTO  H116 4025   3.948   8.239   2.744
   10CHTO   C70 4026   3.981   8.121   2.570
   10CHTO   O46 4027   4.063   8.018   2.514
   10CHTO  H103 4028   4.034   8.000   2.427
   10CHTO   O39 4029   4.330   8.345   2.815
   10CHTO   C60 4030   4.312   8.486   2.790
   10CHTO  H117 4031   4.208   8.507   2.769
   10CHTO   C62 4032   4.352   8.570   0.041
   10CHTO  H119 4033   4.288   8.534   0.125
   10CHTO   O43 4034   4.490   8.544   0.075
   10CHTO  H101 4035   4.513   8.590   0.154
   10CHTO   C66 4036   4.320   8.725   0.013
   10CHTO  H123 4037   4.214   8.735   2.864
   10CHTO   N12 4038   4.343   8.810   0.133
   10CHTO  H110 4039   4.281   8.777   0.214
   10CHTO  H111 4040   4.323   8.914   0.109
   10CHTO   C69 4041   4.400   8.774   2.763
   10CHTO  H126 4042   4.509   8.771   2.785
   10CHTO   O41 4043   4.368   8.679   2.637
   10CHTO   C64 4044   4.394   8.531   2.666
   10CHTO  H121 4045   4.502   8.515   2.686
   10CHTO   C71 4046   4.358   8.447   2.540
   10CHTO   O47 4047   4.219   8.456   2.507
   10CHTO  H104 4048   4.202   8.402   2.432
   10CHTO   O34 4049   4.361   8.925   2.725
   10CHTO   C49 4050   4.249   9.016   2.667
   10CHTO   H91 4051   4.260   9.111   2.719
   10CHTO   C47 4052   4.110   8.958   2.698
   10CHTO   H89 4053   4.104   8.956   2.810
   10CHTO   O33 4054   4.100   8.823   2.650
   10CHTO   H70 4055   4.021   8.783   2.681
   10CHTO   C45 4056   3.991   9.044   2.630
   10CHTO   H87 4057   3.937   8.978   2.561
   10CHTO    N8 4058   3.894   9.090   2.733
   10CHTO   H75 4059   3.807   9.132   2.685
   10CHTO   H76 4060   3.941   9.164   2.796
   10CHTO   C43 4061   4.045   9.161   2.533
   10CHTO   H85 4062   3.959   9.193   2.475
   10CHTO   O29 4063   4.150   9.107   2.449
   10CHTO   C50 4064   4.261   9.042   2.514
   10CHTO   H92 4065   4.279   8.945   2.464
   10CHTO   C54 4066   4.391   9.122   2.485
   10CHTO   O36 4067   4.419   9.128   2.345
   10CHTO   H72 4068   4.497   9.179   2.331
   10CHTO   O27 4069   4.092   9.278   2.603
   10CHTO   C37 4070   4.140   9.406   2.557
   10CHTO   H79 4071   4.233   9.392   2.499
   10CHTO   C38 4072   4.038   9.478   2.464
   10CHTO   H80 4073   3.941   9.484   2.517
   10CHTO   O31 4074   4.019   9.399   2.345
   10CHTO   H68 4075   4.100   9.391   2.297
   10CHTO   C39 4076   4.085   9.623   2.425
   10CHTO   H81 4077   4.163   9.611   2.350
   10CHTO    N7 4078   3.979   9.706   2.359
   10CHTO   H73 4079   3.894   9.716   2.425
   10CHTO   H74 4080   3.948   9.660   2.267
   10CHTO   C40 4081   4.149   9.704   2.545
   10CHTO   H82 4082   4.075   9.758   2.603
   10CHTO   O26 4083   4.233   9.621   2.628
   10CHTO   C41 4084   4.171   9.499   2.677
   10CHTO   H83 4085   4.076   9.524   2.729
   10CHTO   C52 4086   4.265   9.434   2.781
   10CHTO   O35 4087   4.287   9.520   0.027
   10CHTO   H71 4088   4.332   9.599   0.002
   10CHTO   O28 4089   4.246   9.795   2.491
   10CHTO   C42 4090   4.260   9.935   2.529
   10CHTO   H84 4091   4.216   9.942   2.629
   10CHTO   C44 4092   4.181   0.037   2.439
   10CHTO   H86 4093   4.201   0.014   2.334
   10CHTO   O32 4094   4.040   0.015   2.461
   10CHTO   H69 4095   4.014   9.933   2.425
   10CHTO   C48 4096   4.220   0.189   2.464
   10CHTO   H90 4097   4.184   0.218   2.563
   10CHTO    N9 4098   4.155   0.284   2.366
   10CHTO   H77 4099   4.091   0.353   2.419
   10CHTO   H78 4100   4.099   0.230   2.291
   10CHTO   C51 4101   4.377   0.199   2.463
   10CHTO   H93 4102   4.412   0.163   2.365
   10CHTO   O30 4103   4.425   0.118   2.570
   10CHTO   C46 4104   4.410   9.973   2.542
   10CHTO   H88 4105   4.461   9.950   2.448
   10CHTO   C53 4106   4.476   9.895   2.658
   10CHTO   O72 4107   4.617   9.919   2.663
   10CHTO  H199 4108   4.654   9.874   2.736
   10CHTO   O22 4109   4.429   0.331   2.490
   10CHTO   C31 4110   4.564   0.368   2.439
   10CHTO   H59 4111   4.592   0.460   2.494
   10CHTO   C29 4112   4.674   0.263   2.467
   10CHTO   H57 4113   4.638   0.167   2.426
   10CHTO   O21 4114   4.684   0.246   2.609
   10CHTO   H37 4115   4.738   0.172   2.630
   10CHTO   C27 4116   4.814   0.297   2.401
   10CHTO   H55 4117   4.858   0.382   2.455
   10CHTO    N5 4118   4.909   0.183   2.407
   10CHTO   H43 4119   4.861   0.095   2.448
   10CHTO   H44 4120   4.995   0.210   2.467
   10CHTO   C25 4121   4.793   0.344   2.252
   10CHTO   H53 4122   4.759   0.259   2.192
   10CHTO   O17 4123   4.693   0.450   2.246
   10CHTO   C32 4124   4.562   0.407   2.288
   10CHTO   H60 4125   4.531   0.321   2.229
   10CHTO   C36 4126   4.463   0.523   2.261
   10CHTO   O25 4127   4.454   0.551   2.121
   10CHTO   H40 4128   4.394   0.622   2.107
   10CHTO   O15 4129   4.925   0.398   2.190
   10CHTO   C19 4130   4.962   0.444   2.057
   10CHTO   H47 4131   4.890   0.392   1.991
   10CHTO   C20 4132   4.945   0.598   2.036
   10CHTO   H48 4133   4.993   0.656   2.117
   10CHTO   O19 4134   4.803   0.625   2.042
   10CHTO   H35 4135   4.772   0.613   2.130
   10CHTO   C21 4136   5.004   0.650   1.899
   10CHTO   H49 4137   4.944   0.610   1.817
   10CHTO    N4 4138   5.002   0.798   1.885
   10CHTO   H41 4139   5.043   0.827   1.790
   10CHTO   H42 4140   4.900   0.834   1.892
   10CHTO   C22 4141   5.147   0.591   1.883
   10CHTO   H50 4142   5.210   0.629   1.964
   10CHTO   O14 4143   5.140   0.448   1.887
   10CHTO   C23 4144   5.103   0.394   2.014
   10CHTO   H51 4145   5.181   0.423   2.087
   10CHTO   C34 4146   5.108   0.241   1.996
   10CHTO   O23 4147   5.089   0.169   2.119
   10CHTO   H38 4148   5.163   0.183   2.175
   10CHTO   O16 4149   5.207   0.620   1.755
   10CHTO   C24 4150   5.369   0.616   1.759
   10CHTO   H52 4151   5.406   0.579   1.855
   10CHTO   C26 4152   5.423   0.758   1.736
   10CHTO   H54 4153   5.376   0.799   1.644
   10CHTO   O20 4154   5.383   0.841   1.847
   10CHTO   H36 4155   5.290   0.854   1.846
   10CHTO   C30 4156   5.578   0.759   1.716
   10CHTO   H58 4157   5.627   0.732   1.811
   10CHTO    N6 4158   5.629   0.894   1.681
   10CHTO   H45 4159   5.737   0.891   1.668
   10CHTO   H46 4160   5.605   0.964   1.759
   10CHTO   C33 4161   5.620   0.650   1.612
   10CHTO   H61 4162   5.581   0.677   1.512
   10CHTO   O18 4163   5.563   0.524   1.651
   10CHTO   C28 4164   5.420   0.519   1.650
   10CHTO   H56 4165   5.380   0.549   1.553
   10CHTO   C35 4166   5.377   0.373   1.681
   10CHTO   O24 4167   5.426   0.279   1.585
   10CHTO   H39 4168   5.399   0.192   1.610
   10CHTO    O9 4169   5.763   0.641   1.597
   10CHTO   C13 4170   5.817   0.541   1.475
   10CHTO   H26 4171   5.762   0.568   1.382
   10CHTO   C11 4172   5.792   0.389   1.515
   10CHTO   H24 4173   5.685   0.369   1.505
   10CHTO    O8 4174   5.828   0.370   1.653
   10CHTO    H3 4175   5.804   0.284   1.681
   10CHTO    C9 4176   5.868   0.296   1.416
   10CHTO   H22 4177   5.832   0.324   1.316
   10CHTO    N2 4178   5.833   0.152   1.431
   10CHTO   H10 4179   5.866   0.116   1.527
   10CHTO   H11 4180   5.878   0.095   1.351
   10CHTO    C7 4181   6.021   0.326   1.426
   10CHTO   H20 4182   6.067   0.259   1.349
   10CHTO    O4 4183   6.050   0.463   1.391
   10CHTO   C14 4184   5.971   0.572   1.443
   10CHTO   H27 4185   5.971   0.646   1.361
   10CHTO   C18 4186   6.045   0.639   1.563
   10CHTO   O13 4187   6.063   0.553   1.676
   10CHTO    H7 4188   6.109   0.599   1.743
   10CHTO    O2 4189   6.085   0.293   1.576
   10CHTO    C1 4190   6.220   0.243   1.586
   10CHTO   H14 4191   6.259   0.276   1.684
   10CHTO    C2 4192   6.322   0.290   1.473
   10CHTO   H15 4193   6.275   0.268   1.376
   10CHTO    O6 4194   6.341   0.432   1.487
   10CHTO    H1 4195   6.262   0.478   1.465
   10CHTO    C3 4196   6.461   0.211   1.485
   10CHTO   H16 4197   6.509   0.239   1.579
   10CHTO    N1 4198   6.557   0.246   1.374
   10CHTO    H8 4199   6.582   0.159   1.315
   10CHTO    H9 4200   6.515   0.322   1.309
   10CHTO    C4 4201   6.431   0.057   1.495
   10CHTO   H17 4202   6.383   0.024   1.403
   10CHTO    O1 4203   6.345   0.030   1.607
   10CHTO    C5 4204   6.214   0.087   1.596
   10CHTO   H18 4205   6.164   0.049   1.507
   10CHTO   C16 4206   6.132   0.044   1.721
   10CHTO   O11 4207   6.119   9.902   1.731
   10CHTO    H5 4208   6.203   9.864   1.750
   10CHTO    O3 4209   6.552   9.981   1.518
   10CHTO    C6 4210   6.546   9.836   1.495
   10CHTO   H19 4211   6.449   9.794   1.520
   10CHTO    C8 4212   6.580   9.801   1.346
   10CHTO   H21 4213   6.670   9.856   1.317
   10CHTO    O7 4214   6.469   9.844   1.264
   10CHTO    H2 4215   6.463   9.937   1.264
   10CHTO   C12 4216   6.607   9.646   1.328
   10CHTO   H25 4217   6.510   9.594   1.345
   10CHTO    N3 4218   6.650   9.613   1.188
   10CHTO   H12 4219   6.741   9.667   1.163
   10CHTO   H13 4220   6.571   9.638   1.118
   10CHTO   C15 4221   6.710   9.598   1.437
   10CHTO   H28 4222   6.808   9.642   1.422
   10CHTO   O10 4223   6.725   9.443   1.443
   10CHTO    H4 4224   6.795   9.420   1.500
   10CHTO    O5 4225   6.660   9.629   1.568
   10CHTO   C10 4226   6.650   9.771   1.591
   10CHTO   H23 4227   6.748   9.816   1.575
   10CHTO   C17 4228   6.614   9.794   1.738
   10CHTO   O12 4229   6.717   9.748   1.826
   10CHTO    H6 4230   6.692   9.763   1.915
   11CHTO  H203 4231   5.823   4.858   1.101
   11CHTO   O82 4232   5.826   4.951   1.091
   11CHTO  C123 4233   5.800   5.016   1.216
   11CHTO  H227 4234   5.876   4.984   1.289
   11CHTO   O77 4235   5.817   5.157   1.184
   11CHTO  C118 4236   5.813   5.243   1.299
   11CHTO  H222 4237   5.888   5.210   1.373
   11CHTO  C125 4238   5.850   5.388   1.249
   11CHTO   O84 4239   5.877   5.478   1.357
   11CHTO  H205 4240   5.799   5.492   1.407
   11CHTO  C114 4241   5.672   5.236   1.361
   11CHTO  H218 4242   5.601   5.276   1.288
   11CHTO  C116 4243   5.629   5.089   1.392
   11CHTO  H220 4244   5.688   5.054   1.479
   11CHTO   O79 4245   5.491   5.089   1.434
   11CHTO  H201 4246   5.435   5.116   1.364
   11CHTO  C120 4247   5.654   4.993   1.269
   11CHTO  H224 4248   5.581   5.023   1.191
   11CHTO   N21 4249   5.628   4.851   1.304
   11CHTO  H211 4250   5.689   4.785   1.244
   11CHTO  H212 4251   5.523   4.828   1.290
   11CHTO   O75 4252   5.680   5.320   1.477
   11CHTO  C112 4253   5.544   5.403   1.523
   11CHTO  H216 4254   5.480   5.337   1.583
   11CHTO   O73 4255   5.477   5.450   1.404
   11CHTO  C113 4256   5.359   5.527   1.429
   11CHTO  H217 4257   5.289   5.468   1.493
   11CHTO  C124 4258   5.288   5.552   1.296
   11CHTO   O83 4259   5.243   5.430   1.235
   11CHTO  H204 4260   5.197   5.450   1.155
   11CHTO  C109 4261   5.397   5.659   1.502
   11CHTO  H213 4262   5.468   5.712   1.437
   11CHTO  C110 4263   5.466   5.621   1.637
   11CHTO  H214 4264   5.393   5.571   1.700
   11CHTO   O78 4265   5.506   5.743   1.702
   11CHTO  H200 4266   5.431   5.792   1.729
   11CHTO  C111 4267   5.588   5.528   1.611
   11CHTO  H215 4268   5.663   5.583   1.553
   11CHTO   N19 4269   5.655   5.481   1.735
   11CHTO  H207 4270   5.695   5.566   1.789
   11CHTO  H208 4271   5.585   5.428   1.798
   11CHTO   O74 4272   5.281   5.744   1.527
   11CHTO  C115 4273   5.282   5.881   1.442
   11CHTO  H219 4274   5.348   5.874   1.355
   11CHTO   O76 4275   5.140   5.911   1.379
   11CHTO  C122 4276   5.037   5.936   1.476
   11CHTO  H226 4277   5.009   5.840   1.520
   11CHTO  C126 4278   4.911   5.986   1.396
   11CHTO   O85 4279   4.793   5.997   1.476
   11CHTO  H206 4280   4.805   6.065   1.540
   11CHTO  C121 4281   5.081   6.040   1.588
   11CHTO  H225 4282   5.003   6.119   1.596
   11CHTO   O81 4283   5.086   5.975   1.716
   11CHTO  H202 4284   5.152   5.908   1.717
   11CHTO  C119 4285   5.217   6.108   1.551
   11CHTO  H223 4286   5.200   6.147   1.451
   11CHTO  C117 4287   5.331   5.999   1.537
   11CHTO  H221 4288   5.359   5.951   1.631
   11CHTO   N20 4289   5.458   6.060   1.486
   11CHTO  H209 4290   5.445   6.165   1.462
   11CHTO  H210 4291   5.538   6.048   1.558
   11CHTO   O80 4292   5.249   6.245   1.634
   11CHTO  C103 4293   5.273   6.244   1.790
   11CHTO  H190 4294   5.233   6.154   1.836
   11CHTO  C101 4295   5.424   6.265   1.833
   11CHTO  H188 4296   5.469   6.334   1.763
   11CHTO   O68 4297   5.497   6.130   1.820
   11CHTO  H168 4298   5.589   6.143   1.832
   11CHTO   C99 4299   5.441   6.326   1.981
   11CHTO  H186 4300   5.415   6.248   2.055
   11CHTO   N17 4301   5.581   6.370   2.011
   11CHTO  H174 4302   5.590   6.400   2.114
   11CHTO  H175 4303   5.610   6.450   1.944
   11CHTO   C97 4304   5.340   6.442   2.005
   11CHTO  H184 4305   5.367   6.527   1.940
   11CHTO   O64 4306   5.206   6.395   1.978
   11CHTO  C104 4307   5.183   6.365   1.840
   11CHTO  H191 4308   5.206   6.453   1.779
   11CHTO  C108 4309   5.033   6.338   1.820
   11CHTO   O71 4310   4.987   6.227   1.899
   11CHTO  H171 4311   4.991   6.249   1.990
   11CHTO   O62 4312   5.335   6.484   2.143
   11CHTO   C91 4313   5.285   6.617   2.167
   11CHTO  H178 4314   5.228   6.648   2.079
   11CHTO   C92 4315   5.404   6.718   2.181
   11CHTO  H179 4316   5.478   6.700   2.100
   11CHTO   O66 4317   5.353   6.850   2.157
   11CHTO  H166 4318   5.325   6.859   2.068
   11CHTO   C93 4319   5.472   6.717   2.323
   11CHTO  H180 4320   5.531   6.810   2.330
   11CHTO   N16 4321   5.571   6.608   2.340
   11CHTO  H172 4322   5.615   6.613   2.439
   11CHTO  H173 4323   5.647   6.615   2.264
   11CHTO   C94 4324   5.363   6.717   2.439
   11CHTO  H181 4325   5.364   6.624   2.497
   11CHTO   O61 4326   5.229   6.730   2.387
   11CHTO   C95 4327   5.189   6.628   2.295
   11CHTO  H182 4328   5.188   6.532   2.347
   11CHTO  C106 4329   5.041   6.656   2.253
   11CHTO   O69 4330   4.988   6.550   2.172
   11CHTO  H169 4331   4.977   6.473   2.223
   11CHTO   O63 4332   5.385   6.842   2.535
   11CHTO   C96 4333   5.521   6.843   2.624
   11CHTO  H183 4334   5.603   6.807   2.562
   11CHTO   C98 4335   5.514   6.755   2.752
   11CHTO  H185 4336   5.422   6.779   2.807
   11CHTO   O67 4337   5.501   6.618   2.711
   11CHTO  H167 4338   5.490   6.562   2.785
   11CHTO  C102 4339   5.642   6.774   2.847
   11CHTO  H189 4340   5.727   6.729   2.793
   11CHTO   N18 4341   5.633   6.701   0.103
   11CHTO  H176 4342   5.716   6.633   0.113
   11CHTO  H177 4343   5.631   6.770   0.186
   11CHTO  C105 4344   5.673   6.926   2.865
   11CHTO  H192 4345   5.596   6.971   0.055
   11CHTO   O65 4346   5.676   6.997   2.740
   11CHTO  C100 4347   5.554   6.992   2.665
   11CHTO  H187 4348   5.472   7.031   2.728
   11CHTO  C107 4349   5.569   7.086   2.543
   11CHTO   O70 4350   5.446   7.106   2.473
   11CHTO  H170 4351   5.386   7.154   2.527
   11CHTO   O57 4352   5.820   6.935   0.062
   11CHTO   C85 4353   5.848   7.033   0.162
   11CHTO  H157 4354   5.755   7.043   0.223
   11CHTO   C83 4355   5.871   7.173   0.096
   11CHTO  H155 4356   5.778   7.202   0.046
   11CHTO   O56 4357   5.970   7.161   2.866
   11CHTO  H135 4358   5.977   7.242   2.819
   11CHTO   C81 4359   5.904   7.277   0.206
   11CHTO  H153 4360   5.822   7.278   0.278
   11CHTO   N14 4361   5.908   7.417   0.156
   11CHTO  H141 4362   5.988   7.428   0.086
   11CHTO  H142 4363   5.816   7.441   0.107
   11CHTO   C79 4364   6.036   7.235   0.282
   11CHTO  H151 4365   6.050   7.307   0.363
   11CHTO   O52 4366   6.015   7.104   0.345
   11CHTO   C86 4367   5.974   6.998   0.253
   11CHTO  H158 4368   6.064   6.979   0.191
   11CHTO   C90 4369   5.953   6.869   0.336
   11CHTO   O60 4370   5.943   6.753   0.253
   11CHTO  H138 4371   5.929   6.677   0.307
   11CHTO   O50 4372   6.155   7.234   0.201
   11CHTO   C73 4373   6.291   7.206   0.237
   11CHTO  H145 4374   6.295   7.126   0.312
   11CHTO   C74 4375   6.362   7.332   0.297
   11CHTO  H146 4376   6.302   7.364   0.384
   11CHTO   O54 4377   6.490   7.293   0.350
   11CHTO  H133 4378   6.546   7.262   0.281
   11CHTO   C75 4379   6.370   7.446   0.187
   11CHTO  H147 4380   6.267   7.477   0.163
   11CHTO   N13 4381   6.437   7.570   0.231
   11CHTO  H139 4382   6.539   7.548   0.259
   11CHTO  H140 4383   6.386   7.611   0.317
   11CHTO   C76 4384   6.435   7.388   0.052
   11CHTO  H148 4385   6.541   7.370   0.069
   11CHTO   O49 4386   6.370   7.264   0.011
   11CHTO   C77 4387   6.370   7.161   0.111
   11CHTO  H149 4388   6.473   7.138   0.139
   11CHTO   C88 4389   6.315   7.033   0.047
   11CHTO   O58 4390   6.325   6.920   0.140
   11CHTO  H136 4391   6.291   6.843   0.099
   11CHTO   O51 4392   6.408   7.488   2.801
   11CHTO   C78 4393   6.501   7.459   2.676
   11CHTO  H150 4394   6.563   7.367   2.692
   11CHTO   C80 4395   6.596   7.579   2.655
   11CHTO  H152 4396   6.534   7.672   2.645
   11CHTO   O55 4397   6.676   7.591   2.774
   11CHTO  H134 4398   6.730   7.668   2.769
   11CHTO   C84 4399   6.685   7.562   2.526
   11CHTO  H156 4400   6.753   7.478   2.544
   11CHTO   N15 4401   6.772   7.681   2.498
   11CHTO  H143 4402   6.711   7.768   2.485
   11CHTO  H144 4403   6.839   7.698   2.579
   11CHTO   C87 4404   6.597   7.526   2.403
   11CHTO  H159 4405   6.538   7.612   2.373
   11CHTO   O53 4406   6.505   7.407   2.440
   11CHTO   C82 4407   6.416   7.436   2.549
   11CHTO  H154 4408   6.355   7.523   2.526
   11CHTO   C89 4409   6.320   7.315   2.563
   11CHTO   O59 4410   6.209   7.342   2.649
   11CHTO  H137 4411   6.239   7.352   2.737
   11CHTO   O45 4412   6.692   7.479   2.277
   11CHTO   C67 4413   6.622   7.435   2.159
   11CHTO  H124 4414   6.550   7.358   2.188
   11CHTO   C65 4415   6.545   7.553   2.088
   11CHTO  H122 4416   6.589   7.645   2.127
   11CHTO   O44 4417   6.408   7.545   2.131
   11CHTO  H102 4418   6.401   7.562   2.223
   11CHTO   C63 4419   6.571   7.558   1.933
   11CHTO  H120 4420   6.674   7.591   1.916
   11CHTO   N11 4421   6.493   7.661   1.856
   11CHTO  H108 4422   6.417   7.704   1.917
   11CHTO  H109 4423   6.558   7.738   1.819
   11CHTO   C61 4424   6.563   7.412   1.874
   11CHTO  H118 4425   6.594   7.419   1.768
   11CHTO   O40 4426   6.656   7.320   1.937
   11CHTO   C68 4427   6.722   7.363   2.060
   11CHTO  H125 4428   6.805   7.432   2.034
   11CHTO   C72 4429   6.787   7.239   2.127
   11CHTO   O48 4430   6.887   7.179   2.044
   11CHTO  H105 4431   6.925   7.106   2.088
   11CHTO   O38 4432   6.432   7.354   1.886
   11CHTO   C55 4433   6.395   7.260   1.783
   11CHTO  H112 4434   6.485   7.218   1.735
   11CHTO   C56 4435   6.301   7.333   1.678
   11CHTO  H113 4436   6.225   7.387   1.735
   11CHTO   O42 4437   6.378   7.433   1.609
   11CHTO  H100 4438   6.448   7.394   1.560
   11CHTO   C57 4439   6.234   7.232   1.577
   11CHTO  H114 4440   6.313   7.191   1.515
   11CHTO   N10 4441   6.135   7.296   1.487
   11CHTO  H106 4442   6.037   7.297   1.532
   11CHTO  H107 4443   6.165   7.397   1.463
   11CHTO   C58 4444   6.170   7.116   1.659
   11CHTO  H115 4445   6.091   7.158   1.725
   11CHTO   O37 4446   6.270   7.052   1.741
   11CHTO   C59 4447   6.320   7.139   1.845
   11CHTO  H116 4448   6.237   7.173   1.907
   11CHTO   C70 4449   6.416   7.060   1.935
   11CHTO   O46 4450   6.350   6.959   2.011
   11CHTO  H103 4451   6.413   6.913   2.064
   11CHTO   O39 4452   6.104   6.999   1.557
   11CHTO   C60 4453   5.978   6.948   1.603
   11CHTO  H117 4454   5.988   6.918   1.707
   11CHTO   C62 4455   5.863   7.054   1.593
   11CHTO  H119 4456   5.897   7.144   1.649
   11CHTO   O43 4457   5.844   7.094   1.455
   11CHTO  H101 4458   5.816   7.021   1.404
   11CHTO   C66 4459   5.731   6.997   1.663
   11CHTO  H123 4460   5.756   6.969   1.765
   11CHTO   N12 4461   5.623   7.099   1.674
   11CHTO  H110 4462   5.596   7.134   1.576
   11CHTO  H111 4463   5.656   7.180   1.737
   11CHTO   C69 4464   5.684   6.868   1.590
   11CHTO  H126 4465   5.649   6.893   1.487
   11CHTO   O41 4466   5.804   6.763   1.581
   11CHTO   C64 4467   5.936   6.821   1.523
   11CHTO  H121 4468   5.921   6.849   1.417
   11CHTO   C71 4469   6.047   6.713   1.527
   11CHTO   O47 4470   6.013   6.601   1.445
   11CHTO  H104 4471   5.942   6.553   1.484
   11CHTO   O34 4472   5.565   6.803   1.669
   11CHTO   C49 4473   5.430   6.740   1.687
   11CHTO   H91 4474   5.423   6.711   1.792
   11CHTO   C47 4475   5.421   6.615   1.597
   11CHTO   H89 4476   5.326   6.563   1.625
   11CHTO   O33 4477   5.532   6.529   1.629
   11CHTO   H70 4478   5.523   6.496   1.716
   11CHTO   C45 4479   5.416   6.659   1.443
   11CHTO   H87 4480   5.506   6.720   1.422
   11CHTO    N8 4481   5.418   6.542   1.351
   11CHTO   H75 4482   5.328   6.484   1.364
   11CHTO   H76 4483   5.426   6.575   1.249
   11CHTO   C43 4484   5.291   6.758   1.418
   11CHTO   H85 4485   5.301   6.794   1.315
   11CHTO   O29 4486   5.294   6.867   1.513
   11CHTO   C50 4487   5.315   6.840   1.653
   11CHTO   H92 4488   5.342   6.936   1.699
   11CHTO   C54 4489   5.181   6.805   1.723
   11CHTO   O36 4490   5.195   6.798   1.865
   11CHTO   H72 4491   5.111   6.780   1.904
   11CHTO   O27 4492   5.164   6.690   1.423
   11CHTO   C37 4493   5.021   6.679   1.433
   11CHTO   H79 4494   4.991   6.679   1.539
   11CHTO   C38 4495   4.947   6.796   1.364
   11CHTO   H80 4496   4.979   6.801   1.259
   11CHTO   O31 4497   4.986   6.918   1.429
   11CHTO   H68 4498   5.076   6.937   1.413
   11CHTO   C39 4499   4.790   6.777   1.370
   11CHTO   H81 4500   4.761   6.793   1.474
   11CHTO    N7 4501   4.713   6.878   1.289
   11CHTO   H73 4502   4.607   6.861   1.300
   11CHTO   H74 4503   4.738   6.978   1.322
   11CHTO   C40 4504   4.746   6.630   1.332
   11CHTO   H82 4505   4.739   6.618   1.224
   11CHTO   O26 4506   4.831   6.531   1.392
   11CHTO   C41 4507   4.973   6.547   1.368
   11CHTO   H83 4508   4.993   6.549   1.260
   11CHTO   C52 4509   5.045   6.424   1.427
   11CHTO   O35 4510   5.004   6.301   1.362
   11CHTO   H71 4511   5.036   6.300   1.274
   11CHTO   O28 4512   4.617   6.600   1.392
   11CHTO   C42 4513   4.538   6.485   1.346
   11CHTO   H84 4514   4.601   6.433   1.274
   11CHTO   C44 4515   4.406   6.522   1.271
   11CHTO   H86 4516   4.341   6.575   1.341
   11CHTO   O32 4517   4.441   6.611   1.164
   11CHTO   H69 4518   4.363   6.643   1.122
   11CHTO   C48 4519   4.329   6.394   1.219
   11CHTO   H90 4520   4.386   6.352   1.136
   11CHTO    N9 4521   4.193   6.426   1.163
   11CHTO   H77 4522   4.173   6.532   1.168
   11CHTO   H78 4523   4.185   6.392   1.061
   11CHTO   C51 4524   4.319   6.283   1.331
   11CHTO   H93 4525   4.244   6.314   1.404
   11CHTO   O30 4526   4.447   6.262   1.392
   11CHTO   C46 4527   4.503   6.383   1.459
   11CHTO   H88 4528   4.428   6.426   1.525
   11CHTO   C53 4529   4.625   6.334   1.541
   11CHTO   O72 4530   4.676   6.436   1.627
   11CHTO  H199 4531   4.715   6.505   1.577
   11CHTO   O22 4532   4.284   6.156   1.273
   11CHTO   C31 4533   4.255   6.039   1.358
   11CHTO   H59 4534   4.295   6.062   1.459
   11CHTO   C29 4535   4.104   6.010   1.374
   11CHTO   H57 4536   4.062   5.995   1.273
   11CHTO   O21 4537   4.042   6.127   1.429
   11CHTO   H37 4538   3.948   6.118   1.427
   11CHTO   C27 4539   4.075   5.881   1.461
   11CHTO   H55 4540   4.099   5.903   1.566
   11CHTO    N5 4541   3.932   5.841   1.454
   11CHTO   H43 4542   3.921   5.738   1.423
   11CHTO   H44 4543   3.884   5.856   1.550
   11CHTO   C25 4544   4.172   5.763   1.421
   11CHTO   H53 4545   4.140   5.721   1.325
   11CHTO   O17 4546   4.310   5.806   1.407
   11CHTO   C32 4547   4.328   5.910   1.310
   11CHTO   H60 4548   4.285   5.879   1.214
   11CHTO   C36 4549   4.479   5.934   1.289
   11CHTO   O25 4550   4.539   5.822   1.224
   11CHTO   H40 4551   4.631   5.837   1.215
   11CHTO   O15 4552   4.166   5.655   1.527
   11CHTO   C19 4553   4.181   5.522   1.584
   11CHTO   H47 4554   4.266   5.533   1.653
   11CHTO   C20 4555   4.055   5.477   1.666
   11CHTO   H48 4556   3.963   5.484   1.606
   11CHTO   O19 4557   4.041   5.569   1.776
   11CHTO   H35 4558   4.114   5.562   1.835
   11CHTO   C21 4559   4.068   5.327   1.716
   11CHTO   H49 4560   4.151   5.321   1.787
   11CHTO    N4 4561   3.947   5.280   1.788
   11CHTO   H41 4562   3.961   5.178   1.822
   11CHTO   H42 4563   3.861   5.284   1.723
   11CHTO   C22 4564   4.104   5.239   1.593
   11CHTO   H50 4565   4.023   5.251   1.520
   11CHTO   O14 4566   4.228   5.284   1.537
   11CHTO   C23 4567   4.222   5.415   1.479
   11CHTO   H51 4568   4.151   5.410   1.396
   11CHTO   C34 4569   4.359   5.447   1.417
   11CHTO   O23 4570   4.466   5.446   1.513
   11CHTO   H38 4571   4.456   5.518   1.573
   11CHTO   O16 4572   4.124   5.100   1.624
   11CHTO   C24 4573   4.076   5.004   1.502
   11CHTO   H52 4574   4.049   5.061   1.413
   11CHTO   C26 4575   3.955   4.919   1.546
   11CHTO   H54 4576   3.985   4.857   1.634
   11CHTO   O20 4577   3.850   5.009   1.588
   11CHTO   H36 4578   3.779   4.960   1.625
   11CHTO   C30 4579   3.908   4.825   1.431
   11CHTO   H58 4580   3.859   4.887   1.354
   11CHTO    N6 4581   3.801   4.730   1.475
   11CHTO   H45 4582   3.773   4.747   1.578
   11CHTO   H46 4583   3.833   4.628   1.464
   11CHTO   C33 4584   4.027   4.752   1.360
   11CHTO   H61 4585   4.056   4.664   1.420
   11CHTO   O18 4586   4.143   4.836   1.345
   11CHTO   C28 4587   4.189   4.907   1.461
   11CHTO   H56 4588   4.209   4.838   1.543
   11CHTO   C35 4589   4.318   4.983   1.425
   11CHTO   O24 4590   4.424   4.893   1.392
   11CHTO   H39 4591   4.502   4.942   1.372
   11CHTO    O9 4592   3.984   4.698   1.233
   11CHTO   C13 4593   3.963   4.813   1.117
   11CHTO   H26 4594   3.959   4.913   1.166
   11CHTO   C11 4595   3.831   4.784   1.033
   11CHTO   H24 4596   3.747   4.777   1.104
   11CHTO    O8 4597   3.844   4.654   0.971
   11CHTO    H3 4598   3.912   4.656   0.905
   11CHTO    C9 4599   3.806   4.905   0.938
   11CHTO   H22 4600   3.768   4.985   1.004
   11CHTO    N2 4601   3.693   4.882   0.843
   11CHTO   H10 4602   3.609   4.944   0.869
   11CHTO   H11 4603   3.725   4.902   0.742
   11CHTO    C7 4604   3.943   4.957   0.876
   11CHTO   H20 4605   3.969   5.042   0.944
   11CHTO    O4 4606   4.047   4.858   0.883
   11CHTO   C14 4607   4.087   4.822   1.017
   11CHTO   H27 4608   4.156   4.900   1.055
   11CHTO   C18 4609   4.168   4.690   1.008
   11CHTO   O13 4610   4.289   4.707   0.934
   11CHTO    H7 4611   4.270   4.720   0.843
   11CHTO    O2 4612   3.934   5.015   0.722
   11CHTO    C1 4613   3.999   5.142   0.710
   11CHTO   H14 4614   4.074   5.155   0.792
   11CHTO    C2 4615   3.900   5.265   0.714
   11CHTO   H15 4616   3.827   5.250   0.632
   11CHTO    O6 4617   3.830   5.265   0.840
   11CHTO    H1 4618   3.890   5.276   0.911
   11CHTO    C3 4619   3.980   5.402   0.692
   11CHTO   H16 4620   4.040   5.417   0.783
   11CHTO    N1 4621   3.889   5.521   0.679
   11CHTO    H8 4622   3.912   5.594   0.755
   11CHTO    H9 4623   3.897   5.565   0.581
   11CHTO    C4 4624   4.085   5.392   0.574
   11CHTO   H17 4625   4.033   5.403   0.479
   11CHTO    O1 4626   4.159   5.268   0.575
   11CHTO    C5 4627   4.080   5.148   0.577
   11CHTO   H18 4628   4.010   5.149   0.494
   11CHTO   C16 4629   4.175   5.026   0.561
   11CHTO   O11 4630   4.269   5.017   0.669
   11CHTO    H5 4631   4.325   4.943   0.655
   11CHTO    O3 4632   4.185   5.495   0.590
   11CHTO    C6 4633   4.257   5.533   0.469
   11CHTO   H19 4634   4.244   5.461   0.388
   11CHTO    C8 4635   4.208   5.673   0.419
   11CHTO   H21 4636   4.215   5.743   0.502
   11CHTO    O7 4637   4.070   5.658   0.380
   11CHTO    H2 4638   4.034   5.741   0.358
   11CHTO   C12 4639   4.299   5.724   0.299
   11CHTO   H25 4640   4.278   5.658   0.214
   11CHTO    N3 4641   4.259   5.863   0.257
   11CHTO   H12 4642   4.156   5.864   0.225
   11CHTO   H13 4643   4.323   5.897   0.177
   11CHTO   C15 4644   4.451   5.711   0.336
   11CHTO   H28 4645   4.481   5.784   0.411
   11CHTO   O10 4646   4.542   5.724   0.212
   11CHTO    H4 4647   4.534   5.809   0.175
   11CHTO    O5 4648   4.481   5.578   0.380
   11CHTO   C10 4649   4.409   5.540   0.499
   11CHTO   H23 4650   4.428   5.614   0.577
   11CHTO   C17 4651   4.465   5.406   0.549
   11CHTO   O12 4652   4.604   5.416   0.581
   11CHTO    H6 4653   4.654   5.425   0.502
   12CHTO  H203 4654   5.425   1.635   2.769
   12CHTO   O82 4655   5.429   1.678   2.853
   12CHTO  C123 4656   5.404   1.583   0.085
   12CHTO  H227 4657   5.415   1.636   0.181
   12CHTO   O77 4658   5.265   1.546   0.065
   12CHTO  C118 4659   5.214   1.455   0.164
   12CHTO  H222 4660   5.231   1.498   0.264
   12CHTO  C125 4661   5.058   1.440   0.141
   12CHTO   O84 4662   5.026   1.390   0.011
   12CHTO  H205 4663   5.050   1.454   2.820
   12CHTO  C114 4664   5.289   1.322   0.153
   12CHTO  H218 4665   5.276   1.282   0.052
   12CHTO  C116 4666   5.442   1.344   0.175
   12CHTO  H220 4667   5.459   1.374   0.280
   12CHTO   O79 4668   5.510   1.218   0.158
   12CHTO  H201 4669   5.501   1.187   0.070
   12CHTO  C120 4670   5.497   1.456   0.077
   12CHTO  H224 4671   5.494   1.413   2.849
   12CHTO   N21 4672   5.639   1.489   0.107
   12CHTO  H211 4673   5.662   1.591   0.081
   12CHTO  H212 4674   5.705   1.421   0.055
   12CHTO   O75 4675   5.231   1.234   0.251
   12CHTO  C112 4676   5.195   1.086   0.192
   12CHTO  H216 4677   5.278   1.051   0.128
   12CHTO   O73 4678   5.073   1.099   0.117
   12CHTO  C113 4679   5.020   0.976   0.064
   12CHTO  H217 4680   5.097   0.927   0.001
   12CHTO  C124 4681   4.900   1.009   2.848
   12CHTO   O83 4682   4.936   1.088   2.734
   12CHTO  H204 4683   4.961   1.174   2.761
   12CHTO  C109 4684   4.981   0.883   0.182
   12CHTO  H213 4685   4.908   0.939   0.243
   12CHTO  C110 4686   5.109   0.853   0.265
   12CHTO  H214 4687   5.179   0.796   0.203
   12CHTO   O78 4688   5.074   0.768   0.376
   12CHTO  H200 4689   5.014   0.812   0.434
   12CHTO  C111 4690   5.176   0.985   0.313
   12CHTO  H215 4691   5.109   1.034   0.385
   12CHTO   N19 4692   5.306   0.966   0.382
   12CHTO  H207 4693   5.302   1.004   0.482
   12CHTO  H208 4694   5.334   0.861   0.384
   12CHTO   O74 4695   4.920   0.760   0.133
   12CHTO  C115 4696   4.779   0.728   0.205
   12CHTO  H219 4697   4.763   0.791   0.293
   12CHTO   O76 4698   4.659   0.759   0.112
   12CHTO  C122 4699   4.659   0.679   2.867
   12CHTO  H226 4700   4.746   0.706   2.809
   12CHTO  C126 4701   4.535   0.722   2.782
   12CHTO   O85 4702   4.532   0.659   2.653
   12CHTO  H206 4703   4.459   0.691   2.604
   12CHTO  C121 4704   4.659   0.523   0.026
   12CHTO  H225 4705   4.566   0.478   2.859
   12CHTO   O81 4706   4.769   0.461   2.833
   12CHTO  H202 4707   4.762   0.368   2.838
   12CHTO  C119 4708   4.664   0.495   0.180
   12CHTO  H223 4709   4.570   0.534   0.219
   12CHTO  C117 4710   4.781   0.575   0.250
   12CHTO  H221 4711   4.881   0.540   0.223
   12CHTO   N20 4712   4.773   0.561   0.399
   12CHTO  H209 4713   4.771   0.657   0.448
   12CHTO  H210 4714   4.856   0.502   0.436
   12CHTO   O80 4715   4.653   0.338   0.216
   12CHTO  C103 4716   4.520   0.282   0.278
   12CHTO  H190 4717   4.477   0.354   0.348
   12CHTO  C101 4718   4.408   0.238   0.176
   12CHTO  H188 4719   4.452   0.168   0.105
   12CHTO   O68 4720   4.360   0.363   0.097
   12CHTO  H168 4721   4.300   0.337   0.030
   12CHTO   C99 4722   4.288   0.165   0.253
   12CHTO  H186 4723   4.239   0.239   0.321
   12CHTO   N17 4724   4.181   0.113   0.161
   12CHTO  H174 4725   4.145   0.192   0.098
   12CHTO  H175 4726   4.100   0.071   0.219
   12CHTO   C97 4727   4.342   0.052   0.345
   12CHTO  H184 4728   4.377   9.969   0.282
   12CHTO   O64 4729   4.447   0.103   0.430
   12CHTO  C104 4730   4.562   0.156   0.362
   12CHTO  H191 4731   4.605   0.081   0.295
   12CHTO  C108 4732   4.671   0.186   0.466
   12CHTO   O71 4733   4.629   0.280   0.565
   12CHTO  H171 4734   4.562   0.242   0.619
   12CHTO   O62 4735   4.241   0.005   0.437
   12CHTO   C91 4736   4.272   9.884   0.510
   12CHTO  H178 4737   4.373   9.851   0.484
   12CHTO   C92 4738   4.176   9.770   0.464
   12CHTO  H179 4739   4.073   9.806   0.472
   12CHTO   O66 4740   4.197   9.747   0.324
   12CHTO  H166 4741   4.133   9.686   0.291
   12CHTO   C93 4742   4.196   9.635   0.546
   12CHTO  H180 4743   4.283   9.584   0.502
   12CHTO   N16 4744   4.081   9.542   0.527
   12CHTO  H172 4745   4.116   9.446   0.491
   12CHTO  H173 4746   4.024   9.530   0.618
   12CHTO   C94 4747   4.225   9.659   0.700
   12CHTO  H181 4748   4.134   9.678   0.756
   12CHTO   O61 4749   4.312   9.771   0.722
   12CHTO   C95 4750   4.263   9.894   0.666
   12CHTO  H182 4751   4.160   9.909   0.699
   12CHTO  C106 4752   4.348   0.012   0.726
   12CHTO   O69 4753   4.292   0.140   0.693
   12CHTO  H169 4754   4.299   0.155   0.601
   12CHTO   O63 4755   4.299   9.525   0.757
   12CHTO   C96 4756   4.351   9.535   0.906
   12CHTO  H183 4757   4.332   9.635   0.945
   12CHTO   C98 4758   4.502   9.505   0.919
   12CHTO  H185 4759   4.524   9.406   0.875
   12CHTO   O67 4760   4.573   9.600   0.837
   12CHTO  H167 4761   4.665   9.580   0.836
   12CHTO  C102 4762   4.554   9.513   1.071
   12CHTO  H189 4763   4.564   9.620   1.092
   12CHTO   N18 4764   4.689   9.456   1.092
   12CHTO  H176 4765   4.718   9.467   1.195
   12CHTO  H177 4766   4.690   9.352   1.065
   12CHTO  C105 4767   4.447   9.455   1.169
   12CHTO  H192 4768   4.496   9.387   1.240
   12CHTO   O65 4769   4.341   9.379   1.108
   12CHTO  C100 4770   4.271   9.430   0.993
   12CHTO  H187 4771   4.252   9.343   0.929
   12CHTO  C107 4772   4.131   9.485   1.034
   12CHTO   O70 4773   4.137   9.596   1.124
   12CHTO  H170 4774   4.170   9.568   1.207
   12CHTO   O57 4775   4.393   9.585   1.251
   12CHTO   C85 4776   4.391   9.594   1.395
   12CHTO  H157 4777   4.318   9.675   1.416
   12CHTO   C83 4778   4.528   9.651   1.447
   12CHTO  H155 4779   4.540   9.751   1.406
   12CHTO   O56 4780   4.637   9.572   1.396
   12CHTO  H135 4781   4.719   9.612   1.419
   12CHTO   C81 4782   4.524   9.661   1.602
   12CHTO  H153 4783   4.439   9.723   1.630
   12CHTO   N14 4784   4.640   9.735   1.660
   12CHTO  H141 4785   4.689   9.677   1.736
   12CHTO  H142 4786   4.712   9.759   1.584
   12CHTO   C79 4787   4.503   9.518   1.664
   12CHTO  H151 4788   4.496   9.530   1.772
   12CHTO   O52 4789   4.375   9.464   1.619
   12CHTO   C86 4790   4.356   9.460   1.473
   12CHTO  H158 4791   4.418   9.375   1.440
   12CHTO   C90 4792   4.209   9.422   1.443
   12CHTO   O60 4793   4.174   9.297   1.504
   12CHTO  H138 4794   4.171   9.307   1.598
   12CHTO   O50 4795   4.608   9.425   1.634
   12CHTO   C73 4796   4.652   9.312   1.712
   12CHTO  H145 4797   4.565   9.261   1.756
   12CHTO   C74 4798   4.745   9.359   1.828
   12CHTO  H146 4799   4.688   9.431   1.889
   12CHTO   O54 4800   4.774   9.247   1.913
   12CHTO  H133 4801   4.696   9.220   1.959
   12CHTO   C75 4802   4.874   9.425   1.765
   12CHTO  H147 4803   4.843   9.513   1.706
   12CHTO   N13 4804   4.968   9.477   1.866
   12CHTO  H139 4805   5.054   9.521   1.817
   12CHTO  H140 4806   4.920   9.554   1.925
   12CHTO   C76 4807   4.944   9.323   1.662
   12CHTO  H148 4808   4.984   9.239   1.720
   12CHTO   O49 4809   4.847   9.271   1.564
   12CHTO   C77 4810   4.730   9.212   1.623
   12CHTO  H149 4811   4.761   9.127   1.685
   12CHTO   C88 4812   4.639   9.153   1.515
   12CHTO   O58 4813   4.696   9.030   1.458
   12CHTO  H136 4814   4.774   9.050   1.411
   12CHTO   O51 4815   5.060   9.402   1.576
   12CHTO   C78 4816   5.153   9.309   1.482
   12CHTO  H150 4817   5.096   9.222   1.443
   12CHTO   C80 4818   5.274   9.258   1.563
   12CHTO  H152 4819   5.321   9.344   1.615
   12CHTO   O55 4820   5.223   9.168   1.663
   12CHTO  H134 4821   5.291   9.141   1.720
   12CHTO   C84 4822   5.382   9.187   1.472
   12CHTO  H156 4823   5.337   9.095   1.434
   12CHTO   N15 4824   5.505   9.146   1.548
   12CHTO  H143 4825   5.574   9.098   1.484
   12CHTO  H144 4826   5.478   9.080   1.628
   12CHTO   C87 4827   5.418   9.275   1.350
   12CHTO  H159 4828   5.472   9.365   1.383
   12CHTO   O53 4829   5.288   9.315   1.277
   12CHTO   C82 4830   5.199   9.393   1.360
   12CHTO  H154 4831   5.249   9.485   1.392
   12CHTO   C89 4832   5.079   9.434   1.272
   12CHTO   O59 4833   4.995   9.531   1.335
   12CHTO  H137 4834   4.921   9.549   1.280
   12CHTO   O45 4835   5.515   9.186   1.243
   12CHTO   C67 4836   5.601   9.248   1.145
   12CHTO  H124 4837   5.677   9.175   1.120
   12CHTO   C65 4838   5.522   9.284   1.014
   12CHTO  H122 4839   5.418   9.302   1.044
   12CHTO   O44 4840   5.527   9.166   0.932
   12CHTO  H102 4841   5.470   9.176   0.858
   12CHTO   C63 4842   5.569   9.418   0.945
   12CHTO  H120 4843   5.531   9.502   1.004
   12CHTO   N11 4844   5.511   9.448   0.810
   12CHTO  H108 4845   5.405   9.441   0.814
   12CHTO  H109 4846   5.549   9.378   0.739
   12CHTO   C61 4847   5.726   9.426   0.954
   12CHTO  H118 4848   5.755   9.524   0.912
   12CHTO   O40 4849   5.774   9.423   1.092
   12CHTO   C68 4850   5.682   9.375   1.196
   12CHTO  H125 4851   5.611   9.457   1.221
   12CHTO   C72 4852   5.765   9.348   1.324
   12CHTO   O48 4853   5.864   9.246   1.309
   12CHTO  H105 4854   5.911   9.236   1.389
   12CHTO   O38 4855   5.791   9.319   0.880
   12CHTO   C55 4856   5.924   9.348   0.833
   12CHTO  H112 4857   5.966   9.433   0.889
   12CHTO   C56 4858   5.923   9.375   0.676
   12CHTO  H113 4859   5.882   9.285   0.628
   12CHTO   O42 4860   5.832   9.482   0.646
   12CHTO  H100 4861   5.825   9.494   0.553
   12CHTO   C57 4862   6.069   9.406   0.624
   12CHTO  H114 4863   6.098   9.502   0.666
   12CHTO   N10 4864   6.080   9.418   0.477
   12CHTO  H106 4865   6.007   9.355   0.428
   12CHTO  H107 4866   6.064   9.521   0.447
   12CHTO   C58 4867   6.168   9.298   0.677
   12CHTO  H115 4868   6.152   9.202   0.622
   12CHTO   O37 4869   6.153   9.275   0.818
   12CHTO   C59 4870   6.023   9.230   0.857
   12CHTO  H116 4871   5.994   9.142   0.799
   12CHTO   C70 4872   6.031   9.189   1.005
   12CHTO   O46 4873   5.918   9.112   1.047
   12CHTO  H103 4874   5.928   9.089   1.137
   12CHTO   O39 4875   6.323   9.349   0.656
   12CHTO   C60 4876   6.420   9.245   0.683
   12CHTO  H117 4877   6.373   9.165   0.740
   12CHTO   C62 4878   6.473   9.184   0.550
   12CHTO  H119 4879   6.383   9.145   0.496
   12CHTO   O43 4880   6.534   9.286   0.470
   12CHTO  H101 4881   6.561   9.251   0.388
   12CHTO   C66 4882   6.570   9.061   0.585
   12CHTO  H123 4883   6.514   8.987   0.641
   12CHTO   N12 4884   6.618   8.989   0.464
   12CHTO  H110 4885   6.534   8.948   0.410
   12CHTO  H111 4886   6.675   9.056   0.401
   12CHTO   C69 4887   6.687   9.107   0.676
   12CHTO  H126 4888   6.757   9.173   0.620
   12CHTO   O41 4889   6.630   9.185   0.801
   12CHTO   C64 4890   6.538   9.299   0.768
   12CHTO  H121 4891   6.593   9.377   0.712
   12CHTO   C71 4892   6.491   9.360   0.903
   12CHTO   O47 4893   6.426   9.486   0.884
   12CHTO  H104 4894   6.344   9.474   0.841
   12CHTO   O34 4895   6.764   8.987   0.728
   12CHTO   C49 4896   6.846   8.899   0.815
   12CHTO   H91 4897   6.950   8.932   0.805
   12CHTO   C47 4898   6.830   8.755   0.764
   12CHTO   H89 4899   6.900   8.694   0.827
   12CHTO   O33 4900   6.872   8.743   0.627
   12CHTO   H70 4901   6.964   8.761   0.619
   12CHTO   C45 4902   6.676   8.705   0.781
   12CHTO   H87 4903   6.622   8.729   0.688
   12CHTO    N8 4904   6.677   8.558   0.798
   12CHTO   H75 4905   6.624   8.530   0.888
   12CHTO   H76 4906   6.631   8.510   0.712
   12CHTO   C43 4907   6.601   8.791   0.895
   12CHTO   H85 4908   6.568   8.883   0.846
   12CHTO   O29 4909   6.692   8.818   1.003
   12CHTO   C50 4910   6.803   8.903   0.966
   12CHTO   H92 4911   6.777   9.007   0.992
   12CHTO   C54 4912   6.919   8.870   1.062
   12CHTO   O36 4913   7.028   8.961   1.048
   12CHTO   H72 4914   7.096   8.939   1.109
   12CHTO   O27 4915   6.479   8.732   0.943
   12CHTO   C37 4916   6.345   8.685   0.922
   12CHTO   H79 4917   6.340   8.627   0.828
   12CHTO   C38 4918   6.304   8.589   1.038
   12CHTO   H80 4919   6.325   8.640   1.133
   12CHTO   O31 4920   6.388   8.472   1.028
   12CHTO   H68 4921   6.374   8.416   1.102
   12CHTO   C39 4922   6.151   8.552   1.031
   12CHTO   H81 4923   6.135   8.492   0.941
   12CHTO    N7 4924   6.105   8.468   1.148
   12CHTO   H73 4925   6.119   8.523   1.240
   12CHTO   H74 4926   6.001   8.441   1.136
   12CHTO   C40 4927   6.064   8.683   1.016
   12CHTO   H82 4928   6.072   8.741   1.108
   12CHTO   O26 4929   6.108   8.757   0.901
   12CHTO   C41 4930   6.246   8.804   0.912
   12CHTO   H83 4931   6.256   8.867   1.002
   12CHTO   C52 4932   6.273   8.895   0.789
   12CHTO   O35 4933   6.258   8.824   0.659
   12CHTO   H71 4934   6.324   8.759   0.651
   12CHTO   O28 4935   5.926   8.655   0.988
   12CHTO   C42 4936   5.822   8.752   1.021
   12CHTO   H84 4937   5.870   8.850   1.013
   12CHTO   C44 4938   5.764   8.744   1.166
   12CHTO   H86 4939   5.723   8.644   1.181
   12CHTO   O32 4940   5.874   8.762   1.257
   12CHTO   H69 4941   5.845   8.750   1.345
   12CHTO   C48 4942   5.649   8.849   1.190
   12CHTO   H90 4943   5.692   8.949   1.185
   12CHTO    N9 4944   5.590   8.837   1.328
   12CHTO   H77 4945   5.549   8.738   1.342
   12CHTO   H78 4946   5.665   8.858   1.402
   12CHTO   C51 4947   5.539   8.837   1.077
   12CHTO   H93 4948   5.492   8.739   1.085
   12CHTO   O30 4949   5.602   8.857   0.950
   12CHTO   C46 4950   5.706   8.750   0.916
   12CHTO   H88 4951   5.657   8.653   0.919
   12CHTO   C53 4952   5.758   8.778   0.773
   12CHTO   O72 4953   5.816   8.908   0.759
   12CHTO  H199 4954   5.750   8.974   0.766
   12CHTO   O22 4955   5.441   8.943   1.084
   12CHTO   C31 4956   5.296   8.919   1.066
   12CHTO   H59 4957   5.283   8.810   1.053
   12CHTO   C29 4958   5.215   8.960   1.191
   12CHTO   H57 4959   5.238   9.066   1.211
   12CHTO   O21 4960   5.264   8.884   1.303
   12CHTO   H37 4961   5.227   8.917   1.383
   12CHTO   C27 4962   5.059   8.944   1.171
   12CHTO   H55 4963   5.035   8.837   1.165
   12CHTO    N5 4964   4.981   9.002   1.284
   12CHTO   H43 4965   4.876   8.982   1.271
   12CHTO   H44 4966   4.998   9.109   1.290
   12CHTO   C25 4967   5.015   9.007   1.034
   12CHTO   H53 4968   5.029   9.116   1.038
   12CHTO   O17 4969   5.097   8.954   0.926
   12CHTO   C32 4970   5.237   8.987   0.939
   12CHTO   H60 4971   5.248   9.095   0.947
   12CHTO   C36 4972   5.308   8.940   0.810
   12CHTO   O25 4973   5.259   9.009   0.694
   12CHTO   H40 4974   5.304   8.979   0.618
   12CHTO   O15 4975   4.864   8.975   1.001
   12CHTO   C19 4976   4.767   9.062   0.937
   12CHTO   H47 4977   4.779   9.159   0.988
   12CHTO   C20 4978   4.788   9.084   0.783
   12CHTO   H48 4979   4.780   8.990   0.727
   12CHTO   O19 4980   4.921   9.135   0.766
   12CHTO   H35 4981   4.941   9.143   0.675
   12CHTO   C21 4982   4.678   9.183   0.726
   12CHTO   H49 4983   4.687   9.279   0.779
   12CHTO    N4 4984   4.695   9.212   0.581
   12CHTO   H41 4985   4.618   9.282   0.549
   12CHTO   H42 4986   4.686   9.121   0.524
   12CHTO   C22 4987   4.539   9.123   0.761
   12CHTO   H50 4988   4.534   9.024   0.715
   12CHTO   O14 4989   4.527   9.110   0.903
   12CHTO   C23 4990   4.619   9.018   0.963
   12CHTO   H51 4991   4.598   8.919   0.920
   12CHTO   C34 4992   4.588   9.008   1.113
   12CHTO   O23 4993   4.594   9.135   1.178
   12CHTO   H38 4994   4.576   9.124   1.270
   12CHTO   O16 4995   4.426   9.204   0.722
   12CHTO   C24 4996   4.311   9.118   0.640
   12CHTO   H52 4997   4.345   9.017   0.616
   12CHTO   C26 4998   4.276   9.191   0.509
   12CHTO   H54 4999   4.242   9.294   0.533
   12CHTO   O20 5000   4.396   9.200   0.430
   12CHTO   H36 5001   4.381   9.254   0.354
   12CHTO   C30 5002   4.162   9.117   0.432
   12CHTO   H58 5003   4.200   9.020   0.395
   12CHTO    N6 5004   4.119   9.191   0.311
   12CHTO   H45 5005   4.041   9.137   0.259
   12CHTO   H46 5006   4.202   9.204   0.244
   12CHTO   C33 5007   4.042   9.085   0.527
   12CHTO   H61 5008   3.989   9.179   0.551
   12CHTO   O18 5009   4.088   9.027   0.650
   12CHTO   C28 5010   4.183   9.103   0.726
   12CHTO   H56 5011   4.144   9.203   0.749
   12CHTO   C35 5012   4.211   9.027   0.857
   12CHTO   O24 5013   4.093   9.008   0.937
   12CHTO   H39 5014   4.036   8.947   0.894
   12CHTO    O9 5015   3.942   9.001   0.464
   12CHTO   C13 5016   3.986   8.842   0.443
   12CHTO   H26 5017   4.095   8.837   0.426
   12CHTO   C11 5018   3.906   8.783   0.320
   12CHTO   H24 5019   3.938   8.837   0.230
   12CHTO    O8 5020   3.764   8.806   0.336
   12CHTO    H3 5021   3.718   8.778   0.259
   12CHTO    C9 5022   3.945   8.633   0.304
   12CHTO   H22 5023   4.055   8.633   0.295
   12CHTO    N2 5024   3.896   8.570   0.180
   12CHTO   H10 5025   3.978   8.548   0.113
   12CHTO   H11 5026   3.822   8.632   0.131
   12CHTO    C7 5027   3.907   8.554   0.435
   12CHTO   H20 5028   3.954   8.455   0.420
   12CHTO    O4 5029   3.962   8.614   0.554
   12CHTO   C14 5030   3.960   8.756   0.575
   12CHTO   H27 5031   4.045   8.777   0.644
   12CHTO   C18 5032   3.831   8.798   0.650
   12CHTO   O13 5033   3.828   8.742   0.782
   12CHTO    H7 5034   3.749   8.768   0.825
   12CHTO    O2 5035   3.743   8.535   0.453
   12CHTO    C1 5036   3.698   8.461   0.569
   12CHTO   H14 5037   3.732   8.513   0.660
   12CHTO    C2 5038   3.745   8.309   0.576
   12CHTO   H15 5039   3.722   8.265   0.478
   12CHTO    O6 5040   3.887   8.304   0.600
   12CHTO    H1 5041   3.933   8.337   0.525
   12CHTO    C3 5042   3.668   8.229   0.693
   12CHTO   H16 5043   3.704   8.266   0.790
   12CHTO    N1 5044   3.697   8.081   0.689
   12CHTO    H8 5045   3.645   8.031   0.769
   12CHTO    H9 5046   3.804   8.064   0.699
   12CHTO    C4 5047   3.514   8.259   0.689
   12CHTO   H17 5048   3.471   8.212   0.600
   12CHTO    O1 5049   3.490   8.401   0.687
   12CHTO    C5 5050   3.542   8.467   0.571
   12CHTO   H18 5051   3.505   8.417   0.481
   12CHTO   C16 5052   3.490   8.613   0.571
   12CHTO   O11 5053   3.347   8.617   0.563
   12CHTO    H5 5054   3.317   8.706   0.568
   12CHTO    O3 5055   3.448   8.212   0.808
   12CHTO    C6 5056   3.307   8.177   0.793
   12CHTO   H19 5057   3.262   8.219   0.703
   12CHTO    C8 5058   3.292   8.021   0.787
   12CHTO   H21 5059   3.348   7.978   0.870
   12CHTO    O7 5060   3.351   7.978   0.662
   12CHTO    H2 5061   3.351   7.885   0.657
   12CHTO   C12 5062   3.140   7.977   0.799
   12CHTO   H25 5063   3.090   8.012   0.706
   12CHTO    N3 5064   3.127   7.828   0.803
   12CHTO   H12 5065   3.023   7.801   0.811
   12CHTO   H13 5066   3.170   7.785   0.714
   12CHTO   C15 5067   3.075   8.050   0.922
   12CHTO   H28 5068   3.117   8.015   1.017
   12CHTO   O10 5069   2.922   8.035   0.927
   12CHTO    H4 5070   2.899   7.945   0.939
   12CHTO    O5 5071   3.090   8.192   0.910
   12CHTO   C10 5072   3.228   8.234   0.914
   12CHTO   H23 5073   3.272   8.200   1.007
   12CHTO   C17 5074   3.232   8.388   0.914
   12CHTO   O12 5075   3.169   8.442   1.031
   12CHTO    H6 5076   3.173   8.536   1.027
   13CHTO  H203 5077   7.305   4.607   2.544
   13CHTO   O82 5078   7.222   4.565   2.530
   13CHTO  C123 5079   7.118   4.663   2.515
   13CHTO  H227 5080   7.144   4.728   2.430
   13CHTO   O77 5081   7.001   4.583   2.482
   13CHTO  C118 5082   6.883   4.660   2.455
   13CHTO  H222 5083   6.904   4.736   2.378
   13CHTO  C125 5084   6.776   4.559   2.398
   13CHTO   O84 5085   6.671   4.628   2.330
   13CHTO  H205 5086   6.610   4.566   2.296
   13CHTO  C114 5087   6.841   4.730   2.586
   13CHTO  H218 5088   6.829   4.654   2.664
   13CHTO  C116 5089   6.956   4.826   2.631
   13CHTO  H220 5090   6.968   4.906   2.554
   13CHTO   O79 5091   6.917   4.892   2.752
   13CHTO  H201 5092   6.980   4.957   2.776
   13CHTO  C120 5093   7.091   4.746   2.646
   13CHTO  H224 5094   7.077   4.677   2.733
   13CHTO   N21 5095   7.205   4.836   2.680
   13CHTO  H211 5096   7.279   4.782   2.738
   13CHTO  H212 5097   7.249   4.878   2.591
   13CHTO   O75 5098   6.717   4.798   2.562
   13CHTO  C112 5099   6.588   4.743   2.656
   13CHTO  H216 5100   6.627   4.687   2.743
   13CHTO   O73 5101   6.506   4.660   2.571
   13CHTO  C113 5102   6.387   4.609   2.632
   13CHTO  H217 5103   6.414   4.551   2.723
   13CHTO  C124 5104   6.321   4.511   2.534
   13CHTO   O83 5105   6.401   4.395   2.508
   13CHTO  H204 5106   6.478   4.420   2.460
   13CHTO  C109 5107   6.293   4.726   2.670
   13CHTO  H213 5108   6.269   4.780   2.577
   13CHTO  C110 5109   6.368   4.820   2.769
   13CHTO  H214 5110   6.386   4.766   2.862
   13CHTO   O78 5111   6.282   4.932   2.799
   13CHTO  H200 5112   6.209   4.904   2.850
   13CHTO  C111 5113   6.503   4.867   2.707
   13CHTO  H215 5114   6.482   4.931   2.621
   13CHTO   N19 5115   6.585   4.948   2.801
   13CHTO  H207 5116   6.676   4.980   2.753
   13CHTO  H208 5117   6.609   4.890   0.015
   13CHTO   O74 5118   6.169   4.677   2.729
   13CHTO  C115 5119   6.032   4.737   2.659
   13CHTO  H219 5120   6.026   4.845   2.669
   13CHTO   O76 5121   6.030   4.708   2.502
   13CHTO  C122 5122   5.911   4.746   2.432
   13CHTO  H226 5123   5.920   4.705   2.331
   13CHTO  C126 5124   5.908   4.902   2.413
   13CHTO   O85 5125   5.802   4.945   2.327
   13CHTO  H206 5126   5.819   4.918   2.239
   13CHTO  C121 5127   5.780   4.689   2.500
   13CHTO  H225 5128   5.693   4.737   2.451
   13CHTO   O81 5129   5.771   4.548   2.473
   13CHTO  H202 5130   5.842   4.502   2.513
   13CHTO  C119 5131   5.774   4.718   2.653
   13CHTO  H223 5132   5.765   4.826   2.663
   13CHTO  C117 5133   5.906   4.674   2.728
   13CHTO  H221 5134   5.925   4.566   2.730
   13CHTO   N20 5135   5.899   4.715   2.873
   13CHTO  H209 5136   5.894   4.823   0.006
   13CHTO  H210 5137   5.986   4.678   0.052
   13CHTO   O80 5138   5.634   4.666   2.721
   13CHTO  C103 5139   5.499   4.757   2.714
   13CHTO  H190 5140   5.439   4.737   2.803
   13CHTO  C101 5141   5.516   4.913   2.703
   13CHTO  H188 5142   5.575   4.937   2.614
   13CHTO   O68 5143   5.593   4.965   2.830
   13CHTO  H168 5144   5.680   4.929   2.832
   13CHTO   C99 5145   5.372   4.982   2.689
   13CHTO  H186 5146   5.315   4.963   2.781
   13CHTO   N17 5147   5.378   5.131   2.672
   13CHTO  H174 5148   5.430   5.175   2.756
   13CHTO  H175 5149   5.426   5.156   2.579
   13CHTO   C97 5150   5.291   4.915   2.574
   13CHTO  H184 5151   5.335   4.945   2.477
   13CHTO   O64 5152   5.288   4.772   2.589
   13CHTO  C104 5153   5.416   4.707   2.590
   13CHTO  H191 5154   5.472   4.727   2.499
   13CHTO  C108 5155   5.395   4.555   2.595
   13CHTO   O71 5156   5.326   4.507   2.479
   13CHTO  H171 5157   5.236   4.535   2.481
   13CHTO   O62 5158   5.152   4.952   2.579
   13CHTO   C91 5159   5.076   4.954   2.456
   13CHTO  H178 5160   5.132   4.900   2.380
   13CHTO   C92 5161   5.066   5.103   2.408
   13CHTO  H179 5162   5.041   5.166   2.494
   13CHTO   O66 5163   5.197   5.146   2.366
   13CHTO  H166 5164   5.226   5.096   2.293
   13CHTO   C93 5165   4.959   5.124   2.292
   13CHTO  H180 5166   4.994   5.068   2.204
   13CHTO   N16 5167   4.943   5.265   2.248
   13CHTO  H172 5168   4.968   5.274   2.143
   13CHTO  H173 5169   5.003   5.331   2.308
   13CHTO   C94 5170   4.823   5.062   2.341
   13CHTO  H181 5171   4.791   5.104   2.436
   13CHTO   O61 5172   4.845   4.921   2.360
   13CHTO   C95 5173   4.933   4.887   2.469
   13CHTO  H182 5174   4.887   4.918   2.563
   13CHTO  C106 5175   4.948   4.731   2.473
   13CHTO   O69 5176   4.822   4.667   2.499
   13CHTO  H169 5177   4.794   4.684   2.586
   13CHTO   O63 5178   4.702   5.074   2.228
   13CHTO   C96 5179   4.562   5.142   2.283
   13CHTO  H183 5180   4.488   5.129   2.204
   13CHTO   C98 5181   4.571   5.294   2.315
   13CHTO  H185 5182   4.654   5.312   2.385
   13CHTO   O67 5183   4.607   5.362   2.193
   13CHTO  H167 5184   4.537   5.355   2.130
   13CHTO  C102 5185   4.433   5.352   2.376
   13CHTO  H189 5186   4.360   5.347   2.294
   13CHTO   N18 5187   4.438   5.495   2.416
   13CHTO  H176 5188   4.342   5.526   2.453
   13CHTO  H177 5189   4.513   5.509   2.494
   13CHTO  C105 5190   4.385   5.259   2.491
   13CHTO  H192 5191   4.453   5.269   2.576
   13CHTO   O65 5192   4.382   5.121   2.453
   13CHTO  C100 5193   4.508   5.066   2.410
   13CHTO  H187 5194   4.580   5.077   2.493
   13CHTO  C107 5195   4.490   4.914   2.382
   13CHTO   O70 5196   4.458   4.843   2.502
   13CHTO  H170 5197   4.374   4.869   2.534
   13CHTO   O57 5198   4.231   5.311   2.536
   13CHTO   C85 5199   4.114   5.262   2.468
   13CHTO  H157 5200   4.150   5.206   2.379
   13CHTO   C83 5201   4.032   5.383   2.411
   13CHTO  H155 5202   4.096   5.438   2.342
   13CHTO   O56 5203   3.998   5.474   2.518
   13CHTO  H135 5204   4.076   5.512   2.554
   13CHTO   C81 5205   3.908   5.329   2.334
   13CHTO  H153 5206   3.944   5.264   2.254
   13CHTO   N14 5207   3.832   5.435   2.263
   13CHTO  H141 5208   3.898   5.490   2.198
   13CHTO  H142 5209   3.754   5.391   2.204
   13CHTO   C79 5210   3.818   5.242   2.430
   13CHTO  H151 5211   3.741   5.196   2.368
   13CHTO   O52 5212   3.897   5.132   2.486
   13CHTO   C86 5213   4.017   5.175   2.558
   13CHTO  H158 5214   3.978   5.233   2.645
   13CHTO   C90 5215   4.086   5.050   2.616
   13CHTO   O60 5216   4.187   5.085   2.712
   13CHTO  H138 5217   4.224   5.007   2.748
   13CHTO   O50 5218   3.754   5.315   2.536
   13CHTO   C73 5219   3.618   5.305   2.582
   13CHTO  H145 5220   3.560   5.240   2.514
   13CHTO   C74 5221   3.552   5.446   2.583
   13CHTO  H146 5222   3.562   5.488   2.481
   13CHTO   O54 5223   3.411   5.428   2.606
   13CHTO  H133 5224   3.367   5.511   2.603
   13CHTO   C75 5225   3.623   5.536   2.691
   13CHTO  H147 5226   3.729   5.547   2.664
   13CHTO   N13 5227   3.570   5.675   2.699
   13CHTO  H139 5228   3.465   5.672   2.724
   13CHTO  H140 5229   3.581   5.724   2.603
   13CHTO   C76 5230   3.617   5.462   2.833
   13CHTO  H148 5231   3.511   5.449   2.857
   13CHTO   O49 5232   3.678   5.329   2.822
   13CHTO   C77 5233   3.613   5.244   2.726
   13CHTO  H149 5234   3.509   5.231   2.755
   13CHTO   C88 5235   3.676   5.104   2.736
   13CHTO   O58 5236   3.611   5.008   2.645
   13CHTO  H136 5237   3.652   4.924   2.653
   13CHTO   O51 5238   3.695   5.547   0.080
   13CHTO   C78 5239   3.855   5.521   0.115
   13CHTO  H150 5240   3.889   5.599   0.187
   13CHTO   C80 5241   3.946   5.528   2.864
   13CHTO  H152 5242   3.915   5.449   2.792
   13CHTO   O55 5243   3.923   5.658   2.805
   13CHTO  H134 5244   3.954   5.726   2.861
   13CHTO   C84 5245   4.096   5.506   0.033
   13CHTO  H156 5246   4.119   5.583   0.107
   13CHTO   N15 5247   4.193   5.524   2.794
   13CHTO  H143 5248   4.248   5.434   2.775
   13CHTO  H144 5249   4.262   5.603   2.816
   13CHTO   C87 5250   4.109   5.368   0.102
   13CHTO  H159 5251   4.085   5.288   0.032
   13CHTO   O53 5252   4.010   5.365   0.225
   13CHTO   C82 5253   3.872   5.386   0.188
   13CHTO  H154 5254   3.838   5.303   0.126
   13CHTO   C89 5255   3.784   5.389   0.314
   13CHTO   O59 5256   3.787   5.264   0.384
   13CHTO  H137 5257   3.732   5.269   0.460
   13CHTO   O45 5258   4.264   5.343   0.167
   13CHTO   C67 5259   4.328   5.222   0.125
   13CHTO  H124 5260   4.255   5.150   0.089
   13CHTO   C65 5261   4.431   5.252   0.011
   13CHTO  H122 5262   4.378   5.313   2.812
   13CHTO   O44 5263   4.473   5.130   2.821
   13CHTO  H102 5264   4.400   5.087   2.780
   13CHTO   C63 5265   4.546   5.342   0.069
   13CHTO  H120 5266   4.501   5.429   0.116
   13CHTO   N11 5267   4.635   5.405   2.840
   13CHTO  H108 5268   4.693   5.330   2.791
   13CHTO  H109 5269   4.576   5.459   2.769
   13CHTO   C61 5270   4.622   5.263   0.183
   13CHTO  H118 5271   4.686   5.338   0.232
   13CHTO   O40 5272   4.529   5.215   0.285
   13CHTO   C68 5273   4.401   5.153   0.248
   13CHTO  H125 5274   4.334   5.165   0.336
   13CHTO   C72 5275   4.423   5.000   0.230
   13CHTO   O48 5276   4.303   4.926   0.206
   13CHTO  H105 5277   4.267   4.949   0.123
   13CHTO   O38 5278   4.702   5.153   0.134
   13CHTO   C55 5279   4.827   5.114   0.197
   13CHTO  H112 5280   4.867   5.036   0.129
   13CHTO   C56 5281   4.808   5.059   0.345
   13CHTO  H113 5282   4.752   5.135   0.402
   13CHTO   O42 5283   4.724   4.942   0.340
   13CHTO  H100 5284   4.766   4.874   0.291
   13CHTO   C57 5285   4.947   5.028   0.414
   13CHTO  H114 5286   4.992   4.944   0.360
   13CHTO   N10 5287   4.935   4.987   0.556
   13CHTO  H106 5288   4.842   4.935   0.573
   13CHTO  H107 5289   5.017   4.922   0.583
   13CHTO   C58 5290   5.039   5.151   0.400
   13CHTO  H115 5291   4.991   5.238   0.451
   13CHTO   O37 5292   5.056   5.183   0.261
   13CHTO   C59 5293   4.936   5.227   0.194
   13CHTO  H116 5294   4.899   5.318   0.242
   13CHTO   C70 5295   4.973   5.260   0.049
   13CHTO   O46 5296   5.064   5.371   0.038
   13CHTO  H103 5297   5.021   5.450   0.066
   13CHTO   O39 5298   5.193   5.122   0.464
   13CHTO   C60 5299   5.264   5.241   0.503
   13CHTO  H117 5300   5.261   5.313   0.422
   13CHTO   C62 5301   5.203   5.307   0.631
   13CHTO  H119 5302   5.097   5.331   0.607
   13CHTO   O43 5303   5.205   5.211   0.739
   13CHTO  H101 5304   5.146   5.140   0.721
   13CHTO   C66 5305   5.280   5.443   0.666
   13CHTO  H123 5306   5.275   5.509   0.580
   13CHTO   N12 5307   5.216   5.518   0.777
   13CHTO  H110 5308   5.270   5.609   0.796
   13CHTO  H111 5309   5.212   5.456   0.866
   13CHTO   C69 5310   5.430   5.412   0.694
   13CHTO  H126 5311   5.437   5.343   0.781
   13CHTO   O41 5312   5.491   5.341   0.567
   13CHTO   C64 5313   5.414   5.209   0.530
   13CHTO  H121 5314   5.421   5.138   0.615
   13CHTO   C71 5315   5.481   5.142   0.408
   13CHTO   O47 5316   5.618   5.110   0.436
   13CHTO  H104 5317   5.668   5.189   0.444
   13CHTO   O34 5318   5.515   5.547   0.728
   13CHTO   C49 5319   5.648   5.523   0.805
   13CHTO   H91 5320   5.678   5.420   0.784
   13CHTO   C47 5321   5.625   5.541   0.956
   13CHTO   H89 5322   5.722   5.510   1.003
   13CHTO   O33 5323   5.522   5.451   1.003
   13CHTO   H70 5324   5.550   5.362   0.993
   13CHTO   C45 5325   5.590   5.694   0.994
   13CHTO   H87 5326   5.482   5.709   0.980
   13CHTO    N8 5327   5.622   5.715   1.137
   13CHTO   H75 5328   5.588   5.812   1.169
   13CHTO   H76 5329   5.729   5.708   1.152
   13CHTO   C43 5330   5.660   5.797   0.889
   13CHTO   H85 5331   5.586   5.811   0.810
   13CHTO   O29 5332   5.782   5.740   0.839
   13CHTO   C50 5333   5.763   5.620   0.761
   13CHTO   H92 5334   5.744   5.649   0.657
   13CHTO   C54 5335   5.898   5.544   0.753
   13CHTO   O36 5336   5.998   5.621   0.686
   13CHTO   H72 5337   6.022   5.695   0.739
   13CHTO   O27 5338   5.685   5.929   0.941
   13CHTO   C37 5339   5.649   6.064   0.978
   13CHTO   H79 5340   5.544   6.067   1.010
   13CHTO   C38 5341   5.735   6.115   1.098
   13CHTO   H80 5342   5.842   6.102   1.073
   13CHTO   O31 5343   5.704   6.032   1.212
   13CHTO   H68 5344   5.760   6.053   1.284
   13CHTO   C39 5345   5.707   6.267   1.130
   13CHTO   H81 5346   5.604   6.274   1.163
   13CHTO    N7 5347   5.791   6.324   1.241
   13CHTO   H73 5348   5.857   6.249   1.282
   13CHTO   H74 5349   5.850   6.409   1.207
   13CHTO   C40 5350   5.718   6.353   0.998
   13CHTO   H82 5351   5.822   6.360   0.966
   13CHTO   O26 5352   5.635   6.296   0.895
   13CHTO   C41 5353   5.669   6.160   0.857
   13CHTO   H83 5354   5.774   6.157   0.826
   13CHTO   C52 5355   5.583   6.122   0.735
   13CHTO   O35 5356   5.436   6.127   0.761
   13CHTO   H71 5357   5.410   6.216   0.777
   13CHTO   O28 5358   5.663   6.485   1.015
   13CHTO   C42 5359   5.718   6.607   0.956
   13CHTO   H84 5360   5.825   6.589   0.944
   13CHTO   C44 5361   5.706   6.731   1.052
   13CHTO   H86 5362   5.606   6.730   1.096
   13CHTO   O32 5363   5.797   6.710   1.161
   13CHTO   H69 5364   5.769   6.638   1.214
   13CHTO   C48 5365   5.727   6.872   0.983
   13CHTO   H90 5366   5.833   6.884   0.961
   13CHTO    N9 5367   5.691   6.986   1.075
   13CHTO   H77 5368   5.587   6.979   1.104
   13CHTO   H78 5369   5.711   7.080   1.026
   13CHTO   C51 5370   5.647   6.876   0.849
   13CHTO   H93 5371   5.541   6.860   0.871
   13CHTO   O30 5372   5.700   6.771   0.767
   13CHTO   C46 5373   5.660   6.637   0.813
   13CHTO   H88 5374   5.551   6.631   0.816
   13CHTO   C53 5375   5.714   6.538   0.706
   13CHTO   O72 5376   5.651   6.558   0.579
   13CHTO  H199 5377   5.561   6.532   0.583
   13CHTO   O22 5378   5.665   6.996   0.770
   13CHTO   C31 5379   5.562   7.037   0.672
   13CHTO   H59 5380   5.609   7.118   0.612
   13CHTO   C29 5381   5.517   6.927   0.573
   13CHTO   H57 5382   5.482   6.841   0.633
   13CHTO   O21 5383   5.634   6.882   0.502
   13CHTO   H37 5384   5.614   6.805   0.452
   13CHTO   C27 5385   5.402   6.973   0.476
   13CHTO   H55 5386   5.441   7.051   0.409
   13CHTO    N5 5387   5.349   6.862   0.393
   13CHTO   H43 5388   5.429   6.817   0.336
   13CHTO   H44 5389   5.273   6.899   0.326
   13CHTO   C25 5390   5.288   7.040   0.561
   13CHTO   H53 5391   5.242   6.964   0.627
   13CHTO   O17 5392   5.343   7.147   0.643
   13CHTO   C32 5393   5.438   7.103   0.741
   13CHTO   H60 5394   5.392   7.031   0.808
   13CHTO   C36 5395   5.480   7.227   0.824
   13CHTO   O25 5396   5.369   7.283   0.893
   13CHTO   H40 5397   5.396   7.361   0.938
   13CHTO   O15 5398   5.175   7.102   0.468
   13CHTO   C19 5399   5.059   7.180   0.508
   13CHTO   H47 5400   5.052   7.164   0.617
   13CHTO   C20 5401   5.073   7.333   0.480
   13CHTO   H48 5402   5.089   7.354   0.373
   13CHTO   O19 5403   5.191   7.378   0.551
   13CHTO   H35 5404   5.208   7.468   0.531
   13CHTO   C21 5405   4.945   7.412   0.528
   13CHTO   H49 5406   4.940   7.407   0.637
   13CHTO    N4 5407   4.950   7.556   0.493
   13CHTO   H41 5408   5.035   7.603   0.540
   13CHTO   H42 5409   4.959   7.568   0.386
   13CHTO   C22 5410   4.816   7.343   0.474
   13CHTO   H50 5411   4.810   7.358   0.366
   13CHTO   O14 5412   4.816   7.202   0.504
   13CHTO   C23 5413   4.926   7.129   0.447
   13CHTO   H51 5414   4.922   7.144   0.338
   13CHTO   C34 5415   4.904   6.979   0.470
   13CHTO   O23 5416   4.899   6.943   0.609
   13CHTO   H38 5417   4.821   6.978   0.648
   13CHTO   O16 5418   4.698   7.392   0.541
   13CHTO   C24 5419   4.575   7.436   0.442
   13CHTO   H52 5420   4.602   7.428   0.337
   13CHTO   C26 5421   4.539   7.583   0.474
   13CHTO   H54 5422   4.531   7.595   0.584
   13CHTO   O20 5423   4.648   7.665   0.429
   13CHTO   H36 5424   4.635   7.754   0.455
   13CHTO   C30 5425   4.404   7.627   0.409
   13CHTO   H58 5426   4.413   7.627   0.300
   13CHTO    N6 5427   4.365   7.766   0.448
   13CHTO   H45 5428   4.438   7.811   0.513
   13CHTO   H46 5429   4.269   7.768   0.496
   13CHTO   C33 5430   4.295   7.521   0.444
   13CHTO   H61 5431   4.281   7.516   0.553
   13CHTO   O18 5432   4.340   7.392   0.397
   13CHTO   C28 5433   4.455   7.341   0.466
   13CHTO   H56 5434   4.435   7.335   0.573
   13CHTO   C35 5435   4.488   7.200   0.412
   13CHTO   O24 5436   4.381   7.105   0.428
   13CHTO   H39 5437   4.368   7.088   0.519
   13CHTO    O9 5438   4.165   7.554   0.390
   13CHTO   C13 5439   4.046   7.465   0.454
   13CHTO   H26 5440   4.088   7.366   0.484
   13CHTO   C11 5441   3.929   7.450   0.349
   13CHTO   H24 5442   3.971   7.404   0.258
   13CHTO    O8 5443   3.882   7.582   0.313
   13CHTO    H3 5444   3.817   7.576   0.246
   13CHTO    C9 5445   3.821   7.354   0.408
   13CHTO   H22 5446   3.866   7.254   0.402
   13CHTO    N2 5447   3.701   7.341   0.322
   13CHTO   H10 5448   3.698   7.418   0.247
   13CHTO   H11 5449   3.611   7.343   0.382
   13CHTO    C7 5450   3.797   7.384   0.562
   13CHTO   H20 5451   3.859   7.307   0.612
   13CHTO    O4 5452   3.845   7.515   0.600
   13CHTO   C14 5453   3.988   7.530   0.589
   13CHTO   H27 5454   4.035   7.480   0.676
   13CHTO   C18 5455   4.018   7.682   0.603
   13CHTO   O13 5456   3.977   7.733   0.730
   13CHTO    H7 5457   3.883   7.733   0.736
   13CHTO    O2 5458   3.643   7.367   0.617
   13CHTO    C1 5459   3.643   7.331   0.757
   13CHTO   H14 5460   3.742   7.357   0.803
   13CHTO    C2 5461   3.615   7.178   0.782
   13CHTO   H15 5462   3.516   7.157   0.740
   13CHTO    O6 5463   3.714   7.100   0.712
   13CHTO    H1 5464   3.695   7.009   0.719
   13CHTO    C3 5465   3.617   7.148   0.940
   13CHTO   H16 5466   3.719   7.165   0.977
   13CHTO    N1 5467   3.582   7.006   0.971
   13CHTO    H8 5468   3.652   6.939   0.924
   13CHTO    H9 5469   3.585   6.990   1.078
   13CHTO    C4 5470   3.525   7.251   1.016
   13CHTO   H17 5471   3.420   7.225   0.999
   13CHTO    O1 5472   3.549   7.387   0.975
   13CHTO    C5 5473   3.537   7.414   0.834
   13CHTO   H18 5474   3.439   7.381   0.800
   13CHTO   C16 5475   3.550   7.567   0.811
   13CHTO   O11 5476   3.676   7.619   0.853
   13CHTO    H5 5477   3.682   7.616   0.947
   13CHTO    O3 5478   3.556   7.250   1.157
   13CHTO    C6 5479   3.445   7.282   1.247
   13CHTO   H19 5480   3.360   7.326   1.195
   13CHTO    C8 5481   3.396   7.152   1.319
   13CHTO   H21 5482   3.483   7.102   1.362
   13CHTO    O7 5483   3.338   7.066   1.219
   13CHTO    H2 5484   3.404   7.033   1.162
   13CHTO   C12 5485   3.293   7.185   1.434
   13CHTO   H25 5486   3.200   7.219   1.384
   13CHTO    N3 5487   3.256   7.062   1.512
   13CHTO   H12 5488   3.211   6.989   1.447
   13CHTO   H13 5489   3.344   7.020   1.559
   13CHTO   C15 5490   3.347   7.302   1.524
   13CHTO   H28 5491   3.430   7.270   1.587
   13CHTO   O10 5492   3.235   7.363   1.614
   13CHTO    H4 5493   3.272   7.424   1.675
   13CHTO    O5 5494   3.386   7.415   1.445
   13CHTO   C10 5495   3.493   7.386   1.352
   13CHTO   H23 5496   3.578   7.346   1.408
   13CHTO   C17 5497   3.537   7.517   1.286
   13CHTO   O12 5498   3.591   7.610   1.382
   13CHTO    H6 5499   3.522   7.641   1.438
   14CHTO  H203 5500   5.755   4.412   0.341
   14CHTO   O82 5501   5.693   4.470   0.382
   14CHTO  C123 5502   5.612   4.535   0.282
   14CHTO  H227 5503   5.678   4.572   0.201
   14CHTO   O77 5504   5.527   4.427   0.232
   14CHTO  C118 5505   5.441   4.466   0.124
   14CHTO  H222 5506   5.501   4.509   0.043
   14CHTO  C125 5507   5.370   4.335   0.071
   14CHTO   O84 5508   5.292   4.270   0.172
   14CHTO  H205 5509   5.250   4.195   0.135
   14CHTO  C114 5510   5.340   4.572   0.174
   14CHTO  H218 5511   5.279   4.527   0.253
   14CHTO  C116 5512   5.414   4.695   0.236
   14CHTO  H220 5513   5.463   4.753   0.154
   14CHTO   O79 5514   5.316   4.782   0.295
   14CHTO  H201 5515   5.263   4.821   0.228
   14CHTO  C120 5516   5.523   4.650   0.342
   14CHTO  H224 5517   5.469   4.612   0.430
   14CHTO   N21 5518   5.607   4.764   0.388
   14CHTO  H211 5519   5.549   4.856   0.388
   14CHTO  H212 5520   5.644   4.744   0.488
   14CHTO   O75 5521   5.260   4.606   0.059
   14CHTO  C112 5522   5.099   4.597   0.085
   14CHTO  H216 5523   5.078   4.615   0.191
   14CHTO   O73 5524   5.056   4.467   0.043
   14CHTO  C113 5525   4.917   4.440   0.062
   14CHTO  H217 5526   4.892   4.454   0.170
   14CHTO  C124 5527   4.891   4.292   0.028
   14CHTO   O83 5528   4.961   4.202   0.114
   14CHTO  H204 5529   4.926   4.206   0.201
   14CHTO  C109 5530   4.831   4.536   2.849
   14CHTO  H213 5531   4.856   4.513   2.744
   14CHTO  C110 5532   4.869   4.684   0.009
   14CHTO  H214 5533   4.834   4.706   0.110
   14CHTO   O78 5534   4.795   4.772   2.795
   14CHTO  H200 5535   4.821   4.758   2.705
   14CHTO  C111 5536   5.023   4.706   2.873
   14CHTO  H215 5537   5.053   4.694   2.768
   14CHTO   N19 5538   5.067   4.842   0.040
   14CHTO  H207 5539   5.115   4.893   2.832
   14CHTO  H208 5540   4.983   4.901   0.076
   14CHTO   O74 5541   4.689   4.512   2.871
   14CHTO  C115 5542   4.604   4.484   2.733
   14CHTO  H219 5543   4.634   4.551   2.653
   14CHTO   O76 5544   4.631   4.337   2.678
   14CHTO  C122 5545   4.554   4.296   2.564
   14CHTO  H226 5546   4.572   4.189   2.551
   14CHTO  C126 5547   4.610   4.364   2.433
   14CHTO   O85 5548   4.550   4.313   2.314
   14CHTO  H206 5549   4.458   4.333   2.312
   14CHTO  C121 5550   4.400   4.320   2.584
   14CHTO  H225 5551   4.349   4.302   2.487
   14CHTO   O81 5552   4.348   4.224   2.677
   14CHTO  H202 5553   4.254   4.228   2.679
   14CHTO  C119 5554   4.370   4.467   2.630
   14CHTO  H223 5555   4.407   4.531   2.549
   14CHTO  C117 5556   4.450   4.506   2.760
   14CHTO  H221 5557   4.428   4.446   2.848
   14CHTO   N20 5558   4.423   4.648   2.801
   14CHTO  H209 5559   4.358   4.698   2.731
   14CHTO  H210 5560   4.515   4.705   2.812
   14CHTO   O80 5561   4.215   4.499   2.628
   14CHTO  C103 5562   4.153   4.577   2.506
   14CHTO  H190 5563   4.203   4.672   2.492
   14CHTO  C101 5564   4.152   4.500   2.368
   14CHTO  H188 5565   4.117   4.398   2.386
   14CHTO   O68 5566   4.297   4.492   2.314
   14CHTO  H168 5567   4.299   4.438   2.237
   14CHTO   C99 5568   4.055   4.569   2.262
   14CHTO  H186 5569   4.100   4.666   2.231
   14CHTO   N17 5570   4.037   4.489   2.137
   14CHTO  H174 5571   3.985   4.397   2.159
   14CHTO  H175 5572   3.984   4.547   2.063
   14CHTO   C97 5573   3.918   4.605   2.327
   14CHTO  H184 5574   3.862   4.512   2.345
   14CHTO   O64 5575   3.937   4.681   2.447
   14CHTO  C104 5576   4.005   4.608   2.551
   14CHTO  H191 5577   3.954   4.514   2.573
   14CHTO  C108 5578   4.004   4.688   2.681
   14CHTO   O71 5579   3.871   4.711   2.728
   14CHTO  H171 5580   3.874   4.763   2.806
   14CHTO   O62 5581   3.843   4.695   2.243
   14CHTO   C91 5582   3.716   4.649   2.192
   14CHTO  H178 5583   3.712   4.540   2.204
   14CHTO   C92 5584   3.711   4.675   2.037
   14CHTO  H179 5585   3.802   4.636   1.990
   14CHTO   O66 5586   3.603   4.597   1.983
   14CHTO  H166 5587   3.622   4.505   1.989
   14CHTO   C93 5588   3.684   4.826   2.000
   14CHTO  H180 5589   3.639   4.826   1.900
   14CHTO   N16 5590   3.807   4.906   1.986
   14CHTO  H172 5591   3.863   4.906   2.079
   14CHTO  H173 5592   3.868   4.868   1.906
   14CHTO   C94 5593   3.583   4.892   2.101
   14CHTO  H181 5594   3.634   4.954   2.176
   14CHTO   O61 5595   3.509   4.794   2.175
   14CHTO   C95 5596   3.590   4.715   2.264
   14CHTO  H182 5597   3.626   4.780   2.345
   14CHTO  C106 5598   3.500   4.606   2.332
   14CHTO   O69 5599   3.397   4.665   2.412
   14CHTO  H169 5600   3.334   4.707   2.356
   14CHTO   O63 5601   3.482   4.979   2.020
   14CHTO   C96 5602   3.439   5.109   2.095
   14CHTO  H183 5603   3.518   5.138   2.164
   14CHTO   C98 5604   3.306   5.096   2.176
   14CHTO  H185 5605   3.229   5.052   2.112
   14CHTO   O67 5606   3.328   5.001   2.282
   14CHTO  H167 5607   3.393   5.033   2.342
   14CHTO  C102 5608   3.256   5.237   2.235
   14CHTO  H189 5609   3.327   5.264   2.315
   14CHTO   N18 5610   3.122   5.233   2.300
   14CHTO  H176 5611   3.048   5.202   2.228
   14CHTO  H177 5612   3.124   5.165   2.383
   14CHTO  C105 5613   3.265   5.347   2.125
   14CHTO  H192 5614   3.185   5.332   2.052
   14CHTO   O65 5615   3.391   5.347   2.056
   14CHTO  C100 5616   3.423   5.224   1.989
   14CHTO  H187 5617   3.342   5.199   1.919
   14CHTO  C107 5618   3.553   5.245   1.908
   14CHTO   O70 5619   3.537   5.345   1.806
   14CHTO  H170 5620   3.479   5.313   1.739
   14CHTO   O57 5621   3.248   5.489   2.199
   14CHTO   C85 5622   3.198   5.603   2.127
   14CHTO  H157 5623   3.101   5.571   2.082
   14CHTO   C83 5624   3.291   5.640   2.007
   14CHTO  H155 5625   3.287   5.557   1.935
   14CHTO   O56 5626   3.428   5.646   2.053
   14CHTO  H135 5627   3.486   5.657   1.980
   14CHTO   C81 5628   3.241   5.769   1.937
   14CHTO  H153 5629   3.139   5.752   1.903
   14CHTO   N14 5630   3.316   5.803   1.813
   14CHTO  H141 5631   3.418   5.824   1.837
   14CHTO  H142 5632   3.311   5.721   1.745
   14CHTO   C79 5633   3.237   5.888   2.041
   14CHTO  H151 5634   3.196   5.975   1.990
   14CHTO   O52 5635   3.146   5.854   2.150
   14CHTO   C86 5636   3.179   5.730   2.220
   14CHTO  H158 5637   3.273   5.753   2.275
   14CHTO   C90 5638   3.073   5.701   2.329
   14CHTO   O60 5639   3.072   5.804   2.428
   14CHTO  H138 5640   3.004   5.787   2.491
   14CHTO   O50 5641   3.367   5.922   2.094
   14CHTO   C73 5642   3.422   6.017   2.187
   14CHTO  H145 5643   3.371   6.009   2.284
   14CHTO   C74 5644   3.404   6.162   2.132
   14CHTO  H146 5645   3.296   6.179   2.119
   14CHTO   O54 5646   3.448   6.254   2.234
   14CHTO  H133 5647   3.434   6.343   2.205
   14CHTO   C75 5648   3.483   6.176   1.996
   14CHTO  H147 5649   3.439   6.104   1.924
   14CHTO   N13 5650   3.469   6.308   1.930
   14CHTO  H139 5651   3.407   6.374   1.988
   14CHTO  H140 5652   3.566   6.355   1.918
   14CHTO   C76 5653   3.635   6.132   2.019
   14CHTO  H148 5654   3.682   6.207   2.083
   14CHTO   O49 5655   3.644   6.000   2.081
   14CHTO   C77 5656   3.573   5.987   2.206
   14CHTO  H149 5657   3.614   6.057   2.279
   14CHTO   C88 5658   3.596   5.847   2.264
   14CHTO   O58 5659   3.740   5.818   2.286
   14CHTO  H136 5660   3.784   5.810   2.203
   14CHTO   O51 5661   3.711   6.117   1.879
   14CHTO   C78 5662   3.864   6.095   1.899
   14CHTO  H150 5663   3.888   6.080   2.006
   14CHTO   C80 5664   3.942   6.217   1.847
   14CHTO  H152 5665   3.916   6.232   1.740
   14CHTO   O55 5666   3.897   6.333   1.919
   14CHTO  H134 5667   3.918   6.325   2.011
   14CHTO   C84 5668   4.098   6.197   1.861
   14CHTO  H156 5669   4.121   6.201   1.967
   14CHTO   N15 5670   4.177   6.307   1.795
   14CHTO  H143 5671   4.151   6.401   1.839
   14CHTO  H144 5672   4.282   6.290   1.809
   14CHTO   C87 5673   4.143   6.058   1.809
   14CHTO  H159 5674   4.148   6.057   1.701
   14CHTO   O53 5675   4.047   5.946   1.859
   14CHTO   C82 5676   3.910   5.969   1.824
   14CHTO  H154 5677   3.900   5.981   1.716
   14CHTO   C89 5678   3.831   5.841   1.862
   14CHTO   O59 5679   3.699   5.842   1.807
   14CHTO  H137 5680   3.655   5.762   1.829
   14CHTO   O45 5681   4.285   6.024   1.869
   14CHTO   C67 5682   4.338   5.898   1.824
   14CHTO  H124 5683   4.269   5.846   1.758
   14CHTO   C65 5684   4.472   5.923   1.749
   14CHTO  H122 5685   4.452   6.007   1.681
   14CHTO   O44 5686   4.506   5.808   1.670
   14CHTO  H102 5687   4.530   5.737   1.726
   14CHTO   C63 5688   4.580   5.975   1.851
   14CHTO  H120 5689   4.539   6.061   1.904
   14CHTO   N11 5690   4.704   6.032   1.792
   14CHTO  H108 5691   4.679   6.108   1.721
   14CHTO  H109 5692   4.761   5.955   1.744
   14CHTO   C61 5693   4.603   5.864   1.961
   14CHTO  H118 5694   4.671   5.908   2.036
   14CHTO   O40 5695   4.478   5.835   2.030
   14CHTO   C68 5696   4.358   5.803   1.950
   14CHTO  H125 5697   4.271   5.821   2.017
   14CHTO   C72 5698   4.355   5.652   1.912
   14CHTO   O48 5699   4.351   5.566   2.027
   14CHTO  H105 5700   4.268   5.573   2.069
   14CHTO   O38 5701   4.656   5.738   1.915
   14CHTO   C55 5702   4.798   5.718   1.901
   14CHTO  H112 5703   4.851   5.815   1.907
   14CHTO   C56 5704   4.825   5.644   1.763
   14CHTO  H113 5705   4.760   5.556   1.761
   14CHTO   O42 5706   4.783   5.727   1.653
   14CHTO  H100 5707   4.832   5.807   1.652
   14CHTO   C57 5708   4.977   5.602   1.747
   14CHTO  H114 5709   5.033   5.693   1.731
   14CHTO   N10 5710   5.002   5.516   1.628
   14CHTO  H106 5711   4.935   5.541   1.548
   14CHTO  H107 5712   4.989   5.411   1.654
   14CHTO   C58 5713   5.029   5.534   1.877
   14CHTO  H115 5714   4.983   5.433   1.887
   14CHTO   O37 5715   4.997   5.613   1.993
   14CHTO   C59 5716   4.856   5.631   2.016
   14CHTO  H116 5717   4.806   5.534   2.021
   14CHTO   C70 5718   4.839   5.700   2.152
   14CHTO   O46 5719   4.887   5.622   2.262
   14CHTO  H103 5720   4.833   5.547   2.274
   14CHTO   O39 5721   5.192   5.522   1.868
   14CHTO   C60 5722   5.262   5.480   1.986
   14CHTO  H117 5723   5.197   5.488   2.074
   14CHTO   C62 5724   5.310   5.332   1.975
   14CHTO  H119 5725   5.218   5.270   1.972
   14CHTO   O43 5726   5.382   5.313   1.851
   14CHTO  H101 5727   5.460   5.365   1.850
   14CHTO   C66 5728   5.397   5.292   2.105
   14CHTO  H123 5729   5.334   5.306   2.194
   14CHTO   N12 5730   5.439   5.150   2.107
   14CHTO  H110 5731   5.404   5.098   2.019
   14CHTO  H111 5732   5.405   5.101   2.197
   14CHTO   C69 5733   5.517   5.390   2.119
   14CHTO  H126 5734   5.583   5.381   2.030
   14CHTO   O41 5735   5.462   5.535   2.130
   14CHTO   C64 5736   5.381   5.576   2.011
   14CHTO  H121 5737   5.446   5.575   1.921
   14CHTO   C71 5738   5.332   5.722   2.031
   14CHTO   O47 5739   5.441   5.814   2.026
   14CHTO  H104 5740   5.474   5.821   1.939
   14CHTO   O34 5741   5.603   5.361   2.248
   14CHTO   C49 5742   5.749   5.313   2.250
   14CHTO   H91 5743   5.752   5.219   2.193
   14CHTO   C47 5744   5.788   5.287   2.397
   14CHTO   H89 5745   5.887   5.236   2.390
   14CHTO   O33 5746   5.696   5.197   2.460
   14CHTO   H70 5747   5.611   5.236   2.466
   14CHTO   C45 5748   5.799   5.425   2.481
   14CHTO   H87 5749   5.704   5.441   2.534
   14CHTO    N8 5750   5.906   5.410   2.583
   14CHTO   H75 5751   6.003   5.401   2.535
   14CHTO   H76 5752   5.906   5.495   2.649
   14CHTO   C43 5753   5.813   5.552   2.382
   14CHTO   H85 5754   5.712   5.571   2.347
   14CHTO   O29 5755   5.902   5.519   2.274
   14CHTO   C50 5756   5.849   5.416   2.187
   14CHTO   H92 5757   5.797   5.467   2.105
   14CHTO   C54 5758   5.967   5.346   2.114
   14CHTO   O36 5759   6.060   5.287   2.205
   14CHTO   H72 5760   6.130   5.248   2.157
   14CHTO   O27 5761   5.852   5.674   2.449
   14CHTO   C37 5762   5.781   5.797   2.473
   14CHTO   H79 5763   5.847   5.869   2.523
   14CHTO   C38 5764   5.738   5.864   2.339
   14CHTO   H80 5765   5.684   5.790   2.278
   14CHTO   O31 5766   5.857   5.904   2.270
   14CHTO   H68 5767   5.904   5.828   2.239
   14CHTO   C39 5768   5.643   5.988   2.364
   14CHTO   H81 5769   5.701   6.065   2.413
   14CHTO    N7 5770   5.588   6.048   2.238
   14CHTO   H73 5771   5.669   6.084   2.176
   14CHTO   H74 5772   5.530   5.974   2.184
   14CHTO   C40 5773   5.526   5.948   2.462
   14CHTO   H82 5774   5.460   5.876   2.413
   14CHTO   O26 5775   5.582   5.894   2.583
   14CHTO   C41 5776   5.658   5.771   2.564
   14CHTO   H83 5777   5.593   5.695   2.518
   14CHTO   C52 5778   5.697   5.719   2.705
   14CHTO   O35 5779   5.779   5.816   2.783
   14CHTO   H71 5780   5.799   5.779   2.868
   14CHTO   O28 5781   5.452   6.060   2.512
   14CHTO   C42 5782   5.308   6.055   2.541
   14CHTO   H84 5783   5.299   6.111   2.635
   14CHTO   C44 5784   5.241   5.916   2.568
   14CHTO   H86 5785   5.256   5.853   2.480
   14CHTO   O32 5786   5.311   5.856   2.680
   14CHTO   H69 5787   5.398   5.833   2.655
   14CHTO   C48 5788   5.086   5.925   2.596
   14CHTO   H90 5789   5.072   5.973   2.693
   14CHTO    N9 5790   5.023   5.789   2.608
   14CHTO   H77 5791   5.035   5.734   2.515
   14CHTO   H78 5792   4.918   5.799   2.632
   14CHTO   C51 5793   5.015   6.014   2.486
   14CHTO   H93 5794   5.018   5.962   2.391
   14CHTO   O30 5795   5.080   6.142   2.479
   14CHTO   C46 5796   5.225   6.133   2.435
   14CHTO   H88 5797   5.230   6.080   2.340
   14CHTO   C53 5798   5.279   6.277   2.416
   14CHTO   O72 5799   5.270   6.356   2.535
   14CHTO  H199 5800   5.331   6.324   2.599
   14CHTO   O22 5801   4.880   6.048   2.523
   14CHTO   C31 5802   4.762   6.000   2.448
   14CHTO   H59 5803   4.795   5.911   2.391
   14CHTO   C29 5804   4.647   5.954   2.541
   14CHTO   H57 5805   4.621   6.040   2.605
   14CHTO   O21 5806   4.697   5.851   2.628
   14CHTO   H37 5807   4.635   5.833   2.696
   14CHTO   C27 5808   4.517   5.909   2.462
   14CHTO   H55 5809   4.541   5.818   2.404
   14CHTO    N5 5810   4.401   5.880   2.550
   14CHTO   H43 5811   4.374   5.776   2.543
   14CHTO   H44 5812   4.423   5.907   2.653
   14CHTO   C25 5813   4.481   6.021   2.358
   14CHTO   H53 5814   4.457   6.114   2.414
   14CHTO   O17 5815   4.596   6.047   2.272
   14CHTO   C32 5816   4.708   6.103   2.343
   14CHTO   H60 5817   4.677   6.193   2.395
   14CHTO   C36 5818   4.815   6.143   2.238
   14CHTO   O25 5819   4.767   6.247   2.153
   14CHTO   H40 5820   4.833   6.269   2.090
   14CHTO   O15 5821   4.358   5.984   2.264
   14CHTO   C19 5822   4.239   6.064   2.238
   14CHTO   H47 5823   4.208   6.034   2.137
   14CHTO   C20 5824   4.121   6.036   2.337
   14CHTO   H48 5825   4.151   6.051   2.442
   14CHTO   O19 5826   4.088   5.896   2.322
   14CHTO   H35 5827   4.022   5.871   2.384
   14CHTO   C21 5828   3.994   6.127   2.308
   14CHTO   H49 5829   3.949   6.095   2.214
   14CHTO    N4 5830   3.889   6.113   2.413
   14CHTO   H41 5831   3.869   6.207   2.462
   14CHTO   H42 5832   3.797   6.076   2.369
   14CHTO   C22 5833   4.037   6.275   2.288
   14CHTO   H50 5834   4.069   6.316   2.383
   14CHTO   O14 5835   4.144   6.282   2.192
   14CHTO   C23 5836   4.265   6.217   2.233
   14CHTO   H51 5837   4.292   6.257   2.332
   14CHTO   C34 5838   4.375   6.256   2.134
   14CHTO   O23 5839   4.410   6.394   2.150
   14CHTO   H38 5840   4.479   6.416   2.090
   14CHTO   O16 5841   3.931   6.354   2.230
   14CHTO   C24 5842   3.944   6.523   2.241
   14CHTO   H52 5843   3.870   6.573   2.179
   14CHTO   C26 5844   4.084   6.571   2.197
   14CHTO   H54 5845   4.161   6.515   2.254
   14CHTO   O20 5846   4.098   6.538   2.057
   14CHTO   H36 5847   4.186   6.555   2.029
   14CHTO   C30 5848   4.106   6.723   2.224
   14CHTO   H58 5849   4.042   6.782   2.156
   14CHTO    N6 5850   4.246   6.762   2.194
   14CHTO   H45 5851   4.259   6.868   2.210
   14CHTO   H46 5852   4.314   6.708   2.258
   14CHTO   C33 5853   4.063   6.760   2.369
   14CHTO   H61 5854   4.133   6.714   2.441
   14CHTO   O18 5855   3.931   6.709   2.397
   14CHTO   C28 5856   3.916   6.567   2.387
   14CHTO   H56 5857   3.987   6.517   2.454
   14CHTO   C35 5858   3.773   6.527   2.431
   14CHTO   O24 5859   3.669   6.589   2.354
   14CHTO   H39 5860   3.672   6.556   2.265
   14CHTO    O9 5861   4.070   6.902   2.392
   14CHTO   C13 5862   4.133   6.947   2.536
   14CHTO   H26 5863   4.141   6.857   2.601
   14CHTO   C11 5864   4.041   7.058   2.602
   14CHTO   H24 5865   3.945   7.010   2.629
   14CHTO    O8 5866   4.010   7.162   2.506
   14CHTO    H3 5867   4.089   7.206   2.480
   14CHTO    C9 5868   4.110   7.108   2.732
   14CHTO   H22 5869   4.125   7.018   2.793
   14CHTO    N2 5870   4.025   7.197   2.815
   14CHTO   H10 5871   3.931   7.148   2.837
   14CHTO   H11 5872   4.007   7.290   2.763
   14CHTO    C7 5873   4.250   7.169   2.697
   14CHTO   H20 5874   4.296   7.194   2.796
   14CHTO    O4 5875   4.334   7.072   2.630
   14CHTO   C14 5876   4.282   6.999   2.516
   14CHTO   H27 5877   4.347   6.910   2.506
   14CHTO   C18 5878   4.300   7.082   2.386
   14CHTO   O13 5879   4.438   7.094   2.351
   14CHTO    H7 5880   4.446   7.143   2.271
   14CHTO    O2 5881   4.240   7.306   2.604
   14CHTO    C1 5882   4.340   7.410   2.616
   14CHTO   H14 5883   4.348   7.459   2.517
   14CHTO    C2 5884   4.486   7.366   2.660
   14CHTO   H15 5885   4.477   7.318   2.759
   14CHTO    O6 5886   4.539   7.272   2.565
   14CHTO    H1 5887   4.491   7.191   2.569
   14CHTO    C3 5888   4.583   7.494   2.670
   14CHTO   H16 5889   4.601   7.528   2.567
   14CHTO    N1 5890   4.718   7.461   2.729
   14CHTO    H8 5891   4.706   7.421   2.828
   14CHTO    H9 5892   4.768   7.389   2.667
   14CHTO    C4 5893   4.515   7.615   2.744
   14CHTO   H17 5894   4.521   7.600   2.852
   14CHTO    O1 5895   4.378   7.635   2.704
   14CHTO    C5 5896   4.292   7.520   2.714
   14CHTO   H18 5897   4.296   7.480   2.816
   14CHTO   C16 5898   4.147   7.567   2.685
   14CHTO   O11 5899   4.102   7.660   2.784
   14CHTO    H5 5900   4.013   7.685   2.766
   14CHTO    O3 5901   4.582   7.737   2.705
   14CHTO    C6 5902   4.565   7.853   2.795
   14CHTO   H19 5903   4.485   7.839   2.868
   14CHTO    C8 5904   4.698   7.880   2.872
   14CHTO   H21 5905   4.779   7.888   2.798
   14CHTO    O7 5906   4.722   7.767   0.084
   14CHTO    H2 5907   4.746   7.692   0.033
   14CHTO   C12 5908   4.690   8.015   0.079
   14CHTO   H25 5909   4.616   7.998   0.161
   14CHTO    N3 5910   4.821   8.048   0.145
   14CHTO   H12 5911   4.813   8.141   0.199
   14CHTO   H13 5912   4.850   7.968   0.211
   14CHTO   C15 5913   4.637   8.131   2.861
   14CHTO   H28 5914   4.711   8.161   2.787
   14CHTO   O10 5915   4.592   8.254   0.066
   14CHTO    H4 5916   4.666   8.292   0.111
   14CHTO    O5 5917   4.514   8.093   2.795
   14CHTO   C10 5918   4.528   7.978   2.710
   14CHTO   H23 5919   4.606   7.997   2.637
   14CHTO   C17 5920   4.396   7.959   2.633
   14CHTO   O12 5921   4.371   8.069   2.545
   14CHTO    H6 5922   4.431   8.066   2.472
   15CHTO  H203 5923   4.958   4.437   2.455
   15CHTO   O82 5924   4.973   4.347   2.432
   15CHTO  C123 5925   4.971   4.332   2.288
   15CHTO  H227 5926   4.881   4.382   2.249
   15CHTO   O77 5927   5.090   4.404   2.245
   15CHTO  C118 5928   5.113   4.407   2.103
   15CHTO  H222 5929   5.028   4.454   2.051
   15CHTO  C125 5930   5.243   4.492   2.077
   15CHTO   O84 5931   5.225   4.628   2.118
   15CHTO  H205 5932   5.165   4.671   2.060
   15CHTO  C114 5933   5.131   4.262   2.053
   15CHTO  H218 5934   5.215   4.218   2.106
   15CHTO  C116 5935   5.006   4.176   2.087
   15CHTO  H220 5936   4.918   4.215   2.031
   15CHTO   O79 5937   5.029   4.041   2.042
   15CHTO  H201 5938   5.025   4.038   1.948
   15CHTO  C120 5939   4.978   4.181   2.243
   15CHTO  H224 5940   5.064   4.131   2.292
   15CHTO   N21 5941   4.856   4.104   2.281
   15CHTO  H211 5942   4.811   4.146   2.370
   15CHTO  H212 5943   4.784   4.105   2.200
   15CHTO   O75 5944   5.160   4.271   1.912
   15CHTO  C112 5945   5.281   4.168   1.871
   15CHTO  H216 5946   5.280   4.082   1.941
   15CHTO   O73 5947   5.404   4.242   1.879
   15CHTO  C113 5948   5.518   4.155   1.871
   15CHTO  H217 5949   5.509   4.076   1.949
   15CHTO  C124 5950   5.644   4.236   1.903
   15CHTO   O83 5951   5.644   4.285   2.038
   15CHTO  H204 5952   5.722   4.335   2.053
   15CHTO  C109 5953   5.528   4.088   1.731
   15CHTO  H213 5954   5.563   4.165   1.661
   15CHTO  C110 5955   5.390   4.030   1.684
   15CHTO  H214 5956   5.381   3.929   1.726
   15CHTO   O78 5957   5.391   4.016   1.541
   15CHTO  H200 5958   5.454   3.951   1.515
   15CHTO  C111 5959   5.265   4.114   1.725
   15CHTO  H215 5960   5.258   4.201   1.658
   15CHTO   N19 5961   5.138   4.039   1.711
   15CHTO  H207 5962   5.123   4.012   1.608
   15CHTO  H208 5963   5.140   3.950   1.772
   15CHTO   O74 5964   5.633   3.985   1.742
   15CHTO  C115 5965   5.665   3.888   1.619
   15CHTO  H219 5966   5.611   3.918   1.529
   15CHTO   O76 5967   5.817   3.896   1.578
   15CHTO  C122 5968   5.903   3.840   1.678
   15CHTO  H226 5969   5.887   3.896   1.770
   15CHTO  C126 5970   6.051   3.867   1.635
   15CHTO   O85 5971   6.146   3.819   1.732
   15CHTO  H206 5972   6.144   3.726   1.735
   15CHTO  C121 5973   5.873   3.685   1.701
   15CHTO  H225 5974   5.956   3.626   1.657
   15CHTO   O81 5975   5.870   3.659   1.842
   15CHTO  H202 5976   5.800   3.706   1.883
   15CHTO  C119 5977   5.739   3.639   1.634
   15CHTO  H223 5978   5.758   3.639   1.526
   15CHTO  C117 5979   5.623   3.741   1.663
   15CHTO  H221 5980   5.595   3.749   1.768
   15CHTO   N20 5981   5.497   3.698   1.594
   15CHTO  H209 5982   5.511   3.696   1.487
   15CHTO  H210 5983   5.467   3.601   1.629
   15CHTO   O80 5984   5.705   3.482   1.661
   15CHTO  C103 5985   5.723   3.371   1.544
   15CHTO  H190 5986   5.686   3.275   1.579
   15CHTO  C101 5987   5.654   3.398   1.407
   15CHTO  H188 5988   5.690   3.491   1.365
   15CHTO   O68 5989   5.499   3.409   1.429
   15CHTO  H168 5990   5.465   3.328   1.463
   15CHTO   C99 5991   5.689   3.279   1.305
   15CHTO  H186 5992   5.644   3.185   1.346
   15CHTO   N17 5993   5.631   3.297   1.168
   15CHTO  H174 5994   5.553   3.225   1.150
   15CHTO  H175 5995   5.595   3.398   1.154
   15CHTO   C97 5996   5.842   3.252   1.300
   15CHTO  H184 5997   5.892   3.327   1.236
   15CHTO   O64 5998   5.902   3.245   1.431
   15CHTO  C104 5999   5.877   3.355   1.521
   15CHTO  H191 6000   5.918   3.448   1.482
   15CHTO  C108 6001   5.949   3.328   1.654
   15CHTO   O71 6002   6.091   3.341   1.642
   15CHTO  H171 6003   6.114   3.431   1.628
   15CHTO   O62 6004   5.870   3.117   1.254
   15CHTO   C91 6005   5.923   3.094   1.122
   15CHTO  H178 6006   5.928   3.190   1.070
   15CHTO   C92 6007   5.820   3.006   1.042
   15CHTO  H179 6008   5.721   3.053   1.043
   15CHTO   O66 6009   5.859   3.005   0.903
   15CHTO  H166 6010   5.944   2.968   0.893
   15CHTO   C93 6011   5.815   2.856   1.093
   15CHTO  H180 6012   5.774   2.796   1.011
   15CHTO   N16 6013   5.721   2.836   1.206
   15CHTO  H172 6014   5.719   2.732   1.235
   15CHTO  H173 6015   5.750   2.898   1.290
   15CHTO   C94 6016   5.961   2.804   1.128
   15CHTO  H181 6017   5.979   2.801   1.236
   15CHTO   O61 6018   6.064   2.888   1.072
   15CHTO   C95 6019   6.066   3.023   1.122
   15CHTO  H182 6020   6.105   3.023   1.223
   15CHTO  C106 6021   6.167   3.106   1.035
   15CHTO   O69 6022   6.301   3.056   1.048
   15CHTO  H169 6023   6.359   3.108   0.997
   15CHTO   O63 6024   5.975   2.662   1.065
   15CHTO   C96 6025   6.054   2.560   1.153
   15CHTO  H183 6026   6.071   2.603   1.253
   15CHTO   C98 6027   6.193   2.522   1.094
   15CHTO  H185 6028   6.182   2.502   0.986
   15CHTO   O67 6029   6.277   2.639   1.103
   15CHTO  H167 6030   6.246   2.706   1.046
   15CHTO  C102 6031   6.261   2.396   1.167
   15CHTO  H189 6032   6.289   2.431   1.268
   15CHTO   N18 6033   6.387   2.349   1.104
   15CHTO  H176 6034   6.377   2.248   1.066
   15CHTO  H177 6035   6.469   2.353   1.175
   15CHTO  C105 6036   6.155   2.283   1.183
   15CHTO  H192 6037   6.130   2.243   1.085
   15CHTO   O65 6038   6.035   2.331   1.246
   15CHTO  C100 6039   5.966   2.432   1.171
   15CHTO  H187 6040   5.941   2.391   1.072
   15CHTO  C107 6041   5.833   2.465   1.244
   15CHTO   O70 6042   5.744   2.353   1.245
   15CHTO  H170 6043   5.713   2.336   1.158
   15CHTO   O57 6044   6.224   2.164   1.278
   15CHTO   C85 6045   6.145   2.054   1.327
   15CHTO  H157 6046   6.043   2.093   1.348
   15CHTO   C83 6047   6.204   2.010   1.466
   15CHTO  H155 6048   6.195   2.094   1.534
   15CHTO   O56 6049   6.345   1.983   1.452
   15CHTO  H135 6050   6.359   1.908   1.396
   15CHTO   C81 6051   6.121   1.890   1.523
   15CHTO  H153 6052   6.017   1.922   1.532
   15CHTO   N14 6053   6.161   1.853   1.661
   15CHTO  H141 6054   6.155   1.938   1.725
   15CHTO  H142 6055   6.096   1.776   1.698
   15CHTO   C79 6056   6.126   1.769   1.422
   15CHTO  H151 6057   6.058   1.693   1.461
   15CHTO   O52 6058   6.073   1.810   1.292
   15CHTO   C86 6059   6.140   1.927   1.233
   15CHTO  H158 6060   6.243   1.891   1.211
   15CHTO   C90 6061   6.076   1.958   1.096
   15CHTO   O60 6062   6.095   1.850   1.004
   15CHTO  H138 6063   6.045   1.775   1.031
   15CHTO   O50 6064   6.256   1.710   1.406
   15CHTO   C73 6065   6.289   1.592   1.332
   15CHTO  H145 6066   6.227   1.586   1.241
   15CHTO   C74 6067   6.263   1.464   1.418
   15CHTO  H146 6068   6.158   1.467   1.450
   15CHTO   O54 6069   6.275   1.348   1.332
   15CHTO  H133 6070   6.207   1.348   1.268
   15CHTO   C75 6071   6.362   1.462   1.541
   15CHTO  H147 6072   6.341   1.549   1.604
   15CHTO   N13 6073   6.348   1.343   1.630
   15CHTO  H139 6074   6.320   1.374   1.730
   15CHTO  H140 6075   6.273   1.275   1.593
   15CHTO   C76 6076   6.513   1.478   1.488
   15CHTO  H148 6077   6.540   1.389   1.431
   15CHTO   O49 6078   6.525   1.597   1.403
   15CHTO   C77 6079   6.439   1.596   1.289
   15CHTO  H149 6080   6.461   1.510   1.226
   15CHTO   C88 6081   6.474   1.720   1.205
   15CHTO   O58 6082   6.401   1.722   1.076
   15CHTO  H136 6083   6.310   1.734   1.092
   15CHTO   O51 6084   6.612   1.505   1.610
   15CHTO   C78 6085   6.763   1.519   1.567
   15CHTO  H150 6086   6.771   1.542   1.459
   15CHTO   C80 6087   6.836   1.386   1.596
   15CHTO  H152 6088   6.813   1.355   1.699
   15CHTO   O55 6089   6.781   1.288   1.505
   15CHTO  H134 6090   6.816   1.204   1.524
   15CHTO   C84 6091   6.993   1.398   1.581
   15CHTO  H156 6092   7.015   1.416   1.475
   15CHTO   N15 6093   7.063   1.270   1.619
   15CHTO  H143 6094   7.130   1.285   1.701
   15CHTO  H144 6095   7.118   1.232   1.536
   15CHTO   C87 6096   7.043   1.519   1.663
   15CHTO  H159 6097   7.025   1.503   1.769
   15CHTO   O53 6098   6.965   1.644   1.613
   15CHTO   C82 6099   6.826   1.636   1.645
   15CHTO  H154 6100   6.812   1.625   1.752
   15CHTO   C89 6101   6.764   1.773   1.605
   15CHTO   O59 6102   6.626   1.784   1.640
   15CHTO  H137 6103   6.593   1.868   1.616
   15CHTO   O45 6104   7.204   1.542   1.641
   15CHTO   C67 6105   7.254   1.676   1.651
   15CHTO  H124 6106   7.193   1.741   1.588
   15CHTO   C65 6107   7.249   1.730   1.799
   15CHTO  H122 6108   7.251   1.642   1.863
   15CHTO   O44 6109   7.122   1.796   1.814
   15CHTO  H102 6110   7.122   1.878   1.768
   15CHTO   C63 6111   7.378   1.812   1.839
   15CHTO  H120 6112   7.460   1.742   1.856
   15CHTO   N11 6113   7.373   1.884   1.971
   15CHTO  H108 6114   7.343   1.816   2.048
   15CHTO  H109 6115   7.303   1.964   1.965
   15CHTO   C61 6116   7.423   1.901   1.717
   15CHTO  H118 6117   7.517   1.950   1.747
   15CHTO   O40 6118   7.454   1.821   1.599
   15CHTO   C68 6119   7.400   1.685   1.590
   15CHTO  H125 6120   7.468   1.616   1.643
   15CHTO   C72 6121   7.404   1.647   1.439
   15CHTO   O48 6122   7.369   1.510   1.413
   15CHTO  H105 6123   7.434   1.453   1.449
   15CHTO   O38 6124   7.325   2.002   1.684
   15CHTO   C55 6125   7.352   2.087   1.571
   15CHTO  H112 6126   7.418   2.037   1.500
   15CHTO   C56 6127   7.411   2.227   1.619
   15CHTO  H113 6128   7.344   2.266   1.697
   15CHTO   O42 6129   7.539   2.206   1.681
   15CHTO  H100 6130   7.530   2.156   1.760
   15CHTO   C57 6131   7.421   2.329   1.498
   15CHTO  H114 6132   7.498   2.291   1.431
   15CHTO   N10 6133   7.462   2.466   1.539
   15CHTO  H106 6134   7.375   2.525   1.565
   15CHTO  H107 6135   7.515   2.514   1.459
   15CHTO   C58 6136   7.286   2.331   1.421
   15CHTO  H115 6137   7.208   2.377   1.487
   15CHTO   O37 6138   7.248   2.198   1.383
   15CHTO   C59 6139   7.220   2.112   1.493
   15CHTO  H116 6140   7.144   2.157   1.558
   15CHTO   C70 6141   7.163   1.981   1.437
   15CHTO   O46 6142   7.039   2.001   1.368
   15CHTO  H103 6143   7.010   1.919   1.332
   15CHTO   O39 6144   7.296   2.412   1.281
   15CHTO   C60 6145   7.176   2.460   1.216
   15CHTO  H117 6146   7.198   2.462   1.109
   15CHTO   C62 6147   7.047   2.373   1.229
   15CHTO  H119 6148   7.073   2.272   1.191
   15CHTO   O43 6149   7.004   2.360   1.366
   15CHTO  H101 6150   7.069   2.315   1.416
   15CHTO   C66 6151   6.931   2.436   1.137
   15CHTO  H123 6152   6.969   2.445   1.035
   15CHTO   N12 6153   6.810   2.348   1.129
   15CHTO  H110 6154   6.822   2.260   1.189
   15CHTO  H111 6155   6.790   2.323   1.026
   15CHTO   C69 6156   6.897   2.579   1.189
   15CHTO  H126 6157   6.860   2.573   1.293
   15CHTO   O41 6158   7.027   2.666   1.185
   15CHTO   C64 6159   7.149   2.607   1.259
   15CHTO  H121 6160   7.130   2.610   1.369
   15CHTO   C71 6161   7.272   2.698   1.230
   15CHTO   O47 6162   7.303   2.704   1.091
   15CHTO  H104 6163   7.233   2.746   1.044
   15CHTO   O34 6164   6.787   2.650   1.101
   15CHTO   C49 6165   6.748   2.662   0.953
   15CHTO   H91 6166   6.743   2.560   0.914
   15CHTO   C47 6167   6.856   2.742   0.877
   15CHTO   H89 6168   6.829   2.736   0.769
   15CHTO   O33 6169   6.984   2.679   0.896
   15CHTO   H70 6170   7.010   2.684   0.985
   15CHTO   C45 6171   6.849   2.895   0.926
   15CHTO   H87 6172   6.854   2.896   1.035
   15CHTO    N8 6173   6.960   2.978   0.873
   15CHTO   H75 6174   6.955   2.983   0.765
   15CHTO   H76 6175   7.055   2.936   0.903
   15CHTO   C43 6176   6.704   2.954   0.889
   15CHTO   H85 6177   6.702   3.057   0.925
   15CHTO   O29 6178   6.602   2.873   0.951
   15CHTO   C50 6179   6.609   2.729   0.938
   15CHTO   H92 6180   6.546   2.689   1.019
   15CHTO   C54 6181   6.537   2.680   0.810
   15CHTO   O36 6182   6.396   2.702   0.820
   15CHTO   H72 6183   6.353   2.673   0.741
   15CHTO   O27 6184   6.682   2.962   0.746
   15CHTO   C37 6185   6.614   3.049   0.654
   15CHTO   H79 6186   6.602   2.997   0.557
   15CHTO   C38 6187   6.471   3.085   0.704
   15CHTO   H80 6188   6.479   3.121   0.808
   15CHTO   O31 6189   6.393   2.964   0.703
   15CHTO   H68 6190   6.310   2.979   0.742
   15CHTO   C39 6191   6.404   3.196   0.615
   15CHTO   H81 6192   6.389   3.154   0.515
   15CHTO    N7 6193   6.270   3.241   0.666
   15CHTO   H73 6194   6.243   3.188   0.756
   15CHTO   H74 6195   6.194   3.226   0.590
   15CHTO   C40 6196   6.502   3.318   0.600
   15CHTO   H82 6197   6.514   3.367   0.697
   15CHTO   O26 6198   6.627   3.273   0.547
   15CHTO   C41 6199   6.698   3.178   0.631
   15CHTO   H83 6200   6.721   3.224   0.728
   15CHTO   C52 6201   6.832   3.147   0.560
   15CHTO   O35 6202   6.919   3.266   0.551
   15CHTO   H71 6203   6.998   3.244   0.507
   15CHTO   O28 6204   6.459   3.413   0.499
   15CHTO   C42 6205   6.462   3.558   0.522
   15CHTO   H84 6206   6.476   3.599   0.421
   15CHTO   C44 6207   6.579   3.616   0.608
   15CHTO   H86 6208   6.579   3.566   0.705
   15CHTO   O32 6209   6.702   3.580   0.542
   15CHTO   H69 6210   6.775   3.606   0.595
   15CHTO   C48 6211   6.567   3.772   0.634
   15CHTO   H90 6212   6.588   3.824   0.540
   15CHTO    N9 6213   6.670   3.821   0.732
   15CHTO   H77 6214   6.660   3.927   0.747
   15CHTO   H78 6215   6.770   3.798   0.695
   15CHTO   C51 6216   6.421   3.809   0.679
   15CHTO   H93 6217   6.402   3.765   0.777
   15CHTO   O30 6218   6.329   3.761   0.580
   15CHTO   C46 6219   6.325   3.612   0.573
   15CHTO   H88 6220   6.305   3.571   0.672
   15CHTO   C53 6221   6.209   3.573   0.478
   15CHTO   O72 6222   6.082   3.614   0.531
   15CHTO  H199 6223   6.061   3.562   0.607
   15CHTO   O22 6224   6.401   3.952   0.684
   15CHTO   C31 6225   6.282   4.017   0.743
   15CHTO   H59 6226   6.301   4.126   0.737
   15CHTO   C29 6227   6.150   3.990   0.667
   15CHTO   H57 6228   6.129   3.882   0.670
   15CHTO   O21 6229   6.170   4.025   0.528
   15CHTO   H37 6230   6.234   3.968   0.489
   15CHTO   C27 6231   6.028   4.068   0.731
   15CHTO   H55 6232   6.047   4.176   0.722
   15CHTO    N5 6233   5.899   4.037   0.664
   15CHTO   H43 6234   5.826   4.000   0.734
   15CHTO   H44 6235   5.862   4.125   0.613
   15CHTO   C25 6236   6.024   4.036   0.885
   15CHTO   H53 6237   6.000   3.930   0.899
   15CHTO   O17 6238   6.153   4.063   0.947
   15CHTO   C32 6239   6.262   3.986   0.895
   15CHTO   H60 6240   6.241   3.880   0.907
   15CHTO   C36 6241   6.389   4.021   0.976
   15CHTO   O25 6242   6.375   3.980   1.112
   15CHTO   H40 6243   6.452   4.004   1.160
   15CHTO   O15 6244   5.914   4.123   0.959
   15CHTO   C19 6245   5.920   4.225   1.063
   15CHTO   H47 6246   6.019   4.212   1.109
   15CHTO   C20 6247   5.908   4.371   1.011
   15CHTO   H48 6248   5.814   4.388   0.955
   15CHTO   O19 6249   6.018   4.391   0.919
   15CHTO   H35 6250   6.011   4.475   0.878
   15CHTO   C21 6251   5.915   4.476   1.130
   15CHTO   H49 6252   6.016   4.475   1.171
   15CHTO    N4 6253   5.890   4.615   1.083
   15CHTO   H41 6254   5.964   4.644   1.011
   15CHTO   H42 6255   5.792   4.622   1.037
   15CHTO   C22 6256   5.818   4.435   1.244
   15CHTO   H50 6257   5.715   4.449   1.209
   15CHTO   O14 6258   5.836   4.297   1.280
   15CHTO   C23 6259   5.816   4.202   1.175
   15CHTO   H51 6260   5.712   4.213   1.138
   15CHTO   C34 6261   5.830   4.061   1.235
   15CHTO   O23 6262   5.727   4.036   1.331
   15CHTO   H38 6263   5.741   4.089   1.408
   15CHTO   O16 6264   5.836   4.509   1.367
   15CHTO   C24 6265   5.975   4.477   1.460
   15CHTO   H52 6266   6.052   4.425   1.402
   15CHTO   C26 6267   5.939   4.392   1.585
   15CHTO   H54 6268   5.862   4.447   1.644
   15CHTO   O20 6269   5.881   4.267   1.545
   15CHTO   H36 6270   5.942   4.216   1.495
   15CHTO   C30 6271   6.065   4.371   1.676
   15CHTO   H58 6272   6.137   4.307   1.624
   15CHTO    N6 6273   6.030   4.300   1.803
   15CHTO   H45 6274   6.052   4.361   1.889
   15CHTO   H46 6275   6.085   4.207   1.810
   15CHTO   C33 6276   6.139   4.506   1.703
   15CHTO   H61 6277   6.079   4.570   1.770
   15CHTO   O18 6278   6.158   4.577   1.579
   15CHTO   C28 6279   6.037   4.610   1.509
   15CHTO   H56 6280   5.966   4.659   1.576
   15CHTO   C35 6281   6.070   4.707   1.395
   15CHTO   O24 6282   6.117   4.834   1.443
   15CHTO   H39 6283   6.201   4.824   1.483
   15CHTO    O9 6284   6.264   4.485   1.771
   15CHTO   C13 6285   6.361   4.616   1.779
   15CHTO   H26 6286   6.296   4.707   1.776
   15CHTO   C11 6287   6.464   4.614   1.658
   15CHTO   H24 6288   6.413   4.655   1.569
   15CHTO    O8 6289   6.501   4.478   1.628
   15CHTO    H3 6290   6.555   4.475   1.551
   15CHTO    C9 6291   6.586   4.702   1.694
   15CHTO   H22 6292   6.544   4.798   1.727
   15CHTO    N2 6293   6.672   4.738   1.578
   15CHTO   H10 6294   6.747   4.809   1.608
   15CHTO   H11 6295   6.719   4.649   1.538
   15CHTO    C7 6296   6.661   4.637   1.817
   15CHTO   H20 6297   6.714   4.721   1.865
   15CHTO    O4 6298   6.572   4.575   1.913
   15CHTO   C14 6299   6.437   4.624   1.920
   15CHTO   H27 6300   6.441   4.731   1.952
   15CHTO   C18 6301   6.365   4.547   2.033
   15CHTO   O13 6302   6.231   4.595   2.053
   15CHTO    H7 6303   6.233   4.682   2.089
   15CHTO    O2 6304   6.764   4.527   1.771
   15CHTO    C1 6305   6.865   4.491   1.866
   15CHTO   H14 6306   6.833   4.520   1.969
   15CHTO    C2 6307   7.005   4.559   1.836
   15CHTO   H15 6308   7.019   4.552   1.727
   15CHTO    O6 6309   6.996   4.698   1.873
   15CHTO    H1 6310   7.075   4.743   1.847
   15CHTO    C3 6311   7.126   4.484   1.912
   15CHTO   H16 6312   7.117   4.499   2.020
   15CHTO    N1 6313   7.260   4.538   1.870
   15CHTO    H8 6314   7.275   4.522   1.764
   15CHTO    H9 6315   7.338   4.489   1.925
   15CHTO    C4 6316   7.111   4.330   1.888
   15CHTO   H17 6317   7.116   4.310   1.780
   15CHTO    O1 6318   6.985   4.287   1.941
   15CHTO    C5 6319   6.874   4.336   1.865
   15CHTO   H18 6320   6.887   4.306   1.761
   15CHTO   C16 6321   6.745   4.269   1.919
   15CHTO   O11 6322   6.721   4.299   2.057
   15CHTO    H5 6323   6.786   4.259   2.110
   15CHTO    O3 6324   7.210   4.249   1.956
   15CHTO    C6 6325   7.225   4.116   1.896
   15CHTO   H19 6326   7.144   4.091   1.827
   15CHTO    C8 6327   7.359   4.107   1.816
   15CHTO   H21 6328   7.441   4.131   1.884
   15CHTO    O7 6329   7.352   4.206   1.711
   15CHTO    H2 6330   7.435   4.211   1.667
   15CHTO   C12 6331   7.378   3.962   1.758
   15CHTO   H25 6332   7.300   3.949   1.680
   15CHTO    N3 6333   7.511   3.947   1.689
   15CHTO   H12 6334   7.519   4.018   1.608
   15CHTO   H13 6335   7.522   3.846   1.651
   15CHTO   C15 6336   7.354   3.853   1.869
   15CHTO   H28 6337   7.439   3.846   1.939
   15CHTO   O10 6338   7.325   3.715   1.809
   15CHTO    H4 6339   7.400   3.685   1.762
   15CHTO    O5 6340   7.233   3.877   1.942
   15CHTO   C10 6341   7.225   4.006   2.006
   15CHTO   H23 6342   7.311   4.017   2.073
   15CHTO   C17 6343   7.098   4.004   2.092
   15CHTO   O12 6344   7.094   4.116   2.182
   15CHTO    H6 6345   7.016   4.111   2.234
   16CHTO  H203 6346   4.852   4.078   0.530
   16CHTO   O82 6347   4.916   4.133   0.572
   16CHTO  C123 6348   4.962   4.073   0.694
   16CHTO  H227 6349   4.875   4.038   0.752
   16CHTO   O77 6350   5.041   3.959   0.648
   16CHTO  C118 6351   5.090   3.876   0.755
   16CHTO  H222 6352   5.005   3.842   0.816
   16CHTO  C125 6353   5.160   3.750   0.692
   16CHTO   O84 6354   5.274   3.785   0.611
   16CHTO  H205 6355   5.313   3.706   0.577
   16CHTO  C114 6356   5.188   3.956   0.843
   16CHTO  H218 6357   5.274   3.985   0.782
   16CHTO  C116 6358   5.123   4.087   0.896
   16CHTO  H220 6359   5.049   4.061   0.975
   16CHTO   O79 6360   5.226   4.163   0.960
   16CHTO  H201 6361   5.189   4.239   1.002
   16CHTO  C120 6362   5.053   4.169   0.780
   16CHTO  H224 6363   5.134   4.209   0.717
   16CHTO   N21 6364   4.977   4.286   0.832
   16CHTO  H211 6365   4.876   4.259   0.858
   16CHTO  H212 6366   5.028   4.329   0.918
   16CHTO   O75 6367   5.227   3.865   0.947
   16CHTO  C112 6368   5.386   3.868   0.980
   16CHTO  H216 6369   5.419   3.973   0.985
   16CHTO   O73 6370   5.454   3.797   0.875
   16CHTO  C113 6371   5.597   3.796   0.886
   16CHTO  H217 6372   5.633   3.901   0.884
   16CHTO  C124 6373   5.654   3.727   0.762
   16CHTO   O83 6374   5.608   3.592   0.745
   16CHTO  H204 6375   5.647   3.555   0.668
   16CHTO  C109 6376   5.643   3.728   1.018
   16CHTO  H213 6377   5.615   3.621   1.011
   16CHTO  C110 6378   5.570   3.793   1.140
   16CHTO  H214 6379   5.608   3.895   1.151
   16CHTO   O78 6380   5.606   3.720   1.259
   16CHTO  H200 6381   5.571   3.763   1.335
   16CHTO  C111 6382   5.416   3.797   1.118
   16CHTO  H215 6383   5.379   3.694   1.112
   16CHTO   N19 6384   5.342   3.864   1.228
   16CHTO  H207 6385   5.373   3.967   1.237
   16CHTO  H208 6386   5.236   3.859   1.210
   16CHTO   O74 6387   5.788   3.738   1.030
   16CHTO  C115 6388   5.856   3.611   1.098
   16CHTO  H219 6389   5.799   3.576   1.185
   16CHTO   O76 6390   5.857   3.487   1.000
   16CHTO  C122 6391   5.949   3.502   0.892
   16CHTO  H226 6392   5.916   3.586   0.831
   16CHTO  C126 6393   5.938   3.376   0.800
   16CHTO   O85 6394   5.808   3.359   0.742
   16CHTO  H206 6395   5.793   3.428   0.679
   16CHTO  C121 6396   6.098   3.525   0.941
   16CHTO  H225 6397   6.159   3.437   0.913
   16CHTO   O81 6398   6.153   3.639   0.873
   16CHTO  H202 6399   6.245   3.646   0.890
   16CHTO  C119 6400   6.106   3.544   1.096
   16CHTO  H223 6401   6.075   3.449   1.139
   16CHTO  C117 6402   6.002   3.653   1.144
   16CHTO  H221 6403   6.018   3.752   1.102
   16CHTO   N20 6404   6.008   3.672   1.292
   16CHTO  H209 6405   5.984   3.579   1.343
   16CHTO  H210 6406   6.106   3.706   1.322
   16CHTO   O80 6407   6.258   3.556   1.152
   16CHTO  C103 6408   6.360   3.441   1.122
   16CHTO  H190 6409   6.310   3.360   1.069
   16CHTO  C101 6410   6.487   3.482   1.041
   16CHTO  H188 6411   6.537   3.564   1.092
   16CHTO   O68 6412   6.443   3.530   0.904
   16CHTO  H168 6413   6.393   3.609   0.913
   16CHTO   C99 6414   6.590   3.359   1.030
   16CHTO  H186 6415   6.544   3.280   0.967
   16CHTO   N17 6416   6.721   3.395   0.966
   16CHTO  H174 6417   6.703   3.442   0.871
   16CHTO  H175 6418   6.782   3.306   0.955
   16CHTO   C97 6419   6.613   3.292   1.170
   16CHTO  H184 6420   6.679   3.357   1.229
   16CHTO   O64 6421   6.488   3.268   1.237
   16CHTO  C104 6422   6.407   3.384   1.260
   16CHTO  H191 6423   6.463   3.462   1.313
   16CHTO  C108 6424   6.290   3.347   1.352
   16CHTO   O71 6425   6.339   3.307   1.480
   16CHTO  H171 6426   6.266   3.285   1.536
   16CHTO   O62 6427   6.673   3.161   1.156
   16CHTO   C91 6428   6.721   3.098   1.276
   16CHTO  H178 6429   6.692   3.159   1.362
   16CHTO   C92 6430   6.877   3.092   1.277
   16CHTO  H179 6431   6.911   3.037   1.188
   16CHTO   O66 6432   6.927   3.226   1.261
   16CHTO  H166 6433   6.907   3.259   1.175
   16CHTO   C93 6434   6.933   3.025   1.409
   16CHTO  H180 6435   6.913   3.096   1.491
   16CHTO   N16 6436   7.081   3.007   1.407
   16CHTO  H172 6437   7.108   2.903   1.413
   16CHTO  H173 6438   7.127   3.063   1.487
   16CHTO   C94 6439   6.859   2.890   1.439
   16CHTO  H181 6440   6.887   2.811   1.368
   16CHTO   O61 6441   6.716   2.906   1.428
   16CHTO   C95 6442   6.669   2.951   1.301
   16CHTO  H182 6443   6.707   2.885   1.223
   16CHTO  C106 6444   6.513   2.942   1.298
   16CHTO   O69 6445   6.470   2.806   1.305
   16CHTO  H169 6446   6.376   2.803   1.306
   16CHTO   O63 6447   6.895   2.840   1.596
   16CHTO   C96 6448   6.793   2.734   1.661
   16CHTO  H183 6449   6.847   2.687   1.744
   16CHTO   C98 6450   6.748   2.619   1.565
   16CHTO  H185 6451   6.732   2.659   1.464
   16CHTO   O67 6452   6.859   2.528   1.552
   16CHTO  H167 6453   6.877   2.486   1.635
   16CHTO  C102 6454   6.614   2.544   1.614
   16CHTO  H189 6455   6.640   2.494   1.708
   16CHTO   N18 6456   6.565   2.437   1.523
   16CHTO  H176 6457   6.640   2.361   1.511
   16CHTO  H177 6458   6.475   2.393   1.565
   16CHTO  C105 6459   6.512   2.657   1.641
   16CHTO  H192 6460   6.510   2.724   1.554
   16CHTO   O65 6461   6.557   2.733   1.754
   16CHTO  C100 6462   6.672   2.815   1.725
   16CHTO  H187 6463   6.640   2.893   1.655
   16CHTO  C107 6464   6.718   2.887   1.854
   16CHTO   O70 6465   6.620   2.980   1.901
   16CHTO  H170 6466   6.614   3.052   1.841
   16CHTO   O57 6467   6.359   2.600   1.667
   16CHTO   C85 6468   6.256   2.656   1.584
   16CHTO  H157 6469   6.292   2.644   1.480
   16CHTO   C83 6470   6.246   2.810   1.608
   16CHTO  H155 6471   6.342   2.855   1.581
   16CHTO   O56 6472   6.228   2.835   1.749
   16CHTO  H135 6473   6.231   2.927   1.766
   16CHTO   C81 6474   6.136   2.869   1.516
   16CHTO  H153 6475   6.160   2.842   1.413
   16CHTO   N14 6476   6.136   3.017   1.516
   16CHTO  H141 6477   6.108   3.054   1.612
   16CHTO  H142 6478   6.066   3.054   1.443
   16CHTO   C79 6479   5.996   2.806   1.552
   16CHTO  H151 6480   5.925   2.842   1.478
   16CHTO   O52 6481   6.002   2.660   1.536
   16CHTO   C86 6482   6.113   2.591   1.604
   16CHTO  H158 6483   6.084   2.589   1.711
   16CHTO   C90 6484   6.118   2.443   1.558
   16CHTO   O60 6485   5.995   2.374   1.582
   16CHTO  H138 6486   5.982   2.364   1.674
   16CHTO   O50 6487   5.948   2.842   1.682
   16CHTO   C73 6488   5.841   2.801   1.769
   16CHTO  H145 6489   5.855   2.695   1.796
   16CHTO   C74 6490   5.703   2.816   1.698
   16CHTO  H146 6491   5.709   2.760   1.603
   16CHTO   O54 6492   5.606   2.749   1.780
   16CHTO  H133 6493   5.522   2.750   1.737
   16CHTO   C75 6494   5.671   2.969   1.675
   16CHTO  H147 6495   5.751   3.013   1.613
   16CHTO   N13 6496   5.545   2.993   1.601
   16CHTO  H139 6497   5.550   2.948   1.503
   16CHTO  H140 6498   5.462   2.950   1.655
   16CHTO   C76 6499   5.675   3.042   1.817
   16CHTO  H148 6500   5.598   2.997   1.880
   16CHTO   O49 6501   5.806   3.023   1.877
   16CHTO   C77 6502   5.842   2.886   1.901
   16CHTO  H149 6503   5.773   2.841   1.972
   16CHTO   C88 6504   5.980   2.885   1.968
   16CHTO   O58 6505   5.978   2.957   2.095
   16CHTO  H136 6506   6.064   2.954   2.134
   16CHTO   O51 6507   5.661   3.199   1.806
   16CHTO   C78 6508   5.574   3.262   1.921
   16CHTO  H150 6509   5.548   3.186   1.999
   16CHTO   C80 6510   5.443   3.318   1.861
   16CHTO  H152 6511   5.469   3.384   1.775
   16CHTO   O55 6512   5.368   3.207   1.808
   16CHTO  H134 6513   5.341   3.149   1.877
   16CHTO   C84 6514   5.358   3.400   1.967
   16CHTO  H156 6515   5.323   3.330   2.042
   16CHTO   N15 6516   5.237   3.465   1.907
   16CHTO  H143 6517   5.174   3.390   1.863
   16CHTO  H144 6518   5.182   3.517   1.982
   16CHTO   C87 6519   5.450   3.504   2.037
   16CHTO  H159 6520   5.480   3.581   1.966
   16CHTO   O53 6521   5.571   3.432   2.093
   16CHTO   C82 6522   5.654   3.373   1.991
   16CHTO  H154 6523   5.688   3.449   1.921
   16CHTO   C89 6524   5.779   3.320   2.065
   16CHTO   O59 6525   5.885   3.284   1.976
   16CHTO  H137 6526   5.861   3.208   1.927
   16CHTO   O45 6527   5.375   3.574   2.164
   16CHTO   C67 6528   5.453   3.679   2.223
   16CHTO  H124 6529   5.553   3.679   2.179
   16CHTO   C65 6530   5.387   3.819   2.194
   16CHTO  H122 6531   5.279   3.802   2.193
   16CHTO   O44 6532   5.431   3.856   2.062
   16CHTO  H102 6533   5.385   3.933   2.034
   16CHTO   C63 6534   5.410   3.923   2.312
   16CHTO  H120 6535   5.338   3.900   2.392
   16CHTO   N11 6536   5.378   4.067   2.283
   16CHTO  H108 6537   5.363   4.081   2.177
   16CHTO  H109 6538   5.290   4.098   2.335
   16CHTO   C61 6539   5.552   3.900   2.374
   16CHTO  H118 6540   5.562   3.969   2.460
   16CHTO   O40 6541   5.568   3.765   2.427
   16CHTO   C68 6542   5.476   3.661   2.379
   16CHTO  H125 6543   5.380   3.670   2.433
   16CHTO   C72 6544   5.537   3.524   2.418
   16CHTO   O48 6545   5.448   3.414   2.395
   16CHTO  H105 6546   5.488   3.335   2.424
   16CHTO   O38 6547   5.655   3.926   2.277
   16CHTO   C55 6548   5.790   3.942   2.324
   16CHTO  H112 6549   5.803   3.890   2.420
   16CHTO   C56 6550   5.826   4.097   2.334
   16CHTO  H113 6551   5.792   4.144   2.241
   16CHTO   O42 6552   5.749   4.157   2.440
   16CHTO  H100 6553   5.657   4.154   2.420
   16CHTO   C57 6554   5.981   4.120   2.355
   16CHTO  H114 6555   6.006   4.084   2.455
   16CHTO   N10 6556   6.020   4.263   2.347
   16CHTO  H106 6557   6.108   4.281   2.408
   16CHTO  H107 6558   6.041   4.292   2.245
   16CHTO   C58 6559   6.059   4.034   2.251
   16CHTO  H115 6560   6.035   4.071   2.148
   16CHTO   O37 6561   6.022   3.896   2.263
   16CHTO   C59 6562   5.886   3.871   2.224
   16CHTO  H116 6563   5.869   3.908   2.122
   16CHTO   C70 6564   5.863   3.719   2.220
   16CHTO   O46 6565   5.886   3.654   2.346
   16CHTO  H103 6566   5.873   3.562   2.336
   16CHTO   O39 6567   6.220   4.039   2.274
   16CHTO   C60 6568   6.290   3.982   2.162
   16CHTO  H117 6569   6.227   3.908   2.113
   16CHTO   C62 6570   6.325   4.090   2.056
   16CHTO  H119 6571   6.228   4.139   2.029
   16CHTO   O43 6572   6.410   4.191   2.113
   16CHTO  H101 6573   6.493   4.154   2.137
   16CHTO   C66 6574   6.385   4.018   1.927
   16CHTO  H123 6575   6.313   3.944   1.891
   16CHTO   N12 6576   6.405   4.112   1.813
   16CHTO  H110 6577   6.473   4.191   1.842
   16CHTO  H111 6578   6.310   4.152   1.781
   16CHTO   C69 6579   6.514   3.941   1.965
   16CHTO  H126 6580   6.595   4.012   1.993
   16CHTO   O41 6581   6.486   3.843   2.087
   16CHTO   C64 6582   6.419   3.907   2.208
   16CHTO  H121 6583   6.489   3.979   2.256
   16CHTO   C71 6584   6.388   3.793   2.308
   16CHTO   O47 6585   6.349   3.844   2.436
   16CHTO  H104 6586   6.332   3.772   2.495
   16CHTO   O34 6587   6.563   3.855   1.845
   16CHTO   C49 6588   6.673   3.762   1.803
   16CHTO   H91 6589   6.718   3.806   1.715
   16CHTO   C47 6590   6.611   3.625   1.767
   16CHTO   H89 6591   6.693   3.566   1.720
   16CHTO   O33 6592   6.508   3.646   1.669
   16CHTO   H70 6593   6.435   3.691   1.707
   16CHTO   C45 6594   6.561   3.552   1.901
   16CHTO   H87 6595   6.490   3.618   1.952
   16CHTO    N8 6596   6.492   3.423   1.873
   16CHTO   H75 6597   6.408   3.440   1.807
   16CHTO   H76 6598   6.457   3.380   1.966
   16CHTO   C43 6599   6.686   3.535   2.001
   16CHTO   H85 6600   6.644   3.493   2.093
   16CHTO   O29 6601   6.749   3.663   2.025
   16CHTO   C50 6602   6.783   3.746   1.912
   16CHTO   H92 6603   6.802   3.846   1.953
   16CHTO   C54 6604   6.921   3.706   1.854
   16CHTO   O36 6605   6.968   3.797   1.754
   16CHTO   H72 6606   6.913   3.792   1.678
   16CHTO   O27 6607   6.782   3.439   1.954
   16CHTO   C37 6608   6.892   3.362   2.004
   16CHTO   H79 6609   6.978   3.427   2.026
   16CHTO   C38 6610   6.854   3.289   2.137
   16CHTO   H80 6611   6.758   3.237   2.121
   16CHTO   O31 6612   6.835   3.391   2.237
   16CHTO   H68 6613   6.800   3.353   2.316
   16CHTO   C39 6614   6.963   3.186   2.184
   16CHTO   H81 6615   7.047   3.243   2.222
   16CHTO    N7 6616   6.915   3.099   2.297
   16CHTO   H73 6617   6.830   3.041   2.266
   16CHTO   H74 6618   6.995   3.034   2.330
   16CHTO   C40 6619   7.017   3.098   2.065
   16CHTO   H82 6620   6.946   3.019   2.039
   16CHTO   O26 6621   7.049   3.180   1.951
   16CHTO   C41 6622   6.937   3.256   1.899
   16CHTO   H83 6623   6.853   3.188   1.877
   16CHTO   C52 6624   6.984   3.318   1.765
   16CHTO   O35 6625   6.874   3.378   1.686
   16CHTO   H71 6626   6.815   3.311   1.657
   16CHTO   O28 6627   7.145   3.040   2.098
   16CHTO   C42 6628   7.184   2.905   2.055
   16CHTO   H84 6629   7.293   2.907   2.066
   16CHTO   C44 6630   7.157   2.867   1.906
   16CHTO   H86 6631   7.049   2.873   1.887
   16CHTO   O32 6632   7.223   2.966   1.825
   16CHTO   H69 6633   7.204   2.952   1.735
   16CHTO   C48 6634   7.205   2.720   1.872
   16CHTO   H90 6635   7.313   2.715   1.883
   16CHTO    N9 6636   7.176   2.682   1.730
   16CHTO   H77 6637   7.227   2.750   1.663
   16CHTO   H78 6638   7.209   2.580   1.711
   16CHTO   C51 6639   7.140   2.620   1.975
   16CHTO   H93 6640   7.031   2.626   1.964
   16CHTO   O30 6641   7.181   2.657   2.108
   16CHTO   C46 6642   7.131   2.795   2.152
   16CHTO   H88 6643   7.022   2.795   2.149
   16CHTO   C53 6644   7.181   2.819   2.296
   16CHTO   O72 6645   7.124   2.725   2.388
   16CHTO  H199 6646   7.161   2.640   2.373
   16CHTO   O22 6647   7.187   2.485   1.959
   16CHTO   C31 6648   7.096   2.372   1.988
   16CHTO   H59 6649   7.023   2.408   2.063
   16CHTO   C29 6650   7.015   2.324   1.865
   16CHTO   H57 6651   7.088   2.294   1.787
   16CHTO   O21 6652   6.941   2.436   1.814
   16CHTO   H37 6653   6.905   2.415   1.730
   16CHTO   C27 6654   6.921   2.202   1.898
   16CHTO   H55 6655   6.839   2.237   1.963
   16CHTO    N5 6656   6.860   2.144   1.775
   16CHTO   H43 6657   6.807   2.220   1.720
   16CHTO   H44 6658   6.791   2.065   1.802
   16CHTO   C25 6659   6.999   2.093   1.979
   16CHTO   H53 6660   7.071   2.042   1.913
   16CHTO   O17 6661   7.073   2.151   2.090
   16CHTO   C32 6662   7.169   2.250   2.053
   16CHTO   H60 6663   7.239   2.209   1.980
   16CHTO   C36 6664   7.247   2.293   2.179
   16CHTO   O25 6665   7.321   2.182   2.233
   16CHTO   H40 6666   7.364   2.209   2.312
   16CHTO   O15 6667   6.899   1.984   2.040
   16CHTO   C19 6668   6.792   1.976   2.139
   16CHTO   H47 6669   6.798   1.873   2.176
   16CHTO   C20 6670   6.808   2.072   2.261
   16CHTO   H48 6671   6.812   2.178   2.229
   16CHTO   O19 6672   6.934   2.040   2.323
   16CHTO   H35 6673   7.005   2.065   2.268
   16CHTO   C21 6674   6.690   2.056   2.365
   16CHTO   H49 6675   6.697   1.958   2.411
   16CHTO    N4 6676   6.695   2.155   2.476
   16CHTO   H41 6677   6.787   2.142   2.532
   16CHTO   H42 6678   6.692   2.255   2.437
   16CHTO   C22 6679   6.553   2.060   2.290
   16CHTO   H50 6680   6.535   2.161   2.253
   16CHTO   O14 6681   6.551   1.967   2.181
   16CHTO   C23 6682   6.649   1.991   2.079
   16CHTO   H51 6683   6.632   2.092   2.038
   16CHTO   C34 6684   6.626   1.889   1.966
   16CHTO   O23 6685   6.498   1.906   1.904
   16CHTO   H38 6686   6.430   1.881   1.963
   16CHTO   O16 6687   6.446   2.017   2.377
   16CHTO   C24 6688   6.300   2.049   2.321
   16CHTO   H52 6689   6.301   2.074   2.215
   16CHTO   C26 6690   6.239   2.166   2.400
   16CHTO   H54 6691   6.245   2.142   2.509
   16CHTO   O20 6692   6.318   2.284   2.377
   16CHTO   H36 6693   6.314   2.309   2.287
   16CHTO   C30 6694   6.088   2.188   2.364
   16CHTO   H58 6695   6.081   2.221   2.259
   16CHTO    N6 6696   6.025   2.296   2.445
   16CHTO   H45 6697   6.096   2.340   2.514
   16CHTO   H46 6698   5.941   2.258   2.502
   16CHTO   C33 6699   6.011   2.053   2.372
   16CHTO   H61 6700   6.009   2.018   2.477
   16CHTO   O18 6701   6.079   1.954   2.293
   16CHTO   C28 6702   6.212   1.922   2.336
   16CHTO   H56 6703   6.211   1.892   2.441
   16CHTO   C35 6704   6.265   1.803   2.252
   16CHTO   O24 6705   6.267   1.829   2.111
   16CHTO   H39 6706   6.299   1.754   2.066
   16CHTO    O9 6707   5.873   2.065   2.332
   16CHTO   C13 6708   5.770   1.970   2.418
   16CHTO   H26 6709   5.776   2.003   2.524
   16CHTO   C11 6710   5.809   1.817   2.400
   16CHTO   H24 6711   5.902   1.799   2.458
   16CHTO    O8 6712   5.837   1.788   2.262
   16CHTO    H3 6713   5.868   1.700   2.253
   16CHTO    C9 6714   5.694   1.732   2.459
   16CHTO   H22 6715   5.676   1.772   2.560
   16CHTO    N2 6716   5.733   1.590   2.482
   16CHTO   H10 6717   5.664   1.523   2.433
   16CHTO   H11 6718   5.737   1.568   2.588
   16CHTO    C7 6719   5.563   1.755   2.372
   16CHTO   H20 6720   5.481   1.756   2.447
   16CHTO    O4 6721   5.564   1.882   2.302
   16CHTO   C14 6722   5.617   1.994   2.375
   16CHTO   H27 6723   5.556   2.006   2.468
   16CHTO   C18 6724   5.595   2.121   2.290
   16CHTO   O13 6725   5.631   2.239   2.363
   16CHTO    H7 6726   5.614   2.314   2.310
   16CHTO    O2 6727   5.536   1.634   2.260
   16CHTO    C1 6728   5.402   1.614   2.210
   16CHTO   H14 6729   5.406   1.526   2.143
   16CHTO    C2 6730   5.342   1.736   2.129
   16CHTO   H15 6731   5.340   1.822   2.197
   16CHTO    O6 6732   5.428   1.763   2.017
   16CHTO    H1 6733   5.510   1.797   2.046
   16CHTO    C3 6734   5.193   1.701   2.080
   16CHTO   H16 6735   5.198   1.619   2.008
   16CHTO    N1 6736   5.127   1.817   2.010
   16CHTO    H8 6737   5.027   1.789   1.980
   16CHTO    H9 6738   5.185   1.845   1.924
   16CHTO    C4 6739   5.107   1.647   2.202
   16CHTO   H17 6740   5.089   1.729   2.272
   16CHTO    O1 6741   5.176   1.540   2.268
   16CHTO    C5 6742   5.304   1.574   2.324
   16CHTO   H18 6743   5.292   1.659   2.391
   16CHTO   C16 6744   5.355   1.453   2.405
   16CHTO   O11 6745   5.271   1.428   2.519
   16CHTO    H5 6746   5.306   1.355   2.568
   16CHTO    O3 6747   4.983   1.587   2.159
   16CHTO    C6 6748   4.863   1.620   2.238
   16CHTO   H19 6749   4.883   1.692   2.317
   16CHTO    C8 6750   4.754   1.682   2.144
   16CHTO   H21 6751   4.739   1.614   2.060
   16CHTO    O7 6752   4.806   1.808   2.095
   16CHTO    H2 6753   4.818   1.869   2.165
   16CHTO   C12 6754   4.617   1.702   2.220
   16CHTO   H25 6755   4.636   1.779   2.298
   16CHTO    N3 6756   4.510   1.756   2.129
   16CHTO   H12 6757   4.471   1.849   2.168
   16CHTO   H13 6758   4.430   1.684   2.117
   16CHTO   C15 6759   4.577   1.568   2.293
   16CHTO   H28 6760   4.549   1.491   2.221
   16CHTO   O10 6761   4.461   1.589   2.395
   16CHTO    H4 6762   4.484   1.656   2.457
   16CHTO    O5 6763   4.684   1.521   2.377
   16CHTO   C10 6764   4.806   1.492   2.307
   16CHTO   H23 6765   4.785   1.416   2.231
   16CHTO   C17 6766   4.903   1.429   2.408
   16CHTO   O12 6767   4.935   1.518   2.516
   16CHTO    H6 6768   4.993   1.475   2.575
   17CHTO  H203 6769   4.667   4.426   0.486
   17CHTO   O82 6770   4.719   4.459   0.556
   17CHTO  C123 6771   4.643   4.553   0.633
   17CHTO  H227 6772   4.554   4.503   0.675
   17CHTO   O77 6773   4.735   4.589   0.741
   17CHTO  C118 6774   4.677   4.675   0.841
   17CHTO  H222 6775   4.586   4.628   0.881
   17CHTO  C125 6776   4.782   4.691   0.958
   17CHTO   O84 6777   4.906   4.746   0.913
   17CHTO  H205 6778   4.894   4.835   0.886
   17CHTO  C114 6779   4.641   4.811   0.778
   17CHTO  H218 6780   4.732   4.859   0.744
   17CHTO  C116 6781   4.549   4.793   0.653
   17CHTO  H220 6782   4.446   4.766   0.687
   17CHTO   O79 6783   4.536   4.921   0.587
   17CHTO  H201 6784   4.473   4.915   0.517
   17CHTO  C120 6785   4.604   4.683   0.553
   17CHTO  H224 6786   4.695   4.726   0.506
   17CHTO   N21 6787   4.508   4.653   0.444
   17CHTO  H211 6788   4.524   4.720   0.360
   17CHTO  H212 6789   4.406   4.661   0.480
   17CHTO   O75 6790   4.582   4.887   0.886
   17CHTO  C112 6791   4.590   5.052   0.869
   17CHTO  H216 6792   4.543   5.080   0.773
   17CHTO   O73 6793   4.729   5.090   0.872
   17CHTO  C113 6794   4.749   5.228   0.837
   17CHTO  H217 6795   4.710   5.244   0.735
   17CHTO  C124 6796   4.900   5.256   0.831
   17CHTO   O83 6797   4.968   5.230   0.954
   17CHTO  H204 6798   5.060   5.249   0.944
   17CHTO  C109 6799   4.678   5.325   0.936
   17CHTO  H213 6800   4.734   5.320   1.031
   17CHTO  C110 6801   4.530   5.282   0.961
   17CHTO  H214 6802   4.471   5.311   0.874
   17CHTO   O78 6803   4.480   5.359   1.072
   17CHTO  H200 6804   4.527   5.338   1.151
   17CHTO  C111 6805   4.517   5.129   0.985
   17CHTO  H215 6806   4.568   5.104   1.079
   17CHTO   N19 6807   4.377   5.081   0.998
   17CHTO  H207 6808   4.307   5.164   0.992
   17CHTO  H208 6809   4.363   5.029   1.091
   17CHTO   O74 6810   4.685   5.461   0.883
   17CHTO  C115 6811   4.755   5.578   0.980
   17CHTO  H219 6812   4.681   5.628   1.042
   17CHTO   O76 6813   4.860   5.517   1.078
   17CHTO  C122 6814   4.920   5.609   1.169
   17CHTO  H226 6815   5.000   5.555   1.220
   17CHTO  C126 6816   4.818   5.648   1.282
   17CHTO   O85 6817   4.771   5.535   1.356
   17CHTO  H206 6818   4.842   5.498   1.406
   17CHTO  C121 6819   4.982   5.736   1.097
   17CHTO  H225 6820   5.001   5.814   1.174
   17CHTO   O81 6821   5.109   5.699   1.042
   17CHTO  H202 6822   5.156   5.776   1.015
   17CHTO  C119 6823   4.890   5.798   0.986
   17CHTO  H223 6824   4.809   5.847   1.040
   17CHTO  C117 6825   4.826   5.688   0.892
   17CHTO  H221 6826   4.897   5.633   0.830
   17CHTO   N20 6827   4.729   5.751   0.796
   17CHTO  H209 6828   4.690   5.676   0.729
   17CHTO  H210 6829   4.648   5.798   0.851
   17CHTO   O80 6830   4.961   5.925   0.908
   17CHTO  C103 6831   4.997   6.059   0.988
   17CHTO  H190 6832   4.954   6.058   1.088
   17CHTO  C101 6833   5.151   6.093   0.998
   17CHTO  H188 6834   5.196   6.081   0.900
   17CHTO   O68 6835   5.218   5.992   1.096
   17CHTO  H168 6836   5.211   5.905   1.061
   17CHTO   C99 6837   5.174   6.245   1.045
   17CHTO  H186 6838   5.133   6.258   1.147
   17CHTO   N17 6839   5.318   6.286   1.051
   17CHTO  H174 6840   5.372   6.221   1.118
   17CHTO  H175 6841   5.362   6.284   0.952
   17CHTO   C97 6842   5.092   6.341   0.953
   17CHTO  H184 6843   5.132   6.334   0.851
   17CHTO   O64 6844   4.953   6.303   0.960
   17CHTO  C104 6845   4.924   6.173   0.906
   17CHTO  H191 6846   4.955   6.167   0.802
   17CHTO  C108 6847   4.772   6.154   0.906
   17CHTO   O71 6848   4.715   6.165   1.037
   17CHTO  H171 6849   4.742   6.093   1.090
   17CHTO   O62 6850   5.094   6.479   0.998
   17CHTO   C91 6851   5.046   6.577   0.904
   17CHTO  H178 6852   4.993   6.525   0.824
   17CHTO   C92 6853   5.168   6.649   0.834
   17CHTO  H179 6854   5.243   6.575   0.804
   17CHTO   O66 6855   5.121   6.709   0.713
   17CHTO  H166 6856   5.096   6.643   0.651
   17CHTO   C93 6857   5.231   6.765   0.921
   17CHTO  H180 6858   5.291   6.827   0.853
   17CHTO   N16 6859   5.327   6.714   1.022
   17CHTO  H172 6860   5.407   6.661   0.972
   17CHTO  H173 6861   5.367   6.796   1.080
   17CHTO   C94 6862   5.119   6.855   0.988
   17CHTO  H181 6863   5.115   6.842   1.097
   17CHTO   O61 6864   4.987   6.821   0.941
   17CHTO   C95 6865   4.949   6.685   0.969
   17CHTO  H182 6866   4.949   6.671   1.077
   17CHTO  C106 6867   4.801   6.662   0.925
   17CHTO   O69 6868   4.782   6.686   0.785
   17CHTO  H169 6869   4.793   6.778   0.766
   17CHTO   O63 6870   5.150   7.008   0.955
   17CHTO   C96 6871   5.052   7.109   1.031
   17CHTO  H183 6872   4.975   7.050   1.083
   17CHTO   C98 6873   4.980   7.209   0.938
   17CHTO  H185 6874   5.054   7.266   0.879
   17CHTO   O67 6875   4.906   7.132   0.842
   17CHTO  H167 6876   4.866   7.188   0.779
   17CHTO  C102 6877   4.884   7.309   1.021
   17CHTO  H189 6878   4.806   7.245   1.065
   17CHTO   N18 6879   4.811   7.409   0.939
   17CHTO  H176 6880   4.835   7.399   0.834
   17CHTO  H177 6881   4.833   7.510   0.972
   17CHTO  C105 6882   4.966   7.372   1.137
   17CHTO  H192 6883   5.038   7.443   1.095
   17CHTO   O65 6884   5.038   7.274   1.214
   17CHTO  C100 6885   5.130   7.192   1.140
   17CHTO  H187 6886   5.203   7.257   1.089
   17CHTO  C107 6887   5.207   7.101   1.238
   17CHTO   O70 6888   5.285   7.178   1.330
   17CHTO  H170 6889   5.331   7.121   1.388
   17CHTO   O57 6890   4.860   7.447   1.235
   17CHTO   C85 6891   4.876   7.586   1.270
   17CHTO  H157 6892   4.877   7.642   1.174
   17CHTO   C83 6893   5.016   7.612   1.336
   17CHTO  H155 6894   5.093   7.591   1.261
   17CHTO   O56 6895   5.037   7.518   1.443
   17CHTO  H135 6896   5.041   7.430   1.409
   17CHTO   C81 6897   5.026   7.761   1.378
   17CHTO  H153 6898   5.009   7.823   1.289
   17CHTO   N14 6899   5.163   7.799   1.423
   17CHTO  H141 6900   5.161   7.843   1.520
   17CHTO  H142 6901   5.208   7.868   1.354
   17CHTO   C79 6902   4.914   7.795   1.483
   17CHTO  H151 6903   4.920   7.902   1.504
   17CHTO   O52 6904   4.782   7.772   1.423
   17CHTO   C86 6905   4.763   7.638   1.368
   17CHTO  H158 6906   4.757   7.573   1.458
   17CHTO   C90 6907   4.624   7.628   1.300
   17CHTO   O60 6908   4.608   7.725   1.196
   17CHTO  H138 6909   4.522   7.719   1.161
   17CHTO   O50 6910   4.926   7.725   1.609
   17CHTO   C73 6911   4.900   7.731   1.750
   17CHTO  H145 6912   4.875   7.834   1.780
   17CHTO   C74 6913   5.025   7.684   1.830
   17CHTO  H146 6914   5.108   7.750   1.802
   17CHTO   O54 6915   5.001   7.707   1.970
   17CHTO  H133 6916   5.076   7.682   2.020
   17CHTO   C75 6917   5.056   7.533   1.795
   17CHTO  H147 6918   5.084   7.528   1.689
   17CHTO   N13 6919   5.173   7.477   1.867
   17CHTO  H139 6920   5.262   7.533   1.844
   17CHTO  H140 6921   5.189   7.374   1.837
   17CHTO   C76 6922   4.924   7.443   1.813
   17CHTO  H148 6923   4.904   7.432   1.920
   17CHTO   O49 6924   4.808   7.502   1.747
   17CHTO   C77 6925   4.780   7.637   1.787
   17CHTO  H149 6926   4.764   7.642   1.895
   17CHTO   C88 6927   4.647   7.680   1.723
   17CHTO   O58 6928   4.604   7.813   1.771
   17CHTO  H136 6929   4.581   7.808   1.862
   17CHTO   O51 6930   4.946   7.306   1.740
   17CHTO   C78 6931   4.830   7.202   1.759
   17CHTO  H150 6932   4.737   7.251   1.795
   17CHTO   C80 6933   4.873   7.094   1.860
   17CHTO  H152 6934   4.975   7.059   1.833
   17CHTO   O55 6935   4.881   7.159   1.989
   17CHTO  H134 6936   4.915   7.099   2.053
   17CHTO   C84 6937   4.774   6.970   1.862
   17CHTO  H156 6938   4.678   7.005   1.900
   17CHTO   N15 6939   4.821   6.861   1.954
   17CHTO  H143 6940   4.827   6.898   2.054
   17CHTO  H144 6941   4.918   6.827   1.923
   17CHTO   C87 6942   4.756   6.919   1.717
   17CHTO  H159 6943   4.852   6.885   1.678
   17CHTO   O53 6944   4.703   7.036   1.631
   17CHTO   C82 6945   4.800   7.142   1.620
   17CHTO  H154 6946   4.892   7.104   1.575
   17CHTO   C89 6947   4.745   7.252   1.526
   17CHTO   O59 6948   4.730   7.205   1.391
   17CHTO  H137 6949   4.661   7.142   1.387
   17CHTO   O45 6950   4.649   6.790   1.703
   17CHTO   C67 6951   4.512   6.812   1.737
   17CHTO  H124 6952   4.507   6.872   1.829
   17CHTO   C65 6953   4.433   6.888   1.624
   17CHTO  H122 6954   4.505   6.910   1.545
   17CHTO   O44 6955   4.383   7.011   1.677
   17CHTO  H102 6956   4.454   7.067   1.702
   17CHTO   C63 6957   4.326   6.795   1.555
   17CHTO  H120 6958   4.377   6.709   1.512
   17CHTO   N11 6959   4.257   6.852   1.434
   17CHTO  H108 6960   4.196   6.777   1.388
   17CHTO  H109 6961   4.330   6.887   1.364
   17CHTO   C61 6962   4.228   6.738   1.666
   17CHTO  H118 6963   4.177   6.652   1.620
   17CHTO   O40 6964   4.299   6.688   1.783
   17CHTO   C68 6965   4.444   6.673   1.773
   17CHTO  H125 6966   4.467   6.598   1.694
   17CHTO   C72 6967   4.494   6.615   1.907
   17CHTO   O48 6968   4.631   6.574   1.904
   17CHTO  H105 6969   4.641   6.499   1.848
   17CHTO   O38 6970   4.131   6.837   1.709
   17CHTO   C55 6971   4.044   6.807   1.820
   17CHTO  H112 6972   4.102   6.759   1.901
   17CHTO   C56 6973   3.920   6.717   1.777
   17CHTO  H113 6974   3.874   6.767   1.690
   17CHTO   O42 6975   3.965   6.589   1.730
   17CHTO  H100 6976   4.010   6.543   1.798
   17CHTO   C57 6977   3.816   6.702   1.895
   17CHTO  H114 6978   3.864   6.640   1.970
   17CHTO   N10 6979   3.690   6.635   1.855
   17CHTO  H106 6980   3.648   6.583   1.939
   17CHTO  H107 6981   3.709   6.564   1.775
   17CHTO   C58 6982   3.786   6.841   1.958
   17CHTO  H115 6983   3.729   6.903   1.884
   17CHTO   O37 6984   3.907   6.911   1.993
   17CHTO   C59 6985   3.993   6.940   1.882
   17CHTO  H116 6986   3.939   6.999   1.807
   17CHTO   C70 6987   4.112   7.023   1.932
   17CHTO   O46 6988   4.073   7.148   1.990
   17CHTO  H103 6989   4.038   7.205   1.924
   17CHTO   O39 6990   3.703   6.825   2.099
   17CHTO   C60 6991   3.601   6.926   2.112
   17CHTO  H117 6992   3.638   7.020   2.070
   17CHTO   C62 6993   3.472   6.886   2.035
   17CHTO  H119 6994   3.503   6.868   1.929
   17CHTO   O43 6995   3.420   6.762   2.087
   17CHTO  H101 6996   3.480   6.692   2.071
   17CHTO   C66 6997   3.368   7.007   2.039
   17CHTO  H123 6998   3.417   7.096   2.000
   17CHTO   N12 6999   3.252   6.983   1.949
   17CHTO  H110 7000   3.199   6.894   1.980
   17CHTO  H111 7001   3.186   7.069   1.949
   17CHTO   C69 7002   3.327   7.035   2.186
   17CHTO  H126 7003   3.273   6.947   2.228
   17CHTO   O41 7004   3.458   7.065   2.274
   17CHTO   C64 7005   3.570   6.954   2.261
   17CHTO  H121 7006   3.535   6.860   2.309
   17CHTO   C71 7007   3.698   7.001   2.335
   17CHTO   O47 7008   3.674   7.020   2.475
   17CHTO  H104 7009   3.618   7.095   2.488
   17CHTO   O34 7010   3.230   7.159   2.193
   17CHTO   C49 7011   3.140   7.250   2.272
   17CHTO   H91 7012   3.205   7.316   2.330
   17CHTO   C47 7013   3.052   7.165   2.365
   17CHTO   H89 7014   2.999   7.239   2.430
   17CHTO   O33 7015   3.134   7.083   2.451
   17CHTO   H70 7016   3.081   7.041   2.516
   17CHTO   C45 7017   2.948   7.073   2.282
   17CHTO   H87 7018   2.993   6.975   2.266
   17CHTO    N8 7019   2.825   7.055   2.364
   17CHTO   H75 7020   2.774   7.150   2.376
   17CHTO   H76 7021   2.759   6.984   2.317
   17CHTO   C43 7022   2.925   7.133   2.133
   17CHTO   H85 7023   3.010   7.097   2.075
   17CHTO   O29 7024   2.921   7.277   2.139
   17CHTO   C50 7025   3.047   7.336   2.180
   17CHTO   H92 7026   3.103   7.359   2.088
   17CHTO   C54 7027   3.020   7.477   2.239
   17CHTO   O36 7028   2.930   7.473   2.351
   17CHTO   H72 7029   2.971   7.429   2.423
   17CHTO   O27 7030   2.810   7.078   2.066
   17CHTO   C37 7031   2.774   7.010   1.945
   17CHTO   H79 7032   2.664   7.012   1.933
   17CHTO   C38 7033   2.833   7.081   1.819
   17CHTO   H80 7034   2.943   7.088   1.832
   17CHTO   O31 7035   2.778   7.214   1.815
   17CHTO   H68 7036   2.817   7.262   1.744
   17CHTO   C39 7037   2.801   6.999   1.688
   17CHTO   H81 7038   2.693   7.003   1.673
   17CHTO    N7 7039   2.863   7.059   1.565
   17CHTO   H73 7040   2.971   7.058   1.574
   17CHTO   H74 7041   2.833   7.003   1.477
   17CHTO   C40 7042   2.841   6.847   1.706
   17CHTO   H82 7043   2.950   6.837   1.706
   17CHTO   O26 7044   2.781   6.795   1.825
   17CHTO   C41 7045   2.822   6.863   1.948
   17CHTO   H83 7046   2.931   6.860   1.958
   17CHTO   C52 7047   2.761   6.785   2.068
   17CHTO   O35 7048   2.815   6.648   2.077
   17CHTO   H71 7049   2.776   6.605   2.151
   17CHTO   O28 7050   2.786   6.765   1.601
   17CHTO   C42 7051   2.845   6.635   1.564
   17CHTO   H84 7052   2.774   6.594   1.492
   17CHTO   C44 7053   2.856   6.528   1.679
   17CHTO   H86 7054   2.916   6.570   1.760
   17CHTO   O32 7055   2.723   6.507   1.730
   17CHTO   H69 7056   2.668   6.467   1.665
   17CHTO   C48 7057   2.924   6.393   1.632
   17CHTO   H90 7058   2.857   6.343   1.562
   17CHTO    N9 7059   2.945   6.296   1.745
   17CHTO   H77 7060   2.991   6.205   1.708
   17CHTO   H78 7061   2.850   6.273   1.791
   17CHTO   C51 7062   3.058   6.426   1.557
   17CHTO   H93 7063   3.125   6.475   1.627
   17CHTO   O30 7064   3.026   6.511   1.446
   17CHTO   C46 7065   2.981   6.648   1.491
   17CHTO   H88 7066   3.056   6.690   1.559
   17CHTO   C53 7067   2.970   6.738   1.365
   17CHTO   O72 7068   3.096   6.755   1.300
   17CHTO  H199 7069   3.084   6.807   1.222
   17CHTO   O22 7070   3.121   6.311   1.497
   17CHTO   C31 7071   3.268   6.295   1.489
   17CHTO   H59 7072   3.309   6.329   1.587
   17CHTO   C29 7073   3.309   6.147   1.472
   17CHTO   H57 7074   3.251   6.108   1.386
   17CHTO   O21 7075   3.262   6.074   1.587
   17CHTO   H37 7076   3.311   6.098   1.663
   17CHTO   C27 7077   3.463   6.124   1.443
   17CHTO   H55 7078   3.520   6.155   1.533
   17CHTO    N5 7079   3.498   5.983   1.412
   17CHTO   H43 7080   3.448   5.952   1.321
   17CHTO   H44 7081   3.605   5.972   1.402
   17CHTO   C25 7082   3.506   6.220   1.327
   17CHTO   H53 7083   3.447   6.196   1.237
   17CHTO   O17 7084   3.475   6.355   1.370
   17CHTO   C32 7085   3.337   6.386   1.381
   17CHTO   H60 7086   3.287   6.370   1.285
   17CHTO   C36 7087   3.336   6.537   1.415
   17CHTO   O25 7088   3.382   6.615   1.304
   17CHTO   H40 7089   3.380   6.706   1.327
   17CHTO   O15 7090   3.666   6.216   1.291
   17CHTO   C19 7091   3.730   6.333   1.231
   17CHTO   H47 7092   3.826   6.294   1.195
   17CHTO   C20 7093   3.651   6.393   1.109
   17CHTO   H48 7094   3.546   6.412   1.134
   17CHTO   O19 7095   3.652   6.295   1.004
   17CHTO   H35 7096   3.602   6.220   1.029
   17CHTO   C21 7097   3.711   6.531   1.058
   17CHTO   H49 7098   3.809   6.512   1.013
   17CHTO    N4 7099   3.627   6.595   0.954
   17CHTO   H41 7100   3.528   6.616   0.994
   17CHTO   H42 7101   3.672   6.688   0.921
   17CHTO   C22 7102   3.734   6.622   1.182
   17CHTO   H50 7103   3.638   6.636   1.231
   17CHTO   O14 7104   3.826   6.555   1.270
   17CHTO   C23 7105   3.765   6.444   1.336
   17CHTO   H51 7106   3.675   6.481   1.387
   17CHTO   C34 7107   3.862   6.396   1.445
   17CHTO   O23 7108   3.799   6.301   1.532
   17CHTO   H38 7109   3.735   6.344   1.586
   17CHTO   O16 7110   3.792   6.750   1.152
   17CHTO   C24 7111   3.845   6.841   1.282
   17CHTO   H52 7112   3.926   6.792   1.335
   17CHTO   C26 7113   3.732   6.873   1.383
   17CHTO   H54 7114   3.645   6.914   1.327
   17CHTO   O20 7115   3.689   6.752   1.448
   17CHTO   H36 7116   3.760   6.714   1.498
   17CHTO   C30 7117   3.777   6.980   1.489
   17CHTO   H58 7118   3.854   6.936   1.555
   17CHTO    N6 7119   3.665   7.022   1.577
   17CHTO   H45 7120   3.626   6.936   1.631
   17CHTO   H46 7121   3.700   7.095   1.649
   17CHTO   C33 7122   3.846   7.101   1.419
   17CHTO   H61 7123   3.772   7.156   1.357
   17CHTO   O18 7124   3.950   7.052   1.333
   17CHTO   C28 7125   3.903   6.972   1.224
   17CHTO   H56 7126   3.824   7.025   1.169
   17CHTO   C35 7127   4.019   6.942   1.127
   17CHTO   O24 7128   4.072   7.062   1.070
   17CHTO   H39 7129   4.142   7.041   1.012
   17CHTO    O9 7130   3.896   7.198   1.513
   17CHTO   C13 7131   3.983   7.312   1.444
   17CHTO   H26 7132   3.982   7.297   1.334
   17CHTO   C11 7133   4.131   7.308   1.501
   17CHTO   H24 7134   4.172   7.208   1.476
   17CHTO    O8 7135   4.133   7.319   1.644
   17CHTO    H3 7136   4.100   7.403   1.671
   17CHTO    C9 7137   4.212   7.415   1.424
   17CHTO   H22 7138   4.205   7.387   1.318
   17CHTO    N2 7139   4.358   7.409   1.453
   17CHTO   H10 7140   4.410   7.478   1.389
   17CHTO   H11 7141   4.394   7.309   1.437
   17CHTO    C7 7142   4.148   7.558   1.443
   17CHTO   H20 7143   4.194   7.616   1.361
   17CHTO    O4 7144   4.005   7.562   1.423
   17CHTO   C14 7145   3.918   7.455   1.465
   17CHTO   H27 7146   3.829   7.460   1.399
   17CHTO   C18 7147   3.868   7.477   1.610
   17CHTO   O13 7148   3.786   7.594   1.621
   17CHTO    H7 7149   3.839   7.671   1.609
   17CHTO    O2 7150   4.184   7.626   1.587
   17CHTO    C1 7151   4.190   7.770   1.584
   17CHTO   H14 7152   4.106   7.809   1.522
   17CHTO    C2 7153   4.327   7.829   1.526
   17CHTO   H15 7154   4.407   7.775   1.578
   17CHTO    O6 7155   4.337   7.803   1.385
   17CHTO    H1 7156   4.343   7.710   1.370
   17CHTO    C3 7157   4.341   7.987   1.552
   17CHTO   H16 7158   4.274   8.037   1.481
   17CHTO    N1 7159   4.480   8.038   1.522
   17CHTO    H8 7160   4.527   8.078   1.610
   17CHTO    H9 7161   4.542   7.960   1.481
   17CHTO    C4 7162   4.291   8.029   1.696
   17CHTO   H17 7163   4.367   7.999   1.769
   17CHTO    O1 7164   4.165   7.968   1.725
   17CHTO    C5 7165   4.169   7.825   1.727
   17CHTO   H18 7166   4.253   7.792   1.789
   17CHTO   C16 7167   4.038   7.773   1.791
   17CHTO   O11 7168   4.028   7.812   1.928
   17CHTO    H5 7169   4.092   7.767   1.979
   17CHTO    O3 7170   4.265   8.171   1.703
   17CHTO    C6 7171   4.280   8.243   1.831
   17CHTO   H19 7172   4.222   8.335   1.829
   17CHTO    C8 7173   4.228   8.165   1.957
   17CHTO   H21 7174   4.276   8.067   1.960
   17CHTO    O7 7175   4.085   8.149   1.943
   17CHTO    H2 7176   4.066   8.090   1.873
   17CHTO   C12 7177   4.264   8.241   2.091
   17CHTO   H25 7178   4.203   8.334   2.091
   17CHTO    N3 7179   4.224   8.163   2.214
   17CHTO   H12 7180   4.179   8.069   2.187
   17CHTO   H13 7181   4.157   8.221   2.276
   17CHTO   C15 7182   4.416   8.281   2.091
   17CHTO   H28 7183   4.481   8.194   2.099
   17CHTO   O10 7184   4.452   8.382   2.202
   17CHTO    H4 7185   4.441   8.342   2.286
   17CHTO    O5 7186   4.448   8.356   1.973
   17CHTO   C10 7187   4.429   8.284   1.850
   17CHTO   H23 7188   4.492   8.194   1.853
   17CHTO   C17 7189   4.480   8.371   1.735
   17CHTO   O12 7190   4.408   8.494   1.722
   17CHTO    H6 7191   4.320   8.477   1.694
   18CHTO  H203 7192   5.296   7.406   2.357
   18CHTO   O82 7193   5.371   7.354   2.336
   18CHTO  C123 7194   5.428   7.397   2.211
   18CHTO  H227 7195   5.346   7.412   2.138
   18CHTO   O77 7196   5.489   7.525   2.245
   18CHTO  C118 7197   5.540   7.596   2.131
   18CHTO  H222 7198   5.459   7.611   2.058
   18CHTO  C125 7199   5.590   7.737   2.180
   18CHTO   O84 7200   5.691   7.726   2.281
   18CHTO  H205 7201   5.714   7.812   2.312
   18CHTO  C114 7202   5.654   7.516   2.064
   18CHTO  H218 7203   5.739   7.512   2.132
   18CHTO  C116 7204   5.612   7.368   2.032
   18CHTO  H220 7205   5.545   7.369   1.943
   18CHTO   O79 7206   5.730   7.295   1.994
   18CHTO  H201 7207   5.707   7.209   1.967
   18CHTO  C120 7208   5.538   7.300   2.155
   18CHTO  H224 7209   5.615   7.282   2.232
   18CHTO   N21 7210   5.482   7.167   2.117
   18CHTO  H211 7211   5.382   7.177   2.077
   18CHTO  H212 7212   5.547   7.117   2.047
   18CHTO   O75 7213   5.686   7.592   1.946
   18CHTO  C112 7214   5.843   7.593   1.902
   18CHTO  H216 7215   5.894   7.505   1.944
   18CHTO   O73 7216   5.900   7.716   1.951
   18CHTO  C113 7217   6.036   7.741   1.913
   18CHTO  H217 7218   6.099   7.656   1.949
   18CHTO  C124 7219   6.081   7.867   1.988
   18CHTO   O83 7220   6.220   7.894   1.972
   18CHTO  H204 7221   6.242   7.973   2.018
   18CHTO  C109 7222   6.045   7.755   1.758
   18CHTO  H213 7223   5.979   7.838   1.730
   18CHTO  C110 7224   5.994   7.622   1.694
   18CHTO  H214 7225   6.063   7.542   1.720
   18CHTO   O78 7226   5.997   7.635   1.550
   18CHTO  H200 7227   5.939   7.704   1.522
   18CHTO  C111 7228   5.850   7.588   1.744
   18CHTO  H215 7229   5.781   7.665   1.706
   18CHTO   N19 7230   5.799   7.457   1.695
   18CHTO  H207 7231   5.871   7.408   1.632
   18CHTO  H208 7232   5.706   7.471   1.642
   18CHTO   O74 7233   6.182   7.785   1.715
   18CHTO  C115 7234   6.184   7.883   1.582
   18CHTO  H219 7235   6.096   7.870   1.520
   18CHTO   O76 7236   6.185   8.036   1.623
   18CHTO  C122 7237   6.198   8.133   1.517
   18CHTO  H226 7238   6.233   8.225   1.564
   18CHTO  C126 7239   6.059   8.169   1.454
   18CHTO   O85 7240   5.992   8.060   1.389
   18CHTO  H206 7241   5.968   7.995   1.452
   18CHTO  C121 7242   6.303   8.095   1.404
   18CHTO  H225 7243   6.280   8.156   1.315
   18CHTO   O81 7244   6.434   8.134   1.446
   18CHTO  H202 7245   6.462   8.083   1.520
   18CHTO  C119 7246   6.297   7.944   1.364
   18CHTO  H223 7247   6.197   7.929   1.325
   18CHTO  C117 7248   6.310   7.853   1.492
   18CHTO  H221 7249   6.396   7.870   1.556
   18CHTO   N20 7250   6.317   7.708   1.453
   18CHTO  H209 7251   6.235   7.652   1.496
   18CHTO  H210 7252   6.411   7.666   1.484
   18CHTO   O80 7253   6.389   7.910   1.233
   18CHTO  C103 7254   6.316   7.864   1.094
   18CHTO  H190 7255   6.391   7.849   1.016
   18CHTO  C101 7256   6.227   7.734   1.104
   18CHTO  H188 7257   6.167   7.740   1.195
   18CHTO   O68 7258   6.320   7.611   1.115
   18CHTO  H168 7259   6.369   7.600   1.036
   18CHTO   C99 7260   6.125   7.718   0.981
   18CHTO  H186 7261   6.183   7.692   0.890
   18CHTO   N17 7262   6.025   7.608   1.000
   18CHTO  H174 7263   5.965   7.597   0.911
   18CHTO  H175 7264   6.075   7.516   1.025
   18CHTO   C97 7265   6.056   7.854   0.950
   18CHTO  H184 7266   5.990   7.879   1.035
   18CHTO   O64 7267   6.156   7.955   0.929
   18CHTO  C104 7268   6.227   7.987   1.050
   18CHTO  H191 7269   6.157   8.011   1.129
   18CHTO  C108 7270   6.310   8.115   1.029
   18CHTO   O71 7271   6.414   8.098   0.932
   18CHTO  H171 7272   6.463   8.178   0.924
   18CHTO   O62 7273   5.982   7.854   0.825
   18CHTO   C91 7274   5.843   7.895   0.831
   18CHTO  H178 7275   5.805   7.872   0.931
   18CHTO   C92 7276   5.760   7.807   0.732
   18CHTO  H179 7277   5.806   7.813   0.632
   18CHTO   O66 7278   5.773   7.669   0.772
   18CHTO  H166 7279   5.862   7.639   0.760
   18CHTO   C93 7280   5.607   7.848   0.726
   18CHTO  H180 7281   5.562   7.819   0.822
   18CHTO   N16 7282   5.528   7.774   0.623
   18CHTO  H172 7283   5.591   7.704   0.569
   18CHTO  H173 7284   5.480   7.842   0.554
   18CHTO   C94 7285   5.593   8.004   0.708
   18CHTO  H181 7286   5.628   8.037   0.611
   18CHTO   O61 7287   5.673   8.071   0.807
   18CHTO   C95 7288   5.814   8.046   0.799
   18CHTO  H182 7289   5.848   8.069   0.698
   18CHTO  C106 7290   5.886   8.146   0.897
   18CHTO   O69 7291   5.869   8.282   0.856
   18CHTO  H169 7292   5.779   8.308   0.867
   18CHTO   O63 7293   5.439   8.051   0.733
   18CHTO   C96 7294   5.408   8.192   0.664
   18CHTO  H183 7295   5.478   8.205   0.581
   18CHTO   C98 7296   5.420   8.316   0.757
   18CHTO  H185 7297   5.356   8.302   0.846
   18CHTO   O67 7298   5.555   8.323   0.807
   18CHTO  H167 7299   5.573   8.250   0.863
   18CHTO  C102 7300   5.383   8.453   0.683
   18CHTO  H189 7301   5.467   8.475   0.615
   18CHTO   N18 7302   5.372   8.571   0.772
   18CHTO  H176 7303   5.465   8.585   0.825
   18CHTO  H177 7304   5.350   8.659   0.715
   18CHTO  C105 7305   5.256   8.437   0.594
   18CHTO  H192 7306   5.166   8.446   0.656
   18CHTO   O65 7307   5.248   8.312   0.523
   18CHTO  C100 7308   5.262   8.194   0.603
   18CHTO  H187 7309   5.188   8.196   0.685
   18CHTO  C107 7310   5.231   8.073   0.512
   18CHTO   O70 7311   5.212   7.952   0.587
   18CHTO  H170 7312   5.133   7.958   0.637
   18CHTO   O57 7313   5.266   8.564   0.483
   18CHTO   C85 7314   5.157   8.615   0.405
   18CHTO  H157 7315   5.207   8.683   0.332
   18CHTO   C83 7316   5.068   8.711   0.493
   18CHTO  H155 7317   5.130   8.797   0.521
   18CHTO   O56 7318   5.029   8.647   0.616
   18CHTO  H135 7319   5.105   8.627   0.668
   18CHTO   C81 7320   4.949   8.762   0.407
   18CHTO  H153 7321   4.989   8.807   0.317
   18CHTO   N14 7322   4.873   8.871   0.472
   18CHTO  H141 7323   4.798   8.909   0.405
   18CHTO  H142 7324   4.824   8.835   0.561
   18CHTO   C79 7325   4.859   8.640   0.365
   18CHTO  H151 7326   4.778   8.679   0.303
   18CHTO   O52 7327   4.937   8.549   0.281
   18CHTO   C86 7328   5.067   8.505   0.332
   18CHTO  H158 7329   5.042   8.421   0.400
   18CHTO   C90 7330   5.142   8.441   0.212
   18CHTO   O60 7331   5.271   8.388   0.245
   18CHTO  H138 7332   5.261   8.316   0.304
   18CHTO   O50 7333   4.802   8.568   0.476
   18CHTO   C73 7334   4.698   8.474   0.509
   18CHTO  H145 7335   4.683   8.404   0.426
   18CHTO   C74 7336   4.564   8.549   0.536
   18CHTO  H146 7337   4.540   8.607   0.445
   18CHTO   O54 7338   4.460   8.450   0.551
   18CHTO  H133 7339   4.444   8.407   0.469
   18CHTO   C75 7340   4.580   8.643   0.662
   18CHTO  H147 7341   4.656   8.719   0.640
   18CHTO   N13 7342   4.458   8.718   0.700
   18CHTO  H139 7343   4.376   8.697   0.632
   18CHTO  H140 7344   4.477   8.825   0.698
   18CHTO   C76 7345   4.636   8.557   0.786
   18CHTO  H148 7346   4.558   8.487   0.818
   18CHTO   O49 7347   4.756   8.482   0.749
   18CHTO   C77 7348   4.740   8.395   0.636
   18CHTO  H149 7349   4.663   8.320   0.658
   18CHTO   C88 7350   4.870   8.317   0.612
   18CHTO   O58 7351   4.910   8.238   0.729
   18CHTO  H136 7352   4.848   8.169   0.743
   18CHTO   O51 7353   4.684   8.654   0.904
   18CHTO   C78 7354   4.706   8.577   1.039
   18CHTO  H150 7355   4.705   8.468   1.023
   18CHTO   C80 7356   4.594   8.613   1.139
   18CHTO  H152 7357   4.587   8.724   1.145
   18CHTO   O55 7358   4.470   8.565   1.085
   18CHTO  H134 7359   4.470   8.471   1.081
   18CHTO   C84 7360   4.622   8.555   1.284
   18CHTO  H156 7361   4.612   8.447   1.279
   18CHTO   N15 7362   4.522   8.604   1.385
   18CHTO  H143 7363   4.543   8.562   1.481
   18CHTO  H144 7364   4.423   8.574   1.355
   18CHTO   C87 7365   4.767   8.589   1.328
   18CHTO  H159 7366   4.778   8.696   1.343
   18CHTO   O53 7367   4.864   8.540   1.217
   18CHTO   C82 7368   4.845   8.613   1.095
   18CHTO  H154 7369   4.853   8.720   1.112
   18CHTO   C89 7370   4.957   8.575   0.995
   18CHTO   O59 7371   5.086   8.611   1.044
   18CHTO  H137 7372   5.095   8.705   1.045
   18CHTO   O45 7373   4.805   8.511   1.470
   18CHTO   C67 7374   4.946   8.501   1.499
   18CHTO  H124 7375   4.994   8.447   1.417
   18CHTO   C65 7376   5.014   8.643   1.512
   18CHTO  H122 7377   4.934   8.713   1.539
   18CHTO   O44 7378   5.064   8.677   1.382
   18CHTO  H102 7379   4.994   8.688   1.321
   18CHTO   C63 7380   5.117   8.651   1.632
   18CHTO  H120 7381   5.061   8.653   1.725
   18CHTO   N11 7382   5.199   8.776   1.641
   18CHTO  H108 7383   5.186   8.837   1.554
   18CHTO  H109 7384   5.173   8.833   1.728
   18CHTO   C61 7385   5.200   8.518   1.633
   18CHTO  H118 7386   5.270   8.524   1.718
   18CHTO   O40 7387   5.115   8.402   1.657
   18CHTO   C68 7388   4.972   8.413   1.629
   18CHTO  H125 7389   4.921   8.458   1.717
   18CHTO   C72 7390   4.918   8.268   1.615
   18CHTO   O48 7391   4.776   8.261   1.603
   18CHTO  H105 7392   4.750   8.171   1.594
   18CHTO   O38 7393   5.271   8.497   1.509
   18CHTO   C55 7394   5.387   8.411   1.518
   18CHTO  H112 7395   5.386   8.355   1.613
   18CHTO   C56 7396   5.519   8.496   1.500
   18CHTO  H113 7397   5.516   8.541   1.400
   18CHTO   O42 7398   5.520   8.605   1.594
   18CHTO  H100 7399   5.595   8.659   1.579
   18CHTO   C57 7400   5.644   8.401   1.517
   18CHTO  H114 7401   5.643   8.368   1.621
   18CHTO   N10 7402   5.775   8.467   1.493
   18CHTO  H106 7403   5.764   8.546   1.420
   18CHTO  H107 7404   5.812   8.509   1.585
   18CHTO   C58 7405   5.630   8.275   1.426
   18CHTO  H115 7406   5.657   8.302   1.321
   18CHTO   O37 7407   5.498   8.216   1.425
   18CHTO   C59 7408   5.386   8.304   1.406
   18CHTO  H116 7409   5.393   8.351   1.308
   18CHTO   C70 7410   5.258   8.218   1.408
   18CHTO   O46 7411   5.242   8.143   1.528
   18CHTO  H103 7412   5.163   8.092   1.523
   18CHTO   O39 7413   5.733   8.156   1.483
   18CHTO   C60 7414   5.679   8.073   1.588
   18CHTO  H117 7415   5.595   8.126   1.634
   18CHTO   C62 7416   5.628   7.936   1.534
   18CHTO  H119 7417   5.569   7.958   1.443
   18CHTO   O43 7418   5.743   7.858   1.494
   18CHTO  H101 7419   5.794   7.835   1.569
   18CHTO   C66 7420   5.531   7.869   1.644
   18CHTO  H123 7421   5.434   7.919   1.637
   18CHTO   N12 7422   5.499   7.727   1.617
   18CHTO  H110 7423   5.431   7.689   1.692
   18CHTO  H111 7424   5.590   7.669   1.615
   18CHTO   C69 7425   5.582   7.893   1.789
   18CHTO  H126 7426   5.560   7.806   1.857
   18CHTO   O41 7427   5.739   7.923   1.794
   18CHTO   C64 7428   5.784   8.049   1.701
   18CHTO  H121 7429   5.881   8.026   1.653
   18CHTO   C71 7430   5.802   8.175   1.788
   18CHTO   O47 7431   5.904   8.153   1.885
   18CHTO  H104 7432   5.915   8.230   1.938
   18CHTO   O34 7433   5.506   8.010   1.845
   18CHTO   C49 7434   5.464   8.038   1.983
   18CHTO   H91 7435   5.528   7.978   2.048
   18CHTO   C47 7436   5.316   7.996   2.000
   18CHTO   H89 7437   5.292   8.009   2.107
   18CHTO   O33 7438   5.305   7.856   1.967
   18CHTO   H70 7439   5.217   7.827   1.983
   18CHTO   C45 7440   5.224   8.093   1.910
   18CHTO   H87 7441   5.259   8.087   1.806
   18CHTO    N8 7442   5.081   8.052   1.914
   18CHTO   H75 7443   5.018   8.134   1.945
   18CHTO   H76 7444   5.050   8.018   1.816
   18CHTO   C43 7445   5.248   8.247   1.954
   18CHTO   H85 7446   5.194   8.307   1.880
   18CHTO   O29 7447   5.389   8.278   1.955
   18CHTO   C50 7448   5.482   8.188   2.019
   18CHTO   H92 7449   5.582   8.218   1.985
   18CHTO   C54 7450   5.489   8.212   2.172
   18CHTO   O36 7451   5.594   8.139   2.235
   18CHTO   H72 7452   5.677   8.172   2.207
   18CHTO   O27 7453   5.189   8.281   2.081
   18CHTO   C37 7454   5.135   8.403   2.134
   18CHTO   H79 7455   5.121   8.393   2.243
   18CHTO   C38 7456   5.233   8.523   2.113
   18CHTO   H80 7457   5.266   8.522   2.008
   18CHTO   O31 7458   5.349   8.501   2.196
   18CHTO   H68 7459   5.325   8.501   2.287
   18CHTO   C39 7460   5.167   8.662   2.146
   18CHTO   H81 7461   5.153   8.667   2.254
   18CHTO    N7 7462   5.257   8.777   2.108
   18CHTO   H73 7463   5.211   8.840   2.033
   18CHTO   H74 7464   5.282   8.836   2.196
   18CHTO   C40 7465   5.024   8.674   2.080
   18CHTO   H82 7466   5.035   8.680   1.971
   18CHTO   O26 7467   4.945   8.561   2.120
   18CHTO   C41 7468   4.997   8.434   2.069
   18CHTO   H83 7469   5.009   8.439   1.960
   18CHTO   C52 7470   4.893   8.324   2.101
   18CHTO   O35 7471   4.763   8.348   2.033
   18CHTO   H71 7472   4.721   8.423   2.070
   18CHTO   O28 7473   4.956   8.794   2.123
   18CHTO   C42 7474   4.815   8.827   2.100
   18CHTO   H84 7475   4.812   8.935   2.116
   18CHTO   C44 7476   4.714   8.766   2.202
   18CHTO   H86 7477   4.715   8.657   2.191
   18CHTO   O32 7478   4.762   8.799   2.334
   18CHTO   H69 7479   4.759   8.892   2.348
   18CHTO   C48 7480   4.566   8.817   2.177
   18CHTO   H90 7481   4.564   8.925   2.194
   18CHTO    N9 7482   4.468   8.757   2.274
   18CHTO   H77 7483   4.369   8.795   2.254
   18CHTO   H78 7484   4.497   8.781   2.375
   18CHTO   C51 7485   4.526   8.790   2.027
   18CHTO   H93 7486   4.523   8.682   2.011
   18CHTO   O30 7487   4.620   8.854   1.940
   18CHTO   C46 7488   4.765   8.802   1.954
   18CHTO   H88 7489   4.767   8.695   1.933
   18CHTO   C53 7490   4.851   8.879   1.851
   18CHTO   O72 7491   4.807   8.851   1.718
   18CHTO  H199 7492   4.861   8.897   1.657
   18CHTO   O22 7493   4.400   8.851   1.992
   18CHTO   C31 7494   4.303   8.783   1.904
   18CHTO   H59 7495   4.362   8.716   1.838
   18CHTO   C29 7496   4.202   8.694   1.980
   18CHTO   H57 7497   4.156   8.759   2.056
   18CHTO   O21 7498   4.275   8.593   2.051
   18CHTO   H37 7499   4.314   8.532   1.992
   18CHTO   C27 7500   4.089   8.634   1.888
   18CHTO   H55 7501   4.135   8.561   1.820
   18CHTO    N5 7502   3.983   8.565   1.966
   18CHTO   H43 7503   4.000   8.573   2.073
   18CHTO   H44 7504   3.977   8.461   1.938
   18CHTO   C25 7505   4.027   8.747   1.799
   18CHTO   H53 7506   3.978   8.821   1.864
   18CHTO   O17 7507   4.133   8.815   1.725
   18CHTO   C32 7508   4.228   8.882   1.809
   18CHTO   H60 7509   4.176   8.956   1.870
   18CHTO   C36 7510   4.329   8.956   1.718
   18CHTO   O25 7511   4.266   9.062   1.645
   18CHTO   H40 7512   4.205   9.026   1.583
   18CHTO   O15 7513   3.916   8.690   1.693
   18CHTO   C19 7514   3.900   8.630   1.561
   18CHTO   H47 7515   3.791   8.616   1.553
   18CHTO   C20 7516   3.946   8.723   1.443
   18CHTO   H48 7517   4.049   8.759   1.458
   18CHTO   O19 7518   3.860   8.839   1.445
   18CHTO   H35 7519   3.878   8.891   1.521
   18CHTO   C21 7520   3.939   8.651   1.302
   18CHTO   H49 7521   3.834   8.631   1.279
   18CHTO    N4 7522   3.992   8.734   1.191
   18CHTO   H41 7523   3.983   8.681   1.098
   18CHTO   H42 7524   4.097   8.757   1.209
   18CHTO   C22 7525   4.011   8.514   1.315
   18CHTO   H50 7526   4.115   8.533   1.343
   18CHTO   O14 7527   3.946   8.437   1.417
   18CHTO   C23 7528   3.963   8.489   1.550
   18CHTO   H51 7529   4.071   8.490   1.572
   18CHTO   C34 7530   3.897   8.390   1.646
   18CHTO   O23 7531   3.964   8.263   1.647
   18CHTO   H38 7532   3.920   8.205   1.706
   18CHTO   O16 7533   4.003   8.429   1.199
   18CHTO   C24 7534   4.146   8.405   1.121
   18CHTO   H52 7535   4.214   8.490   1.135
   18CHTO   C26 7536   4.116   8.389   0.971
   18CHTO   H54 7537   4.037   8.310   0.959
   18CHTO   O20 7538   4.061   8.513   0.921
   18CHTO   H36 7539   3.976   8.528   0.958
   18CHTO   C30 7540   4.241   8.344   0.889
   18CHTO   H58 7541   4.313   8.427   0.883
   18CHTO    N6 7542   4.206   8.311   0.748
   18CHTO   H45 7543   4.165   8.398   0.698
   18CHTO   H46 7544   4.134   8.231   0.745
   18CHTO   C33 7545   4.314   8.226   0.960
   18CHTO   H61 7546   4.250   8.136   0.959
   18CHTO   O18 7547   4.338   8.264   1.096
   18CHTO   C28 7548   4.220   8.279   1.175
   18CHTO   H56 7549   4.154   8.192   1.165
   18CHTO   C35 7550   4.269   8.292   1.320
   18CHTO   O24 7551   4.167   8.260   1.416
   18CHTO   H39 7552   4.202   8.271   1.502
   18CHTO    O9 7553   4.436   8.186   0.894
   18CHTO   C13 7554   4.522   8.078   0.983
   18CHTO   H26 7555   4.453   8.027   1.053
   18CHTO   C11 7556   4.637   8.155   1.059
   18CHTO   H24 7557   4.590   8.223   1.131
   18CHTO    O8 7558   4.713   8.236   0.968
   18CHTO    H3 7559   4.756   8.182   0.904
   18CHTO    C9 7560   4.721   8.051   1.137
   18CHTO   H22 7561   4.649   7.995   1.199
   18CHTO    N2 7562   4.815   8.110   1.235
   18CHTO   H10 7563   4.892   8.166   1.184
   18CHTO   H11 7564   4.860   8.032   1.296
   18CHTO    C7 7565   4.786   7.951   1.034
   18CHTO   H20 7566   4.838   7.876   1.098
   18CHTO    O4 7567   4.686   7.884   0.956
   18CHTO   C14 7568   4.581   7.961   0.892
   18CHTO   H27 7569   4.498   7.889   0.874
   18CHTO   C18 7570   4.627   8.010   0.752
   18CHTO   O13 7571   4.653   7.900   0.665
   18CHTO    H7 7572   4.680   7.931   0.581
   18CHTO    O2 7573   4.894   8.025   0.932
   18CHTO    C1 7574   5.018   7.956   0.903
   18CHTO   H14 7575   5.059   8.002   0.810
   18CHTO    C2 7576   5.005   7.799   0.880
   18CHTO   H15 7577   4.954   7.757   0.967
   18CHTO    O6 7578   4.926   7.778   0.762
   18CHTO    H1 7579   4.837   7.804   0.777
   18CHTO    C3 7580   5.151   7.733   0.867
   18CHTO   H16 7581   5.202   7.775   0.779
   18CHTO    N1 7582   5.144   7.584   0.849
   18CHTO    H8 7583   5.192   7.555   0.756
   18CHTO    H9 7584   5.192   7.532   0.931
   18CHTO    C4 7585   5.236   7.777   0.991
   18CHTO   H17 7586   5.189   7.738   1.082
   18CHTO    O1 7587   5.245   7.920   0.996
   18CHTO    C5 7588   5.122   7.991   1.015
   18CHTO   H18 7589   5.079   7.966   1.112
   18CHTO   C16 7590   5.164   8.140   1.014
   18CHTO   O11 7591   5.055   8.230   1.039
   18CHTO    H5 7592   5.087   8.319   1.035
   18CHTO    O3 7593   5.373   7.732   0.981
   18CHTO    C6 7594   5.438   7.702   1.109
   18CHTO   H19 7595   5.380   7.735   1.195
   18CHTO    C8 7596   5.458   7.547   1.122
   18CHTO   H21 7597   5.504   7.511   1.030
   18CHTO    O7 7598   5.327   7.489   1.136
   18CHTO    H2 7599   5.333   7.396   1.135
   18CHTO   C12 7600   5.552   7.511   1.244
   18CHTO   H25 7601   5.495   7.537   1.336
   18CHTO    N3 7602   5.581   7.364   1.252
   18CHTO   H12 7603   5.531   7.310   1.172
   18CHTO   H13 7604   5.687   7.345   1.249
   18CHTO   C15 7605   5.681   7.601   1.239
   18CHTO   H28 7606   5.745   7.575   1.154
   18CHTO   O10 7607   5.764   7.594   1.366
   18CHTO    H4 7608   5.797   7.507   1.377
   18CHTO    O5 7609   5.646   7.740   1.234
   18CHTO   C10 7610   5.575   7.776   1.115
   18CHTO   H23 7611   5.635   7.747   1.029
   18CHTO   C17 7612   5.560   7.929   1.110
   18CHTO   O12 7613   5.475   7.980   1.214
   18CHTO    H6 7614   5.387   7.953   1.199
   19CHTO  H203 7615   4.765   9.954   0.265
   19CHTO   O82 7616   4.834   9.909   0.220
   19CHTO  C123 7617   4.780   9.801   0.142
   19CHTO  H227 7618   4.709   9.843   0.069
   19CHTO   O77 7619   4.898   9.749   0.073
   19CHTO  C118 7620   4.868   9.645   2.852
   19CHTO  H222 7621   4.795   9.683   2.779
   19CHTO  C125 7622   5.001   9.608   2.776
   19CHTO   O84 7623   5.104   9.562   2.865
   19CHTO  H205 7624   5.181   9.542   2.816
   19CHTO  C114 7625   4.808   9.523   0.051
   19CHTO  H218 7626   4.883   9.483   0.120
   19CHTO  C116 7627   4.683   9.563   0.136
   19CHTO  H220 7628   4.599   9.587   0.066
   19CHTO   O79 7629   4.641   9.447   0.211
   19CHTO  H201 7630   4.562   9.466   0.257
   19CHTO  C120 7631   4.715   9.687   0.228
   19CHTO  H224 7632   4.787   9.652   0.305
   19CHTO   N21 7633   4.593   9.733   0.300
   19CHTO  H211 7634   4.620   9.779   0.395
   19CHTO  H212 7635   4.536   9.803   0.240
   19CHTO   O75 7636   4.780   9.428   2.821
   19CHTO  C112 7637   4.810   9.273   2.863
   19CHTO  H216 7638   4.795   9.261   0.097
   19CHTO   O73 7639   4.946   9.246   2.825
   19CHTO  C113 7640   4.986   9.111   2.855
   19CHTO  H217 7641   4.963   9.089   0.088
   19CHTO  C124 7642   5.139   9.098   2.840
   19CHTO   O83 7643   5.210   9.182   0.057
   19CHTO  H204 7644   5.302   9.172   0.042
   19CHTO  C109 7645   4.909   9.013   2.764
   19CHTO  H213 7646   4.933   9.041   2.660
   19CHTO  C110 7647   4.756   9.030   2.791
   19CHTO  H214 7648   4.734   8.988   0.016
   19CHTO   O78 7649   4.683   8.951   2.695
   19CHTO  H200 7650   4.591   8.951   2.716
   19CHTO  C111 7651   4.711   9.179   2.784
   19CHTO  H215 7652   4.712   9.211   2.679
   19CHTO   N19 7653   4.572   9.200   2.833
   19CHTO  H207 7654   4.564   9.167   0.062
   19CHTO  H208 7655   4.502   9.145   2.772
   19CHTO   O74 7656   4.953   8.876   2.788
   19CHTO  C115 7657   4.944   8.782   2.660
   19CHTO  H219 7658   4.857   8.804   2.598
   19CHTO   O76 7659   5.067   8.804   2.563
   19CHTO  C122 7660   5.184   8.733   2.603
   19CHTO  H226 7661   5.209   8.765   2.705
   19CHTO  C126 7662   5.305   8.775   2.513
   19CHTO   O85 7663   5.335   8.915   2.525
   19CHTO  H206 7664   5.410   8.935   2.472
   19CHTO  C121 7665   5.161   8.576   2.600
   19CHTO  H225 7666   5.200   8.536   2.504
   19CHTO   O81 7667   5.236   8.516   2.706
   19CHTO  H202 7668   5.204   8.545   2.790
   19CHTO  C119 7669   5.009   8.537   2.611
   19CHTO  H223 7670   4.966   8.555   2.512
   19CHTO  C117 7671   4.935   8.633   2.712
   19CHTO  H221 7672   4.976   8.634   2.813
   19CHTO   N20 7673   4.791   8.593   2.730
   19CHTO  H209 7674   4.744   8.659   2.802
   19CHTO  H210 7675   4.739   8.599   2.636
   19CHTO   O80 7676   4.985   8.378   2.628
   19CHTO  C103 7677   4.998   8.285   2.506
   19CHTO  H190 7678   4.994   8.343   2.413
   19CHTO  C101 7679   5.125   8.192   2.503
   19CHTO  H188 7680   5.133   8.141   2.600
   19CHTO   O68 7681   5.252   8.279   2.483
   19CHTO  H168 7682   5.250   8.320   2.399
   19CHTO   C99 7683   5.112   8.080   2.389
   19CHTO  H186 7684   5.114   8.129   2.290
   19CHTO   N17 7685   5.225   7.979   2.390
   19CHTO  H174 7686   5.319   8.031   2.384
   19CHTO  H175 7687   5.213   7.911   2.307
   19CHTO   C97 7688   4.974   8.009   2.398
   19CHTO  H184 7689   4.972   7.948   2.490
   19CHTO   O64 7690   4.868   8.107   2.396
   19CHTO  C104 7691   4.868   8.195   2.509
   19CHTO  H191 7692   4.866   8.138   2.602
   19CHTO  C108 7693   4.738   8.277   2.507
   19CHTO   O71 7694   4.726   8.361   2.392
   19CHTO  H171 7695   4.790   8.430   2.395
   19CHTO   O62 7696   4.948   7.926   2.282
   19CHTO   C91 7697   4.841   7.831   2.295
   19CHTO  H178 7698   4.782   7.854   2.384
   19CHTO   C92 7699   4.899   7.687   2.316
   19CHTO  H179 7700   4.973   7.667   2.236
   19CHTO   O66 7701   4.973   7.687   2.439
   19CHTO  H166 7702   5.015   7.604   2.452
   19CHTO   C93 7703   4.786   7.576   2.317
   19CHTO  H180 7704   4.730   7.589   2.410
   19CHTO   N16 7705   4.840   7.438   2.321
   19CHTO  H172 7706   4.759   7.366   2.323
   19CHTO  H173 7707   4.903   7.425   2.408
   19CHTO   C94 7708   4.688   7.595   2.196
   19CHTO  H181 7709   4.737   7.576   2.100
   19CHTO   O61 7710   4.640   7.731   2.192
   19CHTO   C95 7711   4.742   7.829   2.172
   19CHTO  H182 7712   4.797   7.806   2.081
   19CHTO  C106 7713   4.675   7.969   2.150
   19CHTO   O69 7714   4.595   7.970   2.031
   19CHTO  H169 7715   4.651   7.965   1.956
   19CHTO   O63 7716   4.558   7.502   2.212
   19CHTO   C96 7717   4.478   7.488   2.077
   19CHTO  H183 7718   4.550   7.470   1.998
   19CHTO   C98 7719   4.393   7.613   2.036
   19CHTO  H185 7720   4.456   7.703   2.032
   19CHTO   O67 7721   4.347   7.591   1.902
   19CHTO  H167 7722   4.304   7.668   1.870
   19CHTO  C102 7723   4.266   7.633   2.132
   19CHTO  H189 7724   4.198   7.700   2.077
   19CHTO   N18 7725   4.294   7.704   2.260
   19CHTO  H176 7726   4.335   7.801   2.239
   19CHTO  H177 7727   4.203   7.714   2.317
   19CHTO  C105 7728   4.193   7.496   2.154
   19CHTO  H192 7729   4.203   7.465   2.258
   19CHTO   O65 7730   4.243   7.389   2.072
   19CHTO  C100 7731   4.383   7.360   2.091
   19CHTO  H187 7732   4.394   7.319   2.193
   19CHTO  C107 7733   4.427   7.247   1.994
   19CHTO   O70 7734   4.408   7.283   1.856
   19CHTO  H170 7735   4.468   7.351   1.833
   19CHTO   O57 7736   4.039   7.530   2.122
   19CHTO   C85 7737   3.938   7.430   2.141
   19CHTO  H157 7738   3.991   7.335   2.167
   19CHTO   C83 7739   3.868   7.404   2.004
   19CHTO  H155 7740   3.943   7.372   1.932
   19CHTO   O56 7741   3.815   7.528   1.953
   19CHTO  H135 7742   3.745   7.559   2.008
   19CHTO   C81 7743   3.763   7.290   2.021
   19CHTO  H153 7744   3.815   7.202   2.059
   19CHTO   N14 7745   3.704   7.247   1.891
   19CHTO  H141 7746   3.733   7.146   1.869
   19CHTO  H142 7747   3.598   7.253   1.893
   19CHTO   C79 7748   3.655   7.332   2.129
   19CHTO  H151 7749   3.592   7.244   2.147
   19CHTO   O52 7750   3.720   7.365   2.256
   19CHTO   C86 7751   3.826   7.466   2.247
   19CHTO  H158 7752   3.773   7.560   2.220
   19CHTO   C90 7753   3.884   7.489   2.388
   19CHTO   O60 7754   3.969   7.604   2.393
   19CHTO  H138 7755   3.918   7.682   2.381
   19CHTO   O50 7756   3.569   7.439   2.087
   19CHTO   C73 7757   3.436   7.492   2.089
   19CHTO  H145 7758   3.368   7.422   2.140
   19CHTO   C74 7759   3.385   7.514   1.943
   19CHTO  H146 7760   3.386   7.416   1.893
   19CHTO   O54 7761   3.246   7.555   1.948
   19CHTO  H133 7762   3.193   7.486   1.981
   19CHTO   C75 7763   3.479   7.618   1.871
   19CHTO  H147 7764   3.579   7.574   1.863
   19CHTO   N13 7765   3.442   7.649   1.730
   19CHTO  H139 7766   3.356   7.591   1.700
   19CHTO  H140 7767   3.419   7.754   1.718
   19CHTO   C76 7768   3.493   7.751   1.961
   19CHTO  H148 7769   3.399   7.806   1.956
   19CHTO   O49 7770   3.524   7.720   2.101
   19CHTO   C77 7771   3.434   7.628   2.165
   19CHTO  H149 7772   3.333   7.668   2.164
   19CHTO   C88 7773   3.474   7.615   2.312
   19CHTO   O58 7774   3.380   7.528   2.388
   19CHTO  H136 7775   3.296   7.571   2.395
   19CHTO   O51 7776   3.619   7.838   1.911
   19CHTO   C78 7777   3.618   7.983   1.974
   19CHTO  H150 7778   3.542   7.991   2.055
   19CHTO   C80 7779   3.586   8.088   1.866
   19CHTO  H152 7780   3.664   8.083   1.787
   19CHTO   O55 7781   3.459   8.053   1.808
   19CHTO  H134 7782   3.440   8.110   1.736
   19CHTO   C84 7783   3.585   8.233   1.930
   19CHTO  H156 7784   3.506   8.234   2.006
   19CHTO   N15 7785   3.552   8.341   1.831
   19CHTO  H143 7786   3.626   8.343   1.754
   19CHTO  H144 7787   3.550   8.436   1.880
   19CHTO   C87 7788   3.721   8.258   2.000
   19CHTO  H159 7789   3.800   8.264   1.925
   19CHTO   O53 7790   3.752   8.142   2.098
   19CHTO   C82 7791   3.755   8.013   2.036
   19CHTO  H154 7792   3.834   8.009   1.960
   19CHTO   C89 7793   3.792   7.908   2.144
   19CHTO   O59 7794   3.923   7.930   2.196
   19CHTO  H137 7795   3.942   7.865   2.261
   19CHTO   O45 7796   3.726   8.399   2.088
   19CHTO   C67 7797   3.624   8.424   2.186
   19CHTO  H124 7798   3.527   8.407   2.140
   19CHTO   C65 7799   3.637   8.330   2.312
   19CHTO  H122 7800   3.740   8.292   2.312
   19CHTO   O44 7801   3.547   8.220   2.291
   19CHTO  H102 7802   3.574   8.168   2.218
   19CHTO   C63 7803   3.623   8.408   2.449
   19CHTO  H120 7804   3.713   8.468   2.464
   19CHTO   N11 7805   3.623   8.324   2.573
   19CHTO  H108 7806   3.708   8.259   2.574
   19CHTO  H109 7807   3.533   8.266   2.578
   19CHTO   C61 7808   3.504   8.510   2.438
   19CHTO  H118 7809   3.505   8.569   2.531
   19CHTO   O40 7810   3.521   8.604   2.328
   19CHTO   C68 7811   3.625   8.576   2.228
   19CHTO  H125 7812   3.723   8.601   2.273
   19CHTO   C72 7813   3.604   8.671   2.107
   19CHTO   O48 7814   3.477   8.656   2.044
   19CHTO  H105 7815   3.471   8.572   2.003
   19CHTO   O38 7816   3.377   8.443   2.424
   19CHTO   C55 7817   3.260   8.526   2.437
   19CHTO  H112 7818   3.286   8.631   2.414
   19CHTO   C56 7819   3.195   8.511   2.580
   19CHTO  H113 7820   3.174   8.404   2.595
   19CHTO   O42 7821   3.292   8.548   2.681
   19CHTO  H100 7822   3.257   8.532   2.767
   19CHTO   C57 7823   3.063   8.598   2.592
   19CHTO  H114 7824   3.095   8.702   2.593
   19CHTO   N10 7825   2.988   8.573   2.718
   19CHTO  H106 7826   2.882   8.590   2.704
   19CHTO  H107 7827   3.024   8.638   2.796
   19CHTO   C58 7828   2.972   8.576   2.467
   19CHTO  H115 7829   2.925   8.475   2.474
   19CHTO   O37 7830   3.048   8.585   2.345
   19CHTO   C59 7831   3.152   8.487   2.333
   19CHTO  H116 7832   3.112   8.388   2.352
   19CHTO   C70 7833   3.202   8.493   2.188
   19CHTO   O46 7834   3.280   8.378   2.153
   19CHTO  H103 7835   3.308   8.385   2.064
   19CHTO   O39 7836   2.854   8.695   2.463
   19CHTO   C60 7837   2.794   8.720   2.335
   19CHTO  H117 7838   2.855   8.679   2.255
   19CHTO   C62 7839   2.655   8.652   2.324
   19CHTO  H119 7840   2.672   8.544   2.344
   19CHTO   O43 7841   2.566   8.703   2.425
   19CHTO  H101 7842   2.484   8.658   2.422
   19CHTO   C66 7843   2.601   8.671   2.174
   19CHTO  H123 7844   2.676   8.631   2.106
   19CHTO   N12 7845   2.477   8.593   2.147
   19CHTO  H110 7846   2.447   8.606   2.045
   19CHTO  H111 7847   2.399   8.624   2.215
   19CHTO   C69 7848   2.585   8.822   2.143
   19CHTO  H126 7849   2.501   8.865   2.203
   19CHTO   O41 7850   2.719   8.901   2.176
   19CHTO   C64 7851   2.783   8.873   2.310
   19CHTO  H121 7852   2.723   8.920   2.391
   19CHTO   C71 7853   2.923   8.941   2.307
   19CHTO   O47 7854   2.988   8.941   2.434
   19CHTO  H104 7855   3.012   8.853   2.457
   19CHTO   O34 7856   2.551   8.844   1.988
   19CHTO   C49 7857   2.645   8.861   1.862
   19CHTO   H91 7858   2.669   8.967   1.854
   19CHTO   C47 7859   2.567   8.815   1.737
   19CHTO   H89 7860   2.631   8.839   1.648
   19CHTO   O33 7861   2.447   8.893   1.728
   19CHTO   H70 7862   2.402   8.874   1.648
   19CHTO   C45 7863   2.541   8.657   1.746
   19CHTO   H87 7864   2.485   8.638   1.839
   19CHTO    N8 7865   2.460   8.605   1.633
   19CHTO   H75 7866   2.448   8.681   1.556
   19CHTO   H76 7867   2.363   8.573   1.668
   19CHTO   C43 7868   2.680   8.577   1.765
   19CHTO   H85 7869   2.652   8.474   1.789
   19CHTO   O29 7870   2.760   8.636   1.870
   19CHTO   C50 7871   2.776   8.780   1.874
   19CHTO   H92 7872   2.820   8.803   1.972
   19CHTO   C54 7873   2.885   8.831   1.774
   19CHTO   O36 7874   3.015   8.781   1.809
   19CHTO   H72 7875   3.078   8.815   1.749
   19CHTO   O27 7876   2.760   8.569   1.645
   19CHTO   C37 7877   2.826   8.455   1.587
   19CHTO   H79 7878   2.782   8.362   1.626
   19CHTO   C38 7879   2.806   8.455   1.432
   19CHTO   H80 7880   2.836   8.553   1.393
   19CHTO   O31 7881   2.665   8.436   1.407
   19CHTO   H68 7882   2.617   8.512   1.433
   19CHTO   C39 7883   2.892   8.343   1.362
   19CHTO   H81 7884   2.854   8.246   1.396
   19CHTO    N7 7885   2.881   8.344   1.212
   19CHTO   H73 7886   2.940   8.264   1.170
   19CHTO   H74 7887   2.916   8.439   1.174
   19CHTO   C40 7888   3.042   8.354   1.410
   19CHTO   H82 7889   3.082   8.449   1.374
   19CHTO   O26 7890   3.046   8.346   1.554
   19CHTO   C41 7891   2.978   8.457   1.621
   19CHTO   H83 7892   3.022   8.552   1.589
   19CHTO   C52 7893   3.005   8.441   1.773
   19CHTO   O35 7894   3.149   8.453   1.807
   19CHTO   H71 7895   3.197   8.380   1.770
   19CHTO   O28 7896   3.125   8.246   1.364
   19CHTO   C42 7897   3.270   8.244   1.387
   19CHTO   H84 7898   3.283   8.283   1.488
   19CHTO   C44 7899   3.358   8.336   1.294
   19CHTO   H86 7900   3.343   8.304   1.191
   19CHTO   O32 7901   3.310   8.471   1.307
   19CHTO   H69 7902   3.223   8.478   1.272
   19CHTO   C48 7903   3.512   8.325   1.327
   19CHTO   H90 7904   3.529   8.363   1.427
   19CHTO    N9 7905   3.597   8.409   1.235
   19CHTO   H77 7906   3.584   8.377   1.133
   19CHTO   H78 7907   3.701   8.402   1.264
   19CHTO   C51 7908   3.554   8.173   1.324
   19CHTO   H93 7909   3.536   8.136   1.223
   19CHTO   O30 7910   3.477   8.102   1.422
   19CHTO   C46 7911   3.327   8.100   1.386
   19CHTO   H88 7912   3.315   8.057   1.286
   19CHTO   C53 7913   3.255   8.011   1.490
   19CHTO   O72 7914   3.298   7.875   1.480
   19CHTO  H199 7915   3.252   7.822   1.543
   19CHTO   O22 7916   3.691   8.154   1.363
   19CHTO   C31 7917   3.767   8.043   1.302
   19CHTO   H59 7918   3.693   7.963   1.280
   19CHTO   C29 7919   3.837   8.078   1.169
   19CHTO   H57 7920   3.912   8.156   1.190
   19CHTO   O21 7921   3.741   8.134   1.078
   19CHTO   H37 7922   3.784   8.166   1.001
   19CHTO   C27 7923   3.910   7.951   1.108
   19CHTO   H55 7924   3.833   7.879   1.078
   19CHTO    N5 7925   3.991   7.987   0.989
   19CHTO   H43 7926   3.928   8.032   0.914
   19CHTO   H44 7927   4.070   8.055   1.016
   19CHTO   C25 7928   3.997   7.879   1.218
   19CHTO   H53 7929   4.086   7.940   1.240
   19CHTO   O17 7930   3.923   7.860   1.343
   19CHTO   C32 7931   3.870   7.981   1.400
   19CHTO   H60 7932   3.952   8.052   1.415
   19CHTO   C36 7933   3.809   7.950   1.539
   19CHTO   O25 7934   3.696   7.863   1.530
   19CHTO   H40 7935   3.663   7.845   1.616
   19CHTO   O15 7936   4.042   7.735   1.169
   19CHTO   C19 7937   4.096   7.658   1.059
   19CHTO   H47 7938   4.047   7.701   0.970
   19CHTO   C20 7939   4.251   7.671   1.040
   19CHTO   H48 7940   4.306   7.633   1.128
   19CHTO   O19 7941   4.282   7.811   1.026
   19CHTO   H35 7942   4.243   7.846   0.948
   19CHTO   C21 7943   4.299   7.588   0.914
   19CHTO   H49 7944   4.253   7.631   0.824
   19CHTO    N4 7945   4.446   7.592   0.893
   19CHTO   H41 7946   4.478   7.694   0.880
   19CHTO   H42 7947   4.473   7.535   0.806
   19CHTO   C22 7948   4.245   7.443   0.927
   19CHTO   H50 7949   4.292   7.398   1.015
   19CHTO   O14 7950   4.102   7.442   0.943
   19CHTO   C23 7951   4.056   7.508   1.062
   19CHTO   H51 7952   4.100   7.456   1.148
   19CHTO   C34 7953   3.903   7.492   1.071
   19CHTO   O23 7954   3.866   7.355   1.090
   19CHTO   H38 7955   3.773   7.348   1.095
   19CHTO   O16 7956   4.270   7.363   0.810
   19CHTO   C24 7957   4.289   7.208   0.845
   19CHTO   H52 7958   4.247   7.183   0.942
   19CHTO   C26 7959   4.439   7.174   0.844
   19CHTO   H54 7960   4.483   7.206   0.747
   19CHTO   O20 7961   4.503   7.249   0.949
   19CHTO   H36 7962   4.596   7.238   0.945
   19CHTO   C30 7963   4.463   7.020   0.861
   19CHTO   H58 7964   4.439   6.991   0.964
   19CHTO    N6 7965   4.606   6.985   0.841
   19CHTO   H45 7966   4.639   7.014   0.742
   19CHTO   H46 7967   4.667   7.036   0.914
   19CHTO   C33 7968   4.370   6.935   0.769
   19CHTO   H61 7969   4.404   6.942   0.664
   19CHTO   O18 7970   4.234   6.983   0.776
   19CHTO   C28 7971   4.216   7.121   0.740
   19CHTO   H56 7972   4.258   7.141   0.642
   19CHTO   C35 7973   4.065   7.153   0.737
   19CHTO   O24 7974   3.998   7.082   0.633
   19CHTO   H39 7975   3.908   7.105   0.632
   19CHTO    O9 7976   4.379   6.795   0.804
   19CHTO   C13 7977   4.304   6.693   0.704
   19CHTO   H26 7978   4.306   6.736   0.601
   19CHTO   C11 7979   4.155   6.670   0.754
   19CHTO   H24 7980   4.100   6.765   0.740
   19CHTO    O8 7981   4.153   6.639   0.894
   19CHTO    H3 7982   4.198   6.559   0.911
   19CHTO    C9 7983   4.090   6.562   0.663
   19CHTO   H22 7984   4.101   6.600   0.560
   19CHTO    N2 7985   3.944   6.550   0.682
   19CHTO   H10 7986   3.903   6.481   0.609
   19CHTO   H11 7987   3.897   6.646   0.673
   19CHTO    C7 7988   4.169   6.426   0.676
   19CHTO   H20 7989   4.124   6.362   0.597
   19CHTO    O4 7990   4.309   6.444   0.644
   19CHTO   C14 7991   4.384   6.556   0.696
   19CHTO   H27 7992   4.467   6.572   0.624
   19CHTO   C18 7993   4.449   6.517   0.832
   19CHTO   O13 7994   4.552   6.419   0.814
   19CHTO    H7 7995   4.626   6.458   0.771
   19CHTO    O2 7996   4.155   6.350   0.827
   19CHTO    C1 7997   4.116   6.211   0.820
   19CHTO   H14 7998   4.120   6.176   0.714
   19CHTO    C2 7999   3.971   6.183   0.878
   19CHTO   H15 8000   3.970   6.225   0.980
   19CHTO    O6 8001   3.875   6.252   0.796
   19CHTO    H1 8002   3.790   6.246   0.835
   19CHTO    C3 8003   3.939   6.025   0.881
   19CHTO   H16 8004   3.930   5.990   0.777
   19CHTO    N1 8005   3.809   5.994   0.950
   19CHTO    H8 8006   3.760   6.085   0.985
   19CHTO    H9 8007   3.743   5.941   0.883
   19CHTO    C4 8008   4.058   5.944   0.944
   19CHTO   H17 8009   4.060   5.960   1.052
   19CHTO    O1 8010   4.183   5.983   0.885
   19CHTO    C5 8011   4.217   6.122   0.898
   19CHTO   H18 8012   4.214   6.151   1.003
   19CHTO   C16 8013   4.362   6.138   0.847
   19CHTO   O11 8014   4.452   6.061   0.928
   19CHTO    H5 8015   4.539   6.070   0.895
   19CHTO    O3 8016   4.048   5.804   0.912
   19CHTO    C6 8017   4.086   5.707   1.016
   19CHTO   H19 8018   4.131   5.755   1.103
   19CHTO    C8 8019   3.959   5.628   1.063
   19CHTO   H21 8020   3.905   5.594   0.974
   19CHTO    O7 8021   3.877   5.722   1.135
   19CHTO    H2 8022   3.795   5.682   1.158
   19CHTO   C12 8023   3.997   5.502   1.151
   19CHTO   H25 8024   4.039   5.541   1.245
   19CHTO    N3 8025   3.875   5.422   1.187
   19CHTO   H12 8026   3.881   5.322   1.147
   19CHTO   H13 8027   3.862   5.420   1.294
   19CHTO   C15 8028   4.108   5.419   1.077
   19CHTO   H28 8029   4.070   5.374   0.985
   19CHTO   O10 8030   4.169   5.306   1.165
   19CHTO    H4 8031   4.199   5.341   1.247
   19CHTO    O5 8032   4.221   5.502   1.049
   19CHTO   C10 8033   4.193   5.610   0.958
   19CHTO   H23 8034   4.157   5.569   0.864
   19CHTO   C17 8035   4.325   5.682   0.927
   19CHTO   O12 8036   4.414   5.597   0.855
   19CHTO    H6 8037   4.443   5.527   0.910
   20CHTO  H203 8038   4.694   0.748   2.373
   20CHTO   O82 8039   4.786   0.770   2.370
   20CHTO  C123 8040   4.802   0.908   2.332
   20CHTO  H227 8041   4.750   0.971   2.406
   20CHTO   O77 8042   4.946   0.927   2.342
   20CHTO  C118 8043   4.990   1.061   2.313
   20CHTO  H222 8044   4.937   1.133   2.377
   20CHTO  C125 8045   5.144   1.070   2.344
   20CHTO   O84 8046   5.170   1.050   2.484
   20CHTO  H205 8047   5.151   0.961   2.507
   20CHTO  C114 8048   4.960   1.092   2.165
   20CHTO  H218 8049   5.010   1.018   2.103
   20CHTO  C116 8050   4.806   1.079   2.139
   20CHTO  H220 8051   4.752   1.160   2.194
   20CHTO   O79 8052   4.781   1.101   1.999
   20CHTO  H201 8053   4.800   1.190   1.975
   20CHTO  C120 8054   4.753   0.938   2.185
   20CHTO  H224 8055   4.798   0.864   2.116
   20CHTO   N21 8056   4.605   0.925   2.172
   20CHTO  H211 8057   4.555   0.960   2.261
   20CHTO  H212 8058   4.570   0.978   2.085
   20CHTO   O75 8059   5.012   1.225   2.139
   20CHTO  C112 8060   5.127   1.230   2.016
   20CHTO  H216 8061   5.127   1.134   1.962
   20CHTO   O73 8062   5.255   1.255   2.078
   20CHTO  C113 8063   5.366   1.251   1.987
   20CHTO  H217 8064   5.365   1.153   1.934
   20CHTO  C124 8065   5.493   1.257   2.073
   20CHTO   O83 8066   5.612   1.224   2.000
   20CHTO  H204 8067   5.611   1.134   1.976
   20CHTO  C109 8068   5.354   1.367   1.884
   20CHTO  H213 8069   5.361   1.461   1.940
   20CHTO  C110 8070   5.215   1.358   1.812
   20CHTO  H214 8071   5.216   1.270   1.748
   20CHTO   O78 8072   5.198   1.473   1.727
   20CHTO  H200 8073   5.259   1.471   1.657
   20CHTO  C111 8074   5.098   1.346   1.915
   20CHTO  H215 8075   5.092   1.440   1.972
   20CHTO   N19 8076   4.965   1.327   1.851
   20CHTO  H207 8077   4.944   1.410   1.785
   20CHTO  H208 8078   4.888   1.322   1.927
   20CHTO   O74 8079   5.462   1.362   1.785
   20CHTO  C115 8080   5.583   1.481   1.797
   20CHTO  H219 8081   5.566   1.547   1.883
   20CHTO   O76 8082   5.725   1.416   1.821
   20CHTO  C122 8083   5.838   1.504   1.821
   20CHTO  H226 8084   5.927   1.442   1.828
   20CHTO  C126 8085   5.837   1.592   1.952
   20CHTO   O85 8086   5.951   1.678   1.963
   20CHTO  H206 8087   6.029   1.626   1.977
   20CHTO  C121 8088   5.845   1.589   1.688
   20CHTO  H225 8089   5.923   1.667   1.702
   20CHTO   O81 8090   5.892   1.506   1.581
   20CHTO  H202 8091   5.828   1.440   1.561
   20CHTO  C119 8092   5.710   1.661   1.656
   20CHTO  H223 8093   5.700   1.733   1.737
   20CHTO  C117 8094   5.583   1.567   1.665
   20CHTO  H221 8095   5.571   1.495   1.586
   20CHTO   N20 8096   5.459   1.652   1.660
   20CHTO  H209 8097   5.456   1.708   1.568
   20CHTO  H210 8098   5.456   1.719   1.745
   20CHTO   O80 8099   5.718   1.761   1.525
   20CHTO  C103 8100   5.723   1.701   1.366
   20CHTO  H190 8101   5.826   1.687   1.334
   20CHTO  C101 8102   5.638   1.573   1.326
   20CHTO  H188 8103   5.539   1.581   1.370
   20CHTO   O68 8104   5.707   1.449   1.382
   20CHTO  H168 8105   5.653   1.373   1.368
   20CHTO   C99 8106   5.621   1.559   1.166
   20CHTO  H186 8107   5.720   1.537   1.122
   20CHTO   N17 8108   5.529   1.447   1.123
   20CHTO  H174 8109   5.480   1.404   1.208
   20CHTO  H175 8110   5.458   1.480   1.049
   20CHTO   C97 8111   5.577   1.695   1.104
   20CHTO  H184 8112   5.473   1.716   1.136
   20CHTO   O64 8113   5.667   1.799   1.145
   20CHTO  C104 8114   5.666   1.825   1.286
   20CHTO  H191 8115   5.564   1.845   1.320
   20CHTO  C108 8116   5.746   1.952   1.313
   20CHTO   O71 8117   5.682   2.066   1.254
   20CHTO  H171 8118   5.732   2.143   1.273
   20CHTO   O62 8119   5.586   1.694   0.960
   20CHTO   C91 8120   5.509   1.794   0.891
   20CHTO  H178 8121   5.465   1.862   0.964
   20CHTO   C92 8122   5.390   1.729   0.815
   20CHTO  H179 8123   5.430   1.652   0.747
   20CHTO   O66 8124   5.308   1.656   0.909
   20CHTO  H166 8125   5.271   1.715   0.972
   20CHTO   C93 8126   5.302   1.834   0.735
   20CHTO  H180 8127   5.237   1.882   0.808
   20CHTO   N16 8128   5.210   1.771   0.637
   20CHTO  H172 8129   5.142   1.705   0.688
   20CHTO  H173 8130   5.267   1.716   0.563
   20CHTO   C94 8131   5.390   1.946   0.664
   20CHTO  H181 8132   5.428   1.913   0.567
   20CHTO   O61 8133   5.503   1.987   0.742
   20CHTO   C95 8134   5.588   1.880   0.785
   20CHTO  H182 8135   5.615   1.819   0.699
   20CHTO  C106 8136   5.720   1.942   0.842
   20CHTO   O69 8137   5.818   1.840   0.866
   20CHTO  H169 8138   5.896   1.880   0.901
   20CHTO   O63 8139   5.300   2.075   0.648
   20CHTO   C96 8140   5.324   2.162   0.518
   20CHTO  H183 8141   5.322   2.095   0.432
   20CHTO   C98 8142   5.459   2.240   0.516
   20CHTO  H185 8143   5.473   2.289   0.614
   20CHTO   O67 8144   5.566   2.145   0.505
   20CHTO  H167 8145   5.649   2.188   0.512
   20CHTO  C102 8146   5.468   2.349   0.398
   20CHTO  H189 8147   5.475   2.291   0.305
   20CHTO   N18 8148   5.588   2.436   0.401
   20CHTO  H176 8149   5.677   2.375   0.392
   20CHTO  H177 8150   5.591   2.491   0.493
   20CHTO  C105 8151   5.336   2.430   0.390
   20CHTO  H192 8152   5.330   2.496   0.477
   20CHTO   O65 8153   5.221   2.345   0.387
   20CHTO  C100 8154   5.204   2.264   0.504
   20CHTO  H187 8155   5.201   2.329   0.593
   20CHTO  C107 8156   5.066   2.194   0.491
   20CHTO   O70 8157   5.026   2.129   0.612
   20CHTO  H170 8158   4.943   2.087   0.599
   20CHTO   O57 8159   5.342   2.520   0.250
   20CHTO   C85 8160   5.257   2.635   0.238
   20CHTO  H157 8161   5.238   2.671   0.342
   20CHTO   C83 8162   5.117   2.594   0.181
   20CHTO  H155 8163   5.071   2.525   0.252
   20CHTO   O56 8164   5.136   2.521   0.058
   20CHTO  H135 8165   5.054   2.488   0.027
   20CHTO   C81 8166   5.027   2.720   0.168
   20CHTO  H153 8167   5.017   2.765   0.266
   20CHTO   N14 8168   4.887   2.688   0.129
   20CHTO  H141 8169   4.855   2.746   0.045
   20CHTO  H142 8170   4.876   2.584   0.105
   20CHTO   C79 8171   5.095   2.827   0.073
   20CHTO  H151 8172   5.035   2.917   0.077
   20CHTO   O52 8173   5.228   2.863   0.123
   20CHTO   C86 8174   5.318   2.750   0.148
   20CHTO  H158 8175   5.342   2.712   0.046
   20CHTO   C90 8176   5.452   2.801   0.206
   20CHTO   O60 8177   5.433   2.870   0.331
   20CHTO  H138 8178   5.389   2.951   0.316
   20CHTO   O50 8179   5.103   2.785   2.809
   20CHTO   C73 8180   5.153   2.824   2.680
   20CHTO  H145 8181   5.262   2.809   2.676
   20CHTO   C74 8182   5.123   2.975   2.651
   20CHTO  H146 8183   5.170   3.034   2.731
   20CHTO   O54 8184   5.192   3.011   2.529
   20CHTO  H133 8185   5.285   3.009   2.542
   20CHTO   C75 8186   4.967   2.997   2.644
   20CHTO  H147 8187   4.924   2.972   2.742
   20CHTO   N13 8188   4.929   3.138   2.616
   20CHTO  H139 8189   4.867   3.177   2.696
   20CHTO  H140 8190   4.876   3.147   2.523
   20CHTO   C76 8191   4.903   2.895   2.538
   20CHTO  H148 8192   4.942   2.922   2.439
   20CHTO   O49 8193   4.943   2.757   2.568
   20CHTO   C77 8194   5.086   2.737   2.570
   20CHTO  H149 8195   5.128   2.764   2.473
   20CHTO   C88 8196   5.116   2.588   2.589
   20CHTO   O58 8197   5.065   2.508   2.475
   20CHTO  H136 8198   5.087   2.418   2.488
   20CHTO   O51 8199   4.736   2.901   2.540
   20CHTO   C78 8200   4.663   2.811   2.653
   20CHTO  H150 8201   4.734   2.781   2.733
   20CHTO   C80 8202   4.602   2.685   2.589
   20CHTO  H152 8203   4.535   2.716   2.505
   20CHTO   O55 8204   4.709   2.607   2.532
   20CHTO  H134 8205   4.767   2.577   2.599
   20CHTO   C84 8206   4.517   2.600   2.693
   20CHTO  H156 8207   4.586   2.563   2.770
   20CHTO   N15 8208   4.451   2.480   2.631
   20CHTO  H143 8209   4.526   2.417   2.588
   20CHTO  H144 8210   4.397   2.426   2.706
   20CHTO   C87 8211   4.413   2.693   2.762
   20CHTO  H159 8212   4.338   2.724   2.689
   20CHTO   O53 8213   4.484   2.817   2.820
   20CHTO   C82 8214   4.551   2.895   2.720
   20CHTO  H154 8215   4.479   2.928   2.645
   20CHTO   C89 8216   4.606   3.023   2.788
   20CHTO   O59 8217   4.697   2.993   0.021
   20CHTO  H137 8218   4.727   3.073   0.059
   20CHTO   O45 8219   4.334   2.614   0.011
   20CHTO   C67 8220   4.396   2.619   0.141
   20CHTO  H124 8221   4.504   2.628   0.130
   20CHTO   C65 8222   4.342   2.742   0.224
   20CHTO  H122 8223   4.274   2.796   0.159
   20CHTO   O44 8224   4.454   2.827   0.255
   20CHTO  H102 8225   4.509   2.787   0.319
   20CHTO   C63 8226   4.255   2.695   0.347
   20CHTO  H120 8227   4.170   2.638   0.309
   20CHTO   N11 8228   4.186   2.804   0.424
   20CHTO  H108 8229   4.128   2.865   0.358
   20CHTO  H109 8230   4.258   2.865   0.474
   20CHTO   C61 8231   4.341   2.597   0.435
   20CHTO  H118 8232   4.272   2.549   0.506
   20CHTO   O40 8233   4.404   2.490   0.359
   20CHTO   C68 8234   4.372   2.481   0.216
   20CHTO  H125 8235   4.265   2.453   0.207
   20CHTO   C72 8236   4.454   2.366   0.153
   20CHTO   O48 8237   4.596   2.385   0.163
   20CHTO  H105 8238   4.623   2.457   0.110
   20CHTO   O38 8239   4.448   2.665   0.504
   20CHTO   C55 8240   4.489   2.606   0.629
   20CHTO  H112 8241   4.455   2.501   0.634
   20CHTO   C56 8242   4.434   2.692   0.750
   20CHTO  H113 8243   4.464   2.796   0.731
   20CHTO   O42 8244   4.290   2.690   0.748
   20CHTO  H100 8245   4.258   2.603   0.759
   20CHTO   C57 8246   4.490   2.642   0.889
   20CHTO  H114 8247   4.439   2.548   0.910
   20CHTO   N10 8248   4.459   2.734   1.002
   20CHTO  H106 8249   4.363   2.708   1.045
   20CHTO  H107 8250   4.535   2.728   1.079
   20CHTO   C58 8251   4.643   2.614   0.881
   20CHTO  H115 8252   4.699   2.711   0.881
   20CHTO   O37 8253   4.678   2.538   0.764
   20CHTO   C59 8254   4.645   2.600   0.639
   20CHTO  H116 8255   4.688   2.699   0.633
   20CHTO   C70 8256   4.707   2.512   0.529
   20CHTO   O46 8257   4.700   2.572   0.398
   20CHTO  H103 8258   4.756   2.646   0.394
   20CHTO   O39 8259   4.685   2.523   1.009
   20CHTO   C60 8260   4.825   2.494   1.024
   20CHTO  H117 8261   4.880   2.529   0.937
   20CHTO   C62 8262   4.884   2.564   1.151
   20CHTO  H119 8263   4.876   2.673   1.132
   20CHTO   O43 8264   4.802   2.531   1.265
   20CHTO  H101 8265   4.832   2.578   1.341
   20CHTO   C66 8266   5.038   2.523   1.169
   20CHTO  H123 8267   5.092   2.550   1.079
   20CHTO   N12 8268   5.104   2.596   1.280
   20CHTO  H110 8269   5.207   2.566   1.288
   20CHTO  H111 8270   5.097   2.703   1.263
   20CHTO   C69 8271   5.046   2.369   1.185
   20CHTO  H126 8272   4.987   2.336   1.274
   20CHTO   O41 8273   4.989   2.304   1.057
   20CHTO   C64 8274   4.845   2.339   1.031
   20CHTO  H121 8275   4.780   2.298   1.111
   20CHTO   C71 8276   4.802   2.274   0.897
   20CHTO   O47 8277   4.808   2.131   0.906
   20CHTO  H104 8278   4.788   2.094   0.822
   20CHTO   O34 8279   5.192   2.318   1.203
   20CHTO   C49 8280   5.208   2.168   1.238
   20CHTO   H91 8281   5.119   2.119   1.199
   20CHTO   C47 8282   5.211   2.147   1.391
   20CHTO   H89 8283   5.104   2.141   1.421
   20CHTO   O33 8284   5.271   2.259   1.458
   20CHTO   H70 8285   5.219   2.336   1.446
   20CHTO   C45 8286   5.291   2.013   1.432
   20CHTO   H87 8287   5.398   2.038   1.440
   20CHTO    N8 8288   5.246   1.965   1.566
   20CHTO   H75 8289   5.327   1.973   1.638
   20CHTO   H76 8290   5.213   1.862   1.561
   20CHTO   C43 8291   5.285   1.903   1.315
   20CHTO   H85 8292   5.345   1.819   1.350
   20CHTO   O29 8293   5.337   1.957   1.191
   20CHTO   C50 8294   5.331   2.100   1.172
   20CHTO   H92 8295   5.422   2.145   1.214
   20CHTO   C54 8296   5.340   2.133   1.021
   20CHTO   O36 8297   5.224   2.086   0.950
   20CHTO   H72 8298   5.233   2.107   0.859
   20CHTO   O27 8299   5.152   1.853   1.296
   20CHTO   C37 8300   5.046   1.773   1.240
   20CHTO   H79 8301   4.965   1.763   1.314
   20CHTO   C38 8302   4.985   1.842   1.114
   20CHTO   H80 8303   5.067   1.874   1.048
   20CHTO   O31 8304   4.916   1.961   1.159
   20CHTO   H68 8305   4.844   1.938   1.215
   20CHTO   C39 8306   4.887   1.747   1.032
   20CHTO   H81 8307   4.799   1.730   1.094
   20CHTO    N7 8308   4.840   1.806   0.902
   20CHTO   H73 8309   4.872   1.747   0.818
   20CHTO   H74 8310   4.873   1.908   0.891
   20CHTO   C40 8311   4.956   1.607   1.011
   20CHTO   H82 8312   5.044   1.622   0.948
   20CHTO   O26 8313   4.992   1.555   1.140
   20CHTO   C41 8314   5.098   1.630   1.204
   20CHTO   H83 8315   5.185   1.639   1.136
   20CHTO   C52 8316   5.141   1.546   1.326
   20CHTO   O35 8317   5.261   1.589   1.385
   20CHTO   H71 8318   5.284   1.532   1.456
   20CHTO   O28 8319   4.870   1.508   0.949
   20CHTO   C42 8320   4.929   1.392   0.881
   20CHTO   H84 8321   4.842   1.335   0.849
   20CHTO   C44 8322   5.012   1.296   0.973
   20CHTO   H86 8323   5.084   1.355   1.029
   20CHTO   O32 8324   4.919   1.238   1.067
   20CHTO   H69 8325   4.887   1.304   1.126
   20CHTO   C48 8326   5.093   1.186   0.893
   20CHTO   H90 8327   5.022   1.117   0.847
   20CHTO    N9 8328   5.178   1.103   0.985
   20CHTO   H77 8329   5.233   1.030   0.928
   20CHTO   H78 8330   5.116   1.054   1.058
   20CHTO   C51 8331   5.175   1.259   0.782
   20CHTO   H93 8332   5.235   1.336   0.830
   20CHTO   O30 8333   5.079   1.316   0.691
   20CHTO   C46 8334   5.007   1.433   0.751
   20CHTO   H88 8335   5.080   1.510   0.774
   20CHTO   C53 8336   4.907   1.487   0.645
   20CHTO   O72 8337   4.976   1.531   0.527
   20CHTO  H199 8338   4.914   1.567   0.466
   20CHTO   O22 8339   5.257   1.174   0.699
   20CHTO   C31 8340   5.393   1.215   0.658
   20CHTO   H59 8341   5.418   1.152   0.570
   20CHTO   C29 8342   5.410   1.362   0.613
   20CHTO   H57 8343   5.384   1.427   0.698
   20CHTO   O21 8344   5.314   1.389   0.509
   20CHTO   H37 8345   5.314   1.480   0.488
   20CHTO   C27 8346   5.559   1.393   0.568
   20CHTO   H55 8347   5.583   1.330   0.481
   20CHTO    N5 8348   5.581   1.535   0.532
   20CHTO   H43 8349   5.513   1.563   0.452
   20CHTO   H44 8350   5.683   1.550   0.500
   20CHTO   C25 8351   5.657   1.348   0.683
   20CHTO   H53 8352   5.640   1.411   0.772
   20CHTO   O17 8353   5.633   1.209   0.719
   20CHTO   C32 8354   5.500   1.179   0.765
   20CHTO   H60 8355   5.480   1.237   0.856
   20CHTO   C36 8356   5.495   1.029   0.803
   20CHTO   O25 8357   5.525   0.943   0.693
   20CHTO   H40 8358   5.519   0.853   0.720
   20CHTO   O15 8359   5.806   1.359   0.640
   20CHTO   C19 8360   5.926   1.439   0.661
   20CHTO   H47 8361   5.891   1.543   0.648
   20CHTO   C20 8362   5.988   1.425   0.803
   20CHTO   H48 8363   6.010   1.320   0.828
   20CHTO   O19 8364   5.888   1.471   0.897
   20CHTO   H35 8365   5.918   1.458   0.985
   20CHTO   C21 8366   6.122   1.508   0.818
   20CHTO   H49 8367   6.098   1.614   0.814
   20CHTO    N4 8368   6.190   1.485   0.949
   20CHTO   H41 8369   6.279   1.545   0.956
   20CHTO   H42 8370   6.217   1.381   0.958
   20CHTO   C22 8371   6.215   1.477   0.697
   20CHTO   H50 8372   6.245   1.372   0.703
   20CHTO   O14 8373   6.146   1.501   0.574
   20CHTO   C23 8374   6.034   1.415   0.552
   20CHTO   H51 8375   6.072   1.311   0.553
   20CHTO   C34 8376   5.981   1.439   0.409
   20CHTO   O23 8377   5.940   1.575   0.388
   20CHTO   H38 8378   5.864   1.594   0.439
   20CHTO   O16 8379   6.331   1.563   0.691
   20CHTO   C24 8380   6.446   1.497   0.600
   20CHTO   H52 8381   6.408   1.415   0.539
   20CHTO   C26 8382   6.557   1.441   0.693
   20CHTO   H54 8383   6.574   1.515   0.775
   20CHTO   O20 8384   6.510   1.322   0.758
   20CHTO   H36 8385   6.440   1.343   0.818
   20CHTO   C30 8386   6.690   1.408   0.618
   20CHTO   H58 8387   6.723   1.307   0.643
   20CHTO    N6 8388   6.804   1.492   0.663
   20CHTO   H45 8389   6.782   1.597   0.647
   20CHTO   H46 8390   6.823   1.476   0.768
   20CHTO   C33 8391   6.671   1.414   0.463
   20CHTO   H61 8392   6.767   1.399   0.412
   20CHTO   O18 8393   6.619   1.544   0.426
   20CHTO   C28 8394   6.509   1.600   0.501
   20CHTO   H56 8395   6.544   1.686   0.558
   20CHTO   C35 8396   6.401   1.650   0.402
   20CHTO   O24 8397   6.449   1.753   0.315
   20CHTO   H39 8398   6.513   1.718   0.256
   20CHTO    O9 8399   6.586   1.308   0.416
   20CHTO   C13 8400   6.633   1.155   0.437
   20CHTO   H26 8401   6.697   1.148   0.527
   20CHTO   C11 8402   6.709   1.104   0.307
   20CHTO   H24 8403   6.799   1.167   0.294
   20CHTO    O8 8404   6.625   1.124   0.192
   20CHTO    H3 8405   6.548   1.070   0.197
   20CHTO    C9 8406   6.753   0.957   0.332
   20CHTO   H22 8407   6.828   0.963   0.413
   20CHTO    N2 8408   6.830   0.899   0.220
   20CHTO   H10 8409   6.913   0.964   0.194
   20CHTO   H11 8410   6.766   0.885   0.134
   20CHTO    C7 8411   6.631   0.870   0.387
   20CHTO   H20 8412   6.661   0.852   0.492
   20CHTO    O4 8413   6.507   0.943   0.385
   20CHTO   C14 8414   6.508   1.060   0.468
   20CHTO   H27 8415   6.514   1.027   0.574
   20CHTO   C18 8416   6.370   1.130   0.452
   20CHTO   O13 8417   6.262   1.048   0.497
   20CHTO    H7 8418   6.250   0.976   0.437
   20CHTO    O2 8419   6.606   0.724   0.316
   20CHTO    C1 8420   6.540   0.636   0.408
   20CHTO   H14 8421   6.491   0.695   0.488
   20CHTO    C2 8422   6.639   0.533   0.476
   20CHTO   H15 8423   6.684   0.474   0.394
   20CHTO    O6 8424   6.742   0.607   0.545
   20CHTO    H1 8425   6.797   0.651   0.483
   20CHTO    C3 8426   6.557   0.438   0.575
   20CHTO   H16 8427   6.516   0.501   0.656
   20CHTO    N1 8428   6.645   0.334   0.638
   20CHTO    H8 8429   6.611   0.235   0.614
   20CHTO    H9 8430   6.647   0.347   0.746
   20CHTO    C4 8431   6.433   0.377   0.501
   20CHTO   H17 8432   6.468   0.303   0.428
   20CHTO    O1 8433   6.355   0.479   0.436
   20CHTO    C5 8434   6.425   0.557   0.338
   20CHTO   H18 8435   6.469   0.492   0.261
   20CHTO   C16 8436   6.319   0.649   0.272
   20CHTO   O11 8437   6.371   0.719   0.159
   20CHTO    H5 8438   6.305   0.776   0.125
   20CHTO    O3 8439   6.343   0.314   0.596
   20CHTO    C6 8440   6.244   0.225   0.535
   20CHTO   H19 8441   6.235   0.240   0.427
   20CHTO    C8 8442   6.280   0.075   0.559
   20CHTO   H21 8443   6.283   0.057   0.667
   20CHTO    O7 8444   6.411   0.052   0.503
   20CHTO    H2 8445   6.440   9.965   0.523
   20CHTO   C12 8446   6.169   9.983   0.493
   20CHTO   H25 8447   6.175   0.001   0.384
   20CHTO    N3 8448   6.196   9.837   0.515
   20CHTO   H12 8449   6.291   9.810   0.471
   20CHTO   H13 8450   6.197   9.815   0.621
   20CHTO   C15 8451   6.026   0.028   0.543
   20CHTO   H28 8452   6.008   9.998   0.646
   20CHTO   O10 8453   5.914   9.973   0.453
   20CHTO    H4 8454   5.914   9.879   0.457
   20CHTO    O5 8455   6.006   0.169   0.529
   20CHTO   C10 8456   6.103   0.251   0.596
   20CHTO   H23 8457   6.104   0.225   0.702
   20CHTO   C17 8458   6.061   0.398   0.584
   20CHTO   O12 8459   5.937   0.421   0.651
   20CHTO    H6 8460   5.914   0.512   0.645
   21GLOH   H03 8461   3.481   1.277   0.935
   21GLOH    O1 8462   3.405   1.337   0.960
   21GLOH    C1 8463   3.447   1.409   1.077
   21GLOH   H02 8464   3.460   1.514   1.052
   21GLOH   H08 8465   3.544   1.374   1.113
   21GLOH    C2 8466   3.348   1.398   1.195
   21GLOH   H04 8467   3.247   1.423   1.158
   21GLOH    O2 8468   3.347   1.265   1.250
   21GLOH   H05 8469   3.338   1.197   1.178
   21GLOH    C3 8470   3.386   1.500   1.304
   21GLOH   H06 8471   3.480   1.468   1.349
   21GLOH   H07 8472   3.311   1.496   1.383
   21GLOH    O3 8473   3.398   1.635   1.255
   21GLOH   H01 8474   3.323   1.653   1.192
   22GLOH   H03 8475   3.239   9.455   2.254
   22GLOH    O1 8476   3.186   9.537   2.274
   22GLOH    C1 8477   3.267   9.654   2.253
   22GLOH   H02 8478   3.341   9.637   2.174
   22GLOH   H08 8479   3.322   9.679   2.343
   22GLOH    C2 8480   3.180   9.775   2.213
   22GLOH   H04 8481   3.108   9.794   2.294
   22GLOH    O2 8482   3.260   9.894   2.193
   22GLOH   H05 8483   3.201   9.974   2.202
   22GLOH    C3 8484   3.101   9.742   2.085
   22GLOH   H06 8485   3.172   9.730   2.003
   22GLOH   H07 8486   3.037   9.827   2.060
   22GLOH    O3 8487   3.023   9.623   2.103
   22GLOH   H01 8488   3.068   9.574   2.176
   23GLOH   H03 8489   3.276   9.048   1.380
   23GLOH    O1 8490   3.212   8.975   1.398
   23GLOH    C1 8491   3.090   9.002   1.325
   23GLOH   H02 8492   3.081   9.109   1.304
   23GLOH   H08 8493   3.004   8.975   1.386
   23GLOH    C2 8494   3.080   8.925   1.191
   23GLOH   H04 8495   2.977   8.936   1.154
   23GLOH    O2 8496   3.170   8.978   1.092
   23GLOH   H05 8497   3.224   8.903   1.054
   23GLOH    C3 8498   3.106   8.775   1.216
   23GLOH   H06 8499   3.101   8.722   1.121
   23GLOH   H07 8500   3.025   8.736   1.278
   23GLOH    O3 8501   3.233   8.755   1.280
   23GLOH   H01 8502   3.240   8.831   1.344
   24GLOH   H03 8503   4.209   1.465   0.285
   24GLOH    O1 8504   4.231   1.386   0.340
   24GLOH    C1 8505   4.346   1.419   0.420
   24GLOH   H02 8506   4.314   1.476   0.507
   24GLOH   H08 8507   4.414   1.483   0.364
   24GLOH    C2 8508   4.425   1.296   0.470
   24GLOH   H04 8509   4.451   1.235   0.382
   24GLOH    O2 8510   4.547   1.342   0.533
   24GLOH   H05 8511   4.529   1.429   0.580
   24GLOH    C3 8512   4.344   1.210   0.568
   24GLOH   H06 8513   4.313   1.273   0.652
   24GLOH   H07 8514   4.410   1.134   0.608
   24GLOH    O3 8515   4.227   1.147   0.511
   24GLOH   H01 8516   4.187   1.090   0.583
   25GLOH   H03 8517   4.157   3.631   0.375
   25GLOH    O1 8518   4.059   3.617   0.364
   25GLOH    C1 8519   4.034   3.476   0.359
   25GLOH   H02 8520   4.001   3.442   0.457
   25GLOH   H08 8521   4.125   3.421   0.336
   25GLOH    C2 8522   3.928   3.438   0.254
   25GLOH   H04 8523   3.840   3.501   0.272
   25GLOH    O2 8524   3.973   3.462   0.119
   25GLOH   H05 8525   3.974   3.558   0.098
   25GLOH    C3 8526   3.885   3.291   0.272
   25GLOH   H06 8527   3.970   3.228   0.247
   25GLOH   H07 8528   3.807   3.270   0.199
   25GLOH    O3 8529   3.838   3.261   0.405
   25GLOH   H01 8530   3.792   3.340   0.444
   26GLOH   H03 8531   3.423   1.678   2.636
   26GLOH    O1 8532   3.514   1.682   2.672
   26GLOH    C1 8533   3.609   1.686   2.563
   26GLOH   H02 8534   3.566   1.736   2.476
   26GLOH   H08 8535   3.633   1.584   2.532
   26GLOH    C2 8536   3.739   1.758   2.602
   26GLOH   H04 8537   3.781   1.708   2.691
   26GLOH    O2 8538   3.836   1.754   2.495
   26GLOH   H05 8539   3.823   1.677   2.433
   26GLOH    C3 8540   3.708   1.905   2.638
   26GLOH   H06 8541   3.796   1.948   2.685
   26GLOH   H07 8542   3.629   1.907   2.713
   26GLOH    O3 8543   3.670   1.980   2.522
   26GLOH   H01 8544   3.741   1.963   2.456
   27GLOH   H03 8545   4.547   1.048   1.051
   27GLOH    O1 8546   4.556   1.118   0.982
   27GLOH    C1 8547   4.588   1.052   0.858
   27GLOH   H02 8548   4.696   1.050   0.843
   27GLOH   H08 8549   4.545   1.108   0.775
   27GLOH    C2 8550   4.533   0.908   0.852
   27GLOH   H04 8551   4.424   0.913   0.857
   27GLOH    O2 8552   4.572   0.840   0.731
   27GLOH   H05 8553   4.529   0.750   0.731
   27GLOH    C3 8554   4.584   0.832   0.976
   27GLOH   H06 8555   4.693   0.833   0.974
   27GLOH   H07 8556   4.553   0.728   0.970
   27GLOH    O3 8557   4.536   0.892   1.098
   27GLOH   H01 8558   4.504   0.820   1.158
   28GLOH   H03 8559   4.609   1.354   1.720
   28GLOH    O1 8560   4.610   1.442   1.767
   28GLOH    C1 8561   4.548   1.425   1.896
   28GLOH   H02 8562   4.549   1.520   1.949
   28GLOH   H08 8563   4.607   1.355   1.956
   28GLOH    C2 8564   4.403   1.374   1.890
   28GLOH   H04 8565   4.402   1.278   1.835
   28GLOH    O2 8566   4.355   1.351   2.025
   28GLOH   H05 8567   4.291   1.422   2.051
   28GLOH    C3 8568   4.308   1.472   1.818
   28GLOH   H06 8569   4.310   1.567   1.872
   28GLOH   H07 8570   4.206   1.433   1.827
   28GLOH    O3 8571   4.339   1.495   1.680
   28GLOH   H01 8572   4.415   1.559   1.677
   29GLOH   H03 8573   3.638   0.787   2.214
   29GLOH    O1 8574   3.586   0.719   2.163
   29GLOH    C1 8575   3.446   0.747   2.181
   29GLOH   H02 8576   3.432   0.842   2.233
   29GLOH   H08 8577   3.401   0.670   2.244
   29GLOH    C2 8578   3.367   0.754   2.049
   29GLOH   H04 8579   3.391   0.665   1.988
   29GLOH    O2 8580   3.226   0.756   2.077
   29GLOH   H05 8581   3.175   0.710   2.004
   29GLOH    C3 8582   3.404   0.880   1.968
   29GLOH   H06 8583   3.381   0.967   2.030
   29GLOH   H07 8584   3.338   0.886   1.881
   29GLOH    O3 8585   3.541   0.885   1.927
   29GLOH   H01 8586   3.554   0.812   1.860
   30GLOH   H03 8587   4.108   0.751   2.824
   30GLOH    O1 8588   4.028   0.716   2.781
   30GLOH    C1 8589   3.950   0.829   2.739
   30GLOH   H02 8590   3.911   0.882   2.825
   30GLOH   H08 8591   3.864   0.796   2.681
   30GLOH    C2 8592   4.031   0.929   2.654
   30GLOH   H04 8593   3.966   1.015   2.632
   30GLOH    O2 8594   4.146   0.973   2.729
   30GLOH   H05 8595   4.213   1.012   2.668
   30GLOH    C3 8596   4.072   0.864   2.519
   30GLOH   H06 8597   3.984   0.818   2.475
   30GLOH   H07 8598   4.142   0.784   2.540
   30GLOH    O3 8599   4.130   0.959   2.428
   30GLOH   H01 8600   4.203   1.007   2.475
   31GLOH   H03 8601   4.256   2.219   0.469
   31GLOH    O1 8602   4.223   2.169   0.390
   31GLOH    C1 8603   4.100   2.103   0.428
   31GLOH   H02 8604   4.020   2.176   0.441
   31GLOH   H08 8605   4.112   2.052   0.524
   31GLOH    C2 8606   4.055   2.000   0.323
   31GLOH   H04 8607   4.134   1.924   0.314
   31GLOH    O2 8608   3.932   1.936   0.363
   31GLOH   H05 8609   3.935   1.841   0.331
   31GLOH    C3 8610   4.038   2.069   0.187
   31GLOH   H06 8611   3.960   2.144   0.194
   31GLOH   H07 8612   4.005   1.995   0.113
   31GLOH    O3 8613   4.163   2.127   0.146
   31GLOH   H01 8614   4.207   2.155   0.231
   32GLOH   H03 8615   3.219   4.106   0.364
   32GLOH    O1 8616   3.288   4.164   0.321
   32GLOH    C1 8617   3.408   4.085   0.311
   32GLOH   H02 8618   3.404   4.023   0.222
   32GLOH   H08 8619   3.418   4.019   0.396
   32GLOH    C2 8620   3.534   4.173   0.303
   32GLOH   H04 8621   3.538   4.238   0.391
   32GLOH    O2 8622   3.650   4.088   0.302
   32GLOH   H05 8623   3.679   4.076   0.396
   32GLOH    C3 8624   3.530   4.262   0.177
   32GLOH   H06 8625   3.533   4.199   0.089
   32GLOH   H07 8626   3.619   4.325   0.176
   32GLOH    O3 8627   3.411   4.343   0.177
   32GLOH   H01 8628   3.343   4.291   0.228
   33GLOH   H03 8629   4.364   1.232   2.124
   33GLOH    O1 8630   4.351   1.174   2.204
   33GLOH    C1 8631   4.351   1.259   2.320
   33GLOH   H02 8632   4.253   1.256   2.368
   33GLOH   H08 8633   4.367   1.363   2.292
   33GLOH    C2 8634   4.457   1.220   2.425
   33GLOH   H04 8635   4.556   1.219   2.377
   33GLOH    O2 8636   4.455   1.317   2.531
   33GLOH   H05 8637   4.535   1.308   2.592
   33GLOH    C3 8638   4.426   1.081   2.481
   33GLOH   H06 8639   4.511   1.046   2.539
   33GLOH   H07 8640   4.413   1.010   2.399
   33GLOH    O3 8641   4.307   1.086   2.563
   33GLOH   H01 8642   4.314   1.174   2.606
   34GLOH   H03 8643   4.477   3.136   1.083
   34GLOH    O1 8644   4.571   3.127   1.113
   34GLOH    C1 8645   4.614   3.253   1.168
   34GLOH   H02 8646   4.551   3.281   1.253
   34GLOH   H08 8647   4.603   3.332   1.093
   34GLOH    C2 8648   4.761   3.249   1.214
   34GLOH   H04 8649   4.823   3.226   1.126
   34GLOH    O2 8650   4.803   3.376   1.269
   34GLOH   H05 8651   4.722   3.433   1.289
   34GLOH    C3 8652   4.781   3.137   1.318
   34GLOH   H06 8653   4.729   3.166   1.409
   34GLOH   H07 8654   4.887   3.131   1.340
   34GLOH    O3 8655   4.733   3.010   1.271
   34GLOH   H01 8656   4.671   3.032   1.196
   35GLOH   H03 8657   4.614   3.857   2.243
   35GLOH    O1 8658   4.644   3.788   2.307
   35GLOH    C1 8659   4.528   3.725   2.363
   35GLOH   H02 8660   4.544   3.617   2.373
   35GLOH   H08 8661   4.442   3.737   2.298
   35GLOH    C2 8662   4.490   3.781   2.502
   35GLOH   H04 8663   4.388   3.749   2.526
   35GLOH    O2 8664   4.580   3.731   2.604
   35GLOH   H05 8665   4.669   3.726   2.564
   35GLOH    C3 8666   4.492   3.935   2.500
   35GLOH   H06 8667   4.595   3.969   2.485
   35GLOH   H07 8668   4.461   3.971   2.598
   35GLOH    O3 8669   4.407   3.989   2.398
   35GLOH   H01 8670   4.458   3.995   2.313
   36GLOH   H03 8671   4.314   3.257   2.407
   36GLOH    O1 8672   4.302   3.160   2.413
   36GLOH    C1 8673   4.324   3.102   2.283
   36GLOH   H02 8674   4.428   3.070   2.274
   36GLOH   H08 8675   4.307   3.176   2.205
   36GLOH    C2 8676   4.234   2.981   2.255
   36GLOH   H04 8677   4.129   3.016   2.255
   36GLOH    O2 8678   4.265   2.926   2.126
   36GLOH   H05 8679   4.232   2.992   2.057
   36GLOH    C3 8680   4.247   2.875   2.367
   36GLOH   H06 8681   4.349   2.837   2.369
   36GLOH   H07 8682   4.181   2.791   2.344
   36GLOH    O3 8683   4.212   2.933   2.494
   36GLOH   H01 8684   4.246   3.026   2.490
   37GLOH   H03 8685   3.396   3.083   2.160
   37GLOH    O1 8686   3.415   3.107   2.066
   37GLOH    C1 8687   3.441   2.987   1.991
   37GLOH   H02 8688   3.491   2.913   2.053
   37GLOH   H08 8689   3.508   3.007   1.908
   37GLOH    C2 8690   3.312   2.923   1.934
   37GLOH   H04 8691   3.268   2.994   1.862
   37GLOH    O2 8692   3.342   2.799   1.866
   37GLOH   H05 8693   3.256   2.752   1.847
   37GLOH    C3 8694   3.211   2.901   2.048
   37GLOH   H06 8695   3.198   2.995   2.101
   37GLOH   H07 8696   3.254   2.830   2.118
   37GLOH    O3 8697   3.083   2.855   2.001
   37GLOH   H01 8698   3.031   2.935   1.976
   38GLOH   H03 8699   3.642   3.238   1.946
   38GLOH    O1 8700   3.682   3.274   2.030
   38GLOH    C1 8701   3.760   3.172   2.095
   38GLOH   H02 8702   3.774   3.086   2.030
   38GLOH   H08 8703   3.708   3.136   2.184
   38GLOH    C2 8704   3.899   3.225   2.137
   38GLOH   H04 8705   3.952   3.143   2.188
   38GLOH    O2 8706   3.975   3.264   2.021
   38GLOH   H05 8707   3.920   3.329   1.970
   38GLOH    C3 8708   3.888   3.343   2.235
   38GLOH   H06 8709   3.824   3.419   2.191
   38GLOH   H07 8710   3.987   3.388   2.245
   38GLOH    O3 8711   3.838   3.304   2.364
   38GLOH   H01 8712   3.743   3.283   2.354
   39GLOH   H03 8713   4.157   0.342   1.017
   39GLOH    O1 8714   4.094   0.321   0.943
   39GLOH    C1 8715   4.021   0.204   0.981
   39GLOH   H02 8716   4.080   0.114   0.963
   39GLOH   H08 8717   3.930   0.195   0.921
   39GLOH    C2 8718   3.978   0.207   1.128
   39GLOH   H04 8719   3.919   0.298   1.143
   39GLOH    O2 8720   3.898   0.093   1.161
   39GLOH   H05 8721   3.839   0.117   1.238
   39GLOH    C3 8722   4.103   0.215   1.218
   39GLOH   H06 8723   4.165   0.127   1.200
   39GLOH   H07 8724   4.072   0.211   1.323
   39GLOH    O3 8725   4.179   0.335   1.193
   39GLOH   H01 8726   4.184   0.384   1.280
   40GLOH   H03 8727   3.095   0.541   1.913
   40GLOH    O1 8728   3.081   0.639   1.897
   40GLOH    C1 8729   3.052   0.655   1.757
   40GLOH   H02 8730   2.963   0.598   1.730
   40GLOH   H08 8731   3.134   0.614   1.697
   40GLOH    C2 8732   3.029   0.801   1.716
   40GLOH   H04 8733   3.117   0.860   1.746
   40GLOH    O2 8734   3.012   0.810   1.573
   40GLOH   H05 8735   3.101   0.790   1.530
   40GLOH    C3 8736   2.905   0.858   1.787
   40GLOH   H06 8737   2.817   0.804   1.753
   40GLOH   H07 8738   2.893   0.962   1.757
   40GLOH    O3 8739   2.919   0.848   1.930
   40GLOH   H01 8740   2.968   0.765   1.948
   41GLOH   H03 8741   3.587   1.202   0.491
   41GLOH    O1 8742   3.637   1.257   0.556
   41GLOH    C1 8743   3.556   1.370   0.593
   41GLOH   H02 8744   3.597   1.419   0.682
   41GLOH   H08 8745   3.455   1.337   0.620
   41GLOH    C2 8746   3.546   1.474   0.480
   41GLOH   H04 8747   3.512   1.421   0.390
   41GLOH    O2 8748   3.451   1.578   0.512
   41GLOH   H05 8749   3.378   1.573   0.443
   41GLOH    C3 8750   3.685   1.535   0.451
   41GLOH   H06 8751   3.761   1.475   0.501
   41GLOH   H07 8752   3.689   1.634   0.495
   41GLOH    O3 8753   3.714   1.543   0.309
   41GLOH   H01 8754   3.637   1.585   0.261
   42GLOH   H03 8755   3.656   2.272   2.837
   42GLOH    O1 8756   3.576   2.219   2.857
   42GLOH    C1 8757   3.543   2.236   0.122
   42GLOH   H02 8758   3.435   2.232   0.136
   42GLOH   H08 8759   3.575   2.335   0.157
   42GLOH    C2 8760   3.608   2.127   0.209
   42GLOH   H04 8761   3.706   2.103   0.165
   42GLOH    O2 8762   3.630   2.176   0.343
   42GLOH   H05 8763   3.653   2.099   0.402
   42GLOH    C3 8764   3.523   1.999   0.206
   42GLOH   H06 8765   3.586   1.916   0.239
   42GLOH   H07 8766   3.498   1.978   0.102
   42GLOH    O3 8767   3.402   2.002   0.285
   42GLOH   H01 8768   3.420   1.946   0.365
   43GLOH   H03 8769   3.770   9.564   0.002
   43GLOH    O1 8770   3.796   9.658   2.857
   43GLOH    C1 8771   3.830   9.720   0.109
   43GLOH   H02 8772   3.930   9.689   0.140
   43GLOH   H08 8773   3.761   9.688   0.186
   43GLOH    C2 8774   3.827   9.874   0.104
   43GLOH   H04 8775   3.724   9.905   0.081
   43GLOH    O2 8776   3.865   9.928   0.233
   43GLOH   H05 8777   3.847   0.026   0.235
   43GLOH    C3 8778   3.917   9.925   2.864
   43GLOH   H06 8779   4.020   9.896   0.010
   43GLOH   H07 8780   3.913   0.034   2.862
   43GLOH    O3 8781   3.875   9.872   2.737
   43GLOH   H01 8782   3.837   9.783   2.757
   44GLOH   H03 8783   3.664   3.992   1.891
   44GLOH    O1 8784   3.752   4.033   1.907
   44GLOH    C1 8785   3.751   4.107   2.030
   44GLOH   H02 8786   3.667   4.176   2.031
   44GLOH   H08 8787   3.841   4.167   2.038
   44GLOH    C2 8788   3.742   4.019   2.156
   44GLOH   H04 8789   3.831   3.954   2.158
   44GLOH    O2 8790   3.743   4.101   2.274
   44GLOH   H05 8791   3.836   4.136   2.289
   44GLOH    C3 8792   3.617   3.927   2.155
   44GLOH   H06 8793   3.532   3.987   2.123
   44GLOH   H07 8794   3.597   3.895   2.258
   44GLOH    O3 8795   3.635   3.813   2.070
   44GLOH   H01 8796   3.555   3.754   2.068
   45GLOH   H03 8797   3.524   2.010   2.479
   45GLOH    O1 8798   3.437   2.012   2.431
   45GLOH    C1 8799   3.360   2.129   2.466
   45GLOH   H02 8800   3.393   2.169   2.562
   45GLOH   H08 8801   3.255   2.103   2.477
   45GLOH    C2 8802   3.371   2.241   2.361
   45GLOH   H04 8803   3.351   2.198   2.262
   45GLOH    O2 8804   3.274   2.346   2.387
   45GLOH   H05 8805   3.276   2.410   2.309
   45GLOH    C3 8806   3.514   2.298   2.359
   45GLOH   H06 8807   3.584   2.215   2.346
   45GLOH   H07 8808   3.536   2.342   2.456
   45GLOH    O3 8809   3.534   2.396   2.254
   45GLOH   H01 8810   3.467   2.467   2.265
   46GLOH   H03 8811   3.724   9.112   1.028
   46GLOH    O1 8812   3.660   9.037   1.035
   46GLOH    C1 8813   3.667   8.979   1.167
   46GLOH   H02 8814   3.771   8.965   1.197
   46GLOH   H08 8815   3.621   8.880   1.167
   46GLOH    C2 8816   3.597   9.063   1.277
   46GLOH   H04 8817   3.599   9.004   1.370
   46GLOH    O2 8818   3.667   9.187   1.299
   46GLOH   H05 8819   3.635   9.254   1.232
   46GLOH    C3 8820   3.450   9.088   1.239
   46GLOH   H06 8821   3.404   8.991   1.219
   46GLOH   H07 8822   3.446   9.144   1.146
   46GLOH    O3 8823   3.376   9.157   1.343
   46GLOH   H01 8824   3.358   9.251   1.313
   47GLOH   H03 8825   3.945   0.643   1.004
   47GLOH    O1 8826   3.951   0.721   1.066
   47GLOH    C1 8827   3.817   0.759   1.102
   47GLOH   H02 8828   3.819   0.837   1.179
   47GLOH   H08 8829   3.767   0.673   1.146
   47GLOH    C2 8830   3.731   0.808   0.985
   47GLOH   H04 8831   3.720   0.726   0.912
   47GLOH    O2 8832   3.600   0.844   1.034
   47GLOH   H05 8833   3.542   0.876   0.959
   47GLOH    C3 8834   3.801   0.925   0.913
   47GLOH   H06 8835   3.894   0.888   0.871
   47GLOH   H07 8836   3.828   1.000   0.988
   47GLOH    O3 8837   3.722   0.985   0.809
   47GLOH   H01 8838   3.695   0.916   0.743
   48GLOH   H03 8839   3.397   0.217   1.454
   48GLOH    O1 8840   3.490   0.220   1.490
   48GLOH    C1 8841   3.556   0.328   1.421
   48GLOH   H02 8842   3.538   0.421   1.473
   48GLOH   H08 8843   3.515   0.340   1.321
   48GLOH    C2 8844   3.709   0.310   1.408
   48GLOH   H04 8845   3.754   0.318   1.508
   48GLOH    O2 8846   3.745   0.183   1.348
   48GLOH   H05 8847   3.704   0.108   1.402
   48GLOH    C3 8848   3.766   0.422   1.319
   48GLOH   H06 8849   3.733   0.405   1.216
   48GLOH   H07 8850   3.875   0.412   1.320
   48GLOH    O3 8851   3.730   0.555   1.361
   48GLOH   H01 8852   3.649   0.583   1.311
   49GLOH   H03 8853   3.977   2.100   1.621
   49GLOH    O1 8854   3.969   2.004   1.643
   49GLOH    C1 8855   3.828   1.973   1.637
   49GLOH   H02 8856   3.781   1.990   1.734
   49GLOH   H08 8857   3.815   1.867   1.613
   49GLOH    C2 8858   3.753   2.056   1.531
   49GLOH   H04 8859   3.794   2.033   1.432
   49GLOH    O2 8860   3.612   2.024   1.531
   49GLOH   H05 8861   3.596   1.932   1.494
   49GLOH    C3 8862   3.774   2.207   1.558
   49GLOH   H06 8863   3.721   2.233   1.650
   49GLOH   H07 8864   3.727   2.263   1.478
   49GLOH    O3 8865   3.913   2.242   1.570
   49GLOH   H01 8866   3.921   2.329   1.617
   50GLOH   H03 8867   3.309   3.133   2.346
   50GLOH    O1 8868   3.350   3.052   2.305
   50GLOH    C1 8869   3.359   2.955   2.411
   50GLOH   H02 8870   3.372   3.005   2.508
   50GLOH   H08 8871   3.447   2.893   2.397
   50GLOH    C2 8872   3.236   2.862   2.421
   50GLOH   H04 8873   3.245   2.787   2.342
   50GLOH    O2 8874   3.238   2.796   2.549
   50GLOH   H05 8875   3.211   2.700   2.537
   50GLOH    C3 8876   3.105   2.940   2.399
   50GLOH   H06 8877   3.108   2.988   2.301
   50GLOH   H07 8878   3.100   3.021   2.472
   50GLOH    O3 8879   2.987   2.858   2.407
   50GLOH   H01 8880   2.953   2.868   2.499
   51GLOH   H03 8881   3.635   0.794   0.315
   51GLOH    O1 8882   3.666   0.884   0.341
   51GLOH    C1 8883   3.785   0.879   0.422
   51GLOH   H02 8884   3.812   0.980   0.453
   51GLOH   H08 8885   3.869   0.842   0.362
   51GLOH    C2 8886   3.774   0.791   0.548
   51GLOH   H04 8887   3.863   0.812   0.609
   51GLOH    O2 8888   3.658   0.824   0.628
   51GLOH   H05 8889   3.576   0.799   0.577
   51GLOH    C3 8890   3.775   0.641   0.512
   51GLOH   H06 8891   3.699   0.623   0.436
   51GLOH   H07 8892   3.747   0.584   0.600
   51GLOH    O3 8893   3.904   0.600   0.464
   51GLOH   H01 8894   3.897   0.539   0.386
   52GLOH   H03 8895   3.110   2.665   1.270
   52GLOH    O1 8896   3.108   2.752   1.222
   52GLOH    C1 8897   3.242   2.805   1.218
   52GLOH   H02 8898   3.315   2.725   1.200
   52GLOH   H08 8899   3.269   2.851   1.313
   52GLOH    C2 8900   3.257   2.909   1.105
   52GLOH   H04 8901   3.178   2.985   1.119
   52GLOH    O2 8902   3.385   2.973   1.110
   52GLOH   H05 8903   3.371   3.069   1.136
   52GLOH    C3 8904   3.234   2.841   0.969
   52GLOH   H06 8905   3.313   2.767   0.953
   52GLOH   H07 8906   3.244   2.916   0.890
   52GLOH    O3 8907   3.104   2.779   0.964
   52GLOH   H01 8908   3.077   2.769   1.059
   53GLOH   H03 8909   2.976   2.211   2.056
   53GLOH    O1 8910   3.026   2.211   1.970
   53GLOH    C1 8911   3.165   2.238   1.996
   53GLOH   H02 8912   3.176   2.291   2.091
   53GLOH   H08 8913   3.205   2.303   1.920
   53GLOH    C2 8914   3.254   2.112   2.002
   53GLOH   H04 8915   3.359   2.145   2.004
   53GLOH    O2 8916   3.227   2.036   2.121
   53GLOH   H05 8917   3.311   1.987   2.143
   53GLOH    C3 8918   3.234   2.024   1.876
   53GLOH   H06 8919   3.240   2.087   1.788
   53GLOH   H07 8920   3.133   1.984   1.879
   53GLOH    O3 8921   3.329   1.916   1.869
   53GLOH   H01 8922   3.303   1.850   1.939
   54GLOH   H03 8923   3.838   2.514   1.691
   54GLOH    O1 8924   3.922   2.461   1.701
   54GLOH    C1 8925   4.006   2.531   1.795
   54GLOH   H02 8926   3.969   2.517   1.897
   54GLOH   H08 8927   4.002   2.638   1.775
   54GLOH    C2 8928   4.155   2.488   1.793
   54GLOH   H04 8929   4.190   2.490   1.689
   54GLOH    O2 8930   4.234   2.579   1.871
   54GLOH   H05 8931   4.229   2.671   1.831
   54GLOH    C3 8932   4.177   2.346   1.850
   54GLOH   H06 8933   4.138   2.344   1.951
   54GLOH   H07 8934   4.285   2.329   1.857
   54GLOH    O3 8935   4.117   2.243   1.770
   54GLOH   H01 8936   4.023   2.236   1.800
   55GLOH   H03 8937   4.254   2.343   0.853
   55GLOH    O1 8938   4.334   2.312   0.902
   55GLOH    C1 8939   4.432   2.259   0.811
   55GLOH   H02 8940   4.497   2.190   0.864
   55GLOH   H08 8941   4.497   2.340   0.776
   55GLOH    C2 8942   4.373   2.186   0.689
   55GLOH   H04 8943   4.308   2.105   0.725
   55GLOH    O2 8944   4.295   2.276   0.607
   55GLOH   H05 8945   4.221   2.315   0.663
   55GLOH    C3 8946   4.485   2.123   0.604
   55GLOH   H06 8947   4.557   2.202   0.579
   55GLOH   H07 8948   4.442   2.088   0.511
   55GLOH    O3 8949   4.553   2.015   0.671
   55GLOH   H01 8950   4.635   1.996   0.618
   56GLOH   H03 8951   4.567   1.266   0.980
   56GLOH    O1 8952   4.568   1.366   0.971
   56GLOH    C1 8953   4.552   1.394   0.831
   56GLOH   H02 8954   4.472   1.332   0.790
   56GLOH   H08 8955   4.643   1.368   0.777
   56GLOH    C2 8956   4.518   1.541   0.802
   56GLOH   H04 8957   4.601   1.604   0.837
   56GLOH    O2 8958   4.501   1.558   0.659
   56GLOH   H05 8959   4.477   1.652   0.638
   56GLOH    C3 8960   4.391   1.580   0.880
   56GLOH   H06 8961   4.411   1.566   0.986
   56GLOH   H07 8962   4.312   1.509   0.853
   56GLOH    O3 8963   4.346   1.715   0.857
   56GLOH   H01 8964   4.414   1.779   0.889
   57GLOH   H03 8965   3.442   8.972   2.292
   57GLOH    O1 8966   3.515   9.012   2.349
   57GLOH    C1 8967   3.597   9.090   2.259
   57GLOH   H02 8968   3.536   9.163   2.206
   57GLOH   H08 8969   3.641   9.025   2.184
   57GLOH    C2 8970   3.711   9.165   2.330
   57GLOH   H04 8971   3.773   9.092   2.384
   57GLOH    O2 8972   3.792   9.232   2.229
   57GLOH   H05 8973   3.842   9.165   2.174
   57GLOH    C3 8974   3.658   9.270   2.429
   57GLOH   H06 8975   3.738   9.297   2.498
   57GLOH   H07 8976   3.578   9.226   2.488
   57GLOH    O3 8977   3.612   9.386   2.358
   57GLOH   H01 8978   3.652   9.373   2.269
   58GLOH   H03 8979   4.094   3.167   2.001
   58GLOH    O1 8980   4.177   3.115   1.980
   58GLOH    C1 8981   4.210   3.142   1.842
   58GLOH   H02 8982   4.175   3.242   1.815
   58GLOH   H08 8983   4.158   3.072   1.777
   58GLOH    C2 8984   4.361   3.134   1.813
   58GLOH   H04 8985   4.414   3.197   1.885
   58GLOH    O2 8986   4.410   2.998   1.825
   58GLOH   H05 8987   4.509   2.996   1.810
   58GLOH    C3 8988   4.389   3.188   1.671
   58GLOH   H06 8989   4.342   3.121   1.599
   58GLOH   H07 8990   4.497   3.184   1.653
   58GLOH    O3 8991   4.341   3.322   1.654
   58GLOH   H01 8992   4.367   3.373   1.736
   59GLOH   H03 8993   4.625   1.161   0.155
   59GLOH    O1 8994   4.631   1.224   0.079
   59GLOH    C1 8995   4.652   1.359   0.126
   59GLOH   H02 8996   4.759   1.376   0.143
   59GLOH   H08 8997   4.602   1.375   0.221
   59GLOH    C2 8998   4.601   1.464   0.025
   59GLOH   H04 8999   4.492   1.450   0.015
   59GLOH    O2 9000   4.626   1.599   0.071
   59GLOH   H05 9001   4.600   1.661   0.001
   59GLOH    C3 9002   4.664   1.439   2.760
   59GLOH   H06 9003   4.772   1.454   2.767
   59GLOH   H07 9004   4.626   1.514   2.690
   59GLOH    O3 9005   4.635   1.307   2.713
   59GLOH   H01 9006   4.637   1.251   2.795
   60GLOH   H03 9007   3.514   3.572   0.136
   60GLOH    O1 9008   3.471   3.532   0.215
   60GLOH    C1 9009   3.478   3.625   0.325
   60GLOH   H02 9010   3.395   3.608   0.394
   60GLOH   H08 9011   3.469   3.728   0.290
   60GLOH    C2 9012   3.610   3.611   0.404
   60GLOH   H04 9013   3.690   3.616   0.330
   60GLOH    O2 9014   3.629   3.719   0.498
   60GLOH   H05 9015   3.722   3.754   0.481
   60GLOH    C3 9016   3.613   3.474   0.474
   60GLOH   H06 9017   3.595   3.397   0.399
   60GLOH   H07 9018   3.530   3.470   0.544
   60GLOH    O3 9019   3.738   3.447   0.542
   60GLOH   H01 9020   3.741   3.506   0.622
   61GLOH   H03 9021   3.447   0.342   1.066
   61GLOH    O1 9022   3.513   0.304   1.002
   61GLOH    C1 9023   3.579   0.191   1.063
   61GLOH   H02 9024   3.569   0.195   1.171
   61GLOH   H08 9025   3.686   0.196   1.042
   61GLOH    C2 9026   3.528   0.053   1.017
   61GLOH   H04 9027   3.533   0.048   0.907
   61GLOH    O2 9028   3.611   9.950   1.073
   61GLOH   H05 9029   3.694   9.939   1.020
   61GLOH    C3 9030   3.383   0.029   1.062
   61GLOH   H06 9031   3.376   0.054   1.168
   61GLOH   H07 9032   3.360   9.923   1.052
   61GLOH    O3 9033   3.288   0.107   0.987
   61GLOH   H01 9034   3.280   0.063   0.897
   62GLOH   H03 9035   3.259   2.530   0.815
   62GLOH    O1 9036   3.355   2.527   0.791
   62GLOH    C1 9037   3.378   2.597   0.667
   62GLOH   H02 9038   3.484   2.622   0.657
   62GLOH   H08 9039   3.323   2.691   0.665
   62GLOH    C2 9040   3.336   2.514   0.544
   62GLOH   H04 9041   3.227   2.496   0.551
   62GLOH    O2 9042   3.362   2.588   0.423
   62GLOH   H05 9043   3.439   2.652   0.435
   62GLOH    C3 9044   3.406   2.377   0.542
   62GLOH   H06 9045   3.514   2.393   0.535
   62GLOH   H07 9046   3.376   2.324   0.451
   62GLOH    O3 9047   3.375   2.297   0.658
   62GLOH   H01 9048   3.377   2.357   0.736
   63GLOH   H03 9049   4.575   0.898   0.584
   63GLOH    O1 9050   4.555   0.916   0.489
   63GLOH    C1 9051   4.423   0.864   0.463
   63GLOH   H02 9052   4.347   0.932   0.501
   63GLOH   H08 9053   4.409   0.769   0.514
   63GLOH    C2 9054   4.397   0.841   0.313
   63GLOH   H04 9055   4.468   0.765   0.277
   63GLOH    O2 9056   4.263   0.791   0.293
   63GLOH   H05 9057   4.197   0.867   0.305
   63GLOH    C3 9058   4.421   0.971   0.233
   63GLOH   H06 9059   4.351   1.047   0.267
   63GLOH   H07 9060   4.400   0.952   0.128
   63GLOH    O3 9061   4.556   1.019   0.249
   63GLOH   H01 9062   4.583   0.995   0.340
   64GLOH   H03 9063   4.049   2.648   2.647
   64GLOH    O1 9064   4.055   2.551   2.629
   64GLOH    C1 9065   3.941   2.478   2.680
   64GLOH   H02 9066   3.935   2.381   2.631
   64GLOH   H08 9067   3.849   2.531   2.656
   64GLOH    C2 9068   3.947   2.456   2.832
   64GLOH   H04 9069   3.950   2.555   0.004
   64GLOH    O2 9070   3.830   2.386   0.008
   64GLOH   H05 9071   3.829   2.389   0.107
   64GLOH    C3 9072   4.078   2.384   2.870
   64GLOH   H06 9073   4.082   2.380   0.105
   64GLOH   H07 9074   4.160   2.449   2.840
   64GLOH    O3 9075   4.100   2.253   2.815
   64GLOH   H01 9076   4.122   2.195   0.018
   65GLOH   H03 9077   3.945   9.392   1.904
   65GLOH    O1 9078   3.991   9.319   1.856
   65GLOH    C1 9079   3.911   9.291   1.739
   65GLOH   H02 9080   3.961   9.330   1.650
   65GLOH   H08 9081   3.815   9.343   1.745
   65GLOH    C2 9082   3.883   9.141   1.717
   65GLOH   H04 9083   3.978   9.089   1.698
   65GLOH    O2 9084   3.818   9.083   1.833
   65GLOH   H05 9085   3.875   9.091   1.914
   65GLOH    C3 9086   3.791   9.125   1.595
   65GLOH   H06 9087   3.700   9.182   1.614
   65GLOH   H07 9088   3.761   9.021   1.587
   65GLOH    O3 9089   3.849   9.171   1.471
   65GLOH   H01 9090   3.775   9.173   1.403
   66GLOH   H03 9091   3.486   9.173   0.045
   66GLOH    O1 9092   3.558   9.234   0.070
   66GLOH    C1 9093   3.592   9.210   0.208
   66GLOH   H02 9094   3.668   9.132   0.215
   66GLOH   H08 9095   3.505   9.176   0.264
   66GLOH    C2 9096   3.646   9.337   0.277
   66GLOH   H04 9097   3.566   9.413   0.274
   66GLOH    O2 9098   3.679   9.310   0.415
   66GLOH   H05 9099   3.693   9.397   0.461
   66GLOH    C3 9100   3.767   9.392   0.200
   66GLOH   H06 9101   3.846   9.317   0.201
   66GLOH   H07 9102   3.805   9.479   0.252
   66GLOH    O3 9103   3.731   9.425   0.065
   66GLOH   H01 9104   3.665   9.356   0.038
   67GLOH   H03 9105   4.811   2.173   1.924
   67GLOH    O1 9106   4.778   2.250   1.979
   67GLOH    C1 9107   4.651   2.210   2.036
   67GLOH   H02 9108   4.661   2.114   2.086
   67GLOH   H08 9109   4.577   2.197   1.957
   67GLOH    C2 9110   4.595   2.312   2.137
   67GLOH   H04 9111   4.576   2.407   2.083
   67GLOH    O2 9112   4.471   2.264   2.192
   67GLOH   H05 9113   4.404   2.340   2.194
   67GLOH    C3 9114   4.697   2.340   2.249
   67GLOH   H06 9115   4.714   2.247   2.304
   67GLOH   H07 9116   4.653   2.412   2.319
   67GLOH    O3 9117   4.820   2.390   2.196
   67GLOH   H01 9118   4.836   2.339   2.113
   68GLOH   H03 9119   4.760   2.785   2.113
   68GLOH    O1 9120   4.709   2.871   2.112
   68GLOH    C1 9121   4.570   2.848   2.141
   68GLOH   H02 9122   4.511   2.925   2.091
   68GLOH   H08 9123   4.552   2.858   2.248
   68GLOH    C2 9124   4.516   2.711   2.095
   68GLOH   H04 9125   4.573   2.633   2.148
   68GLOH    O2 9126   4.377   2.698   2.133
   68GLOH   H05 9127   4.329   2.786   2.122
   68GLOH    C3 9128   4.535   2.691   1.944
   68GLOH   H06 9129   4.642   2.700   1.921
   68GLOH   H07 9130   4.485   2.772   1.892
   68GLOH    O3 9131   4.486   2.564   1.898
   68GLOH   H01 9132   4.387   2.565   1.908
   69GLOH   H03 9133   3.559   2.689   2.128
   69GLOH    O1 9134   3.622   2.735   2.188
   69GLOH    C1 9135   3.755   2.716   2.135
   69GLOH   H02 9136   3.776   2.791   2.059
   69GLOH   H08 9137   3.764   2.618   2.088
   69GLOH    C2 9138   3.864   2.728   2.244
   69GLOH   H04 9139   3.841   2.655   2.324
   69GLOH    O2 9140   3.993   2.698   2.188
   69GLOH   H05 9141   4.007   2.749   2.103
   69GLOH    C3 9142   3.863   2.868   2.306
   69GLOH   H06 9143   3.903   2.939   2.233
   69GLOH   H07 9144   3.931   2.869   2.392
   69GLOH    O3 9145   3.731   2.907   2.347
   69GLOH   H01 9146   3.669   2.849   2.297
   70GLOH   H03 9147   4.261   1.369   1.301
   70GLOH    O1 9148   4.201   1.328   1.233
   70GLOH    C1 9149   4.277   1.301   1.114
   70GLOH   H02 9150   4.375   1.262   1.139
   70GLOH   H08 9151   4.294   1.393   1.058
   70GLOH    C2 9152   4.209   1.200   1.019
   70GLOH   H04 9153   4.274   1.190   0.930
   70GLOH    O2 9154   4.194   1.071   1.080
   70GLOH   H05 9155   4.144   1.080   1.166
   70GLOH    C3 9156   4.072   1.252   0.970
   70GLOH   H06 9157   4.013   1.279   1.057
   70GLOH   H07 9158   4.020   1.170   0.922
   70GLOH    O3 9159   4.082   1.363   0.879
   70GLOH   H01 9160   4.092   1.448   0.930
   71GLOH   H03 9161   3.956   3.315   2.462
   71GLOH    O1 9162   4.038   3.327   2.518
   71GLOH    C1 9163   4.032   3.457   2.581
   71GLOH   H02 9164   4.087   3.456   2.675
   71GLOH   H08 9165   3.928   3.482   2.607
   71GLOH    C2 9166   4.088   3.570   2.492
   71GLOH   H04 9167   4.024   3.579   2.403
   71GLOH    O2 9168   4.086   3.695   2.564
   71GLOH   H05 9169   4.119   3.768   2.503
   71GLOH    C3 9170   4.231   3.537   2.446
   71GLOH   H06 9171   4.296   3.533   2.534
   71GLOH   H07 9172   4.266   3.618   2.384
   71GLOH    O3 9173   4.236   3.412   2.375
   71GLOH   H01 9174   4.162   3.359   2.413
   72GLOH   H03 9175   4.241   3.887   2.161
   72GLOH    O1 9176   4.255   3.984   2.147
   72GLOH    C1 9177   4.132   4.057   2.165
   72GLOH   H02 9178   4.048   4.002   2.123
   72GLOH   H08 9179   4.137   4.151   2.110
   72GLOH    C2 9180   4.100   4.090   2.312
   72GLOH   H04 9181   4.187   4.142   2.356
   72GLOH    O2 9182   3.985   4.178   2.320
   72GLOH   H05 9183   3.985   4.219   2.411
   72GLOH    C3 9184   4.070   3.964   2.396
   72GLOH   H06 9185   3.986   3.912   2.350
   72GLOH   H07 9186   4.036   3.996   2.494
   72GLOH    O3 9187   4.182   3.875   2.410
   72GLOH   H01 9188   4.266   3.928   2.404
   73GLOH   H03 9189   4.458   1.995   2.685
   73GLOH    O1 9190   4.529   1.944   2.638
   73GLOH    C1 9191   4.501   1.949   2.497
   73GLOH   H02 9192   4.450   1.858   2.465
   73GLOH   H08 9193   4.594   1.955   2.441
   73GLOH    C2 9194   4.415   2.071   2.457
   73GLOH   H04 9195   4.475   2.162   2.472
   73GLOH    O2 9196   4.376   2.062   2.318
   73GLOH   H05 9197   4.416   2.140   2.269
   73GLOH    C3 9198   4.290   2.081   2.548
   73GLOH   H06 9199   4.229   1.992   2.531
   73GLOH   H07 9200   4.231   2.167   2.515
   73GLOH    O3 9201   4.321   2.093   2.688
   73GLOH   H01 9202   4.252   2.149   2.730
   74GLOH   H03 9203   3.370   0.246   0.669
   74GLOH    O1 9204   3.384   0.179   0.596
   74GLOH    C1 9205   3.525   0.152   0.582
   74GLOH   H02 9206   3.539   0.075   0.506
   74GLOH   H08 9207   3.566   0.114   0.675
   74GLOH    C2 9208   3.604   0.277   0.540
   74GLOH   H04 9209   3.585   0.356   0.614
   74GLOH    O2 9210   3.747   0.251   0.535
   74GLOH   H05 9211   3.790   0.276   0.621
   74GLOH    C3 9212   3.554   0.328   0.403
   74GLOH   H06 9213   3.608   0.420   0.379
   74GLOH   H07 9214   3.449   0.356   0.414
   74GLOH    O3 9215   3.569   0.233   0.297
   74GLOH   H01 9216   3.665   0.213   0.284
   75GLOH   H03 9217   4.007   1.162   1.304
   75GLOH    O1 9218   4.051   1.073   1.289
   75GLOH    C1 9219   4.061   1.007   1.416
   75GLOH   H02 9220   4.030   0.903   1.406
   75GLOH   H08 9221   3.992   1.053   1.489
   75GLOH    C2 9222   4.203   1.010   1.475
   75GLOH   H04 9223   4.238   1.114   1.477
   75GLOH    O2 9224   4.199   0.957   1.609
   75GLOH   H05 9225   4.151   1.025   1.667
   75GLOH    C3 9226   4.298   0.928   1.385
   75GLOH   H06 9227   4.284   0.959   1.281
   75GLOH   H07 9228   4.268   0.823   1.390
   75GLOH    O3 9229   4.438   0.940   1.419
   75GLOH   H01 9230   4.464   1.035   1.406
   76GLOH   H03 9231   3.391   3.321   0.893
   76GLOH    O1 9232   3.304   3.357   0.858
   76GLOH    C1 9233   3.324   3.396   0.721
   76GLOH   H02 9234   3.392   3.328   0.671
   76GLOH   H08 9235   3.367   3.496   0.716
   76GLOH    C2 9236   3.191   3.395   0.644
   76GLOH   H04 9237   3.119   3.456   0.699
   76GLOH    O2 9238   3.212   3.452   0.512
   76GLOH   H05 9239   3.154   3.403   0.447
   76GLOH    C3 9240   3.136   3.251   0.638
   76GLOH   H06 9241   3.131   3.212   0.740
   76GLOH   H07 9242   3.208   3.190   0.584
   76GLOH    O3 9243   3.007   3.244   0.575
   76GLOH   H01 9244   3.021   3.252   0.478
   77GLOH   H03 9245   4.022   1.088   2.063
   77GLOH    O1 9246   3.969   1.152   2.008
   77GLOH    C1 9247   3.836   1.104   1.981
   77GLOH   H02 9248   3.839   1.013   1.920
   77GLOH   H08 9249   3.782   1.178   1.921
   77GLOH    C2 9250   3.752   1.076   2.107
   77GLOH   H04 9251   3.771   1.156   2.180
   77GLOH    O2 9252   3.611   1.075   2.075
   77GLOH   H05 9253   3.590   0.995   2.017
   77GLOH    C3 9254   3.794   0.941   2.170
   77GLOH   H06 9255   3.898   0.949   2.201
   77GLOH   H07 9256   3.790   0.864   2.093
   77GLOH    O3 9257   3.713   0.903   2.283
   77GLOH   H01 9258   3.702   0.981   2.341
   78GLOH   H03 9259   3.735   3.384   1.458
   78GLOH    O1 9260   3.661   3.326   1.424
   78GLOH    C1 9261   3.712   3.191   1.422
   78GLOH   H02 9262   3.736   3.158   1.523
   78GLOH   H08 9263   3.804   3.188   1.364
   78GLOH    C2 9264   3.613   3.090   1.360
   78GLOH   H04 9265   3.591   3.124   1.258
   78GLOH    O2 9266   3.673   2.959   1.352
   78GLOH   H05 9267   3.666   2.930   1.256
   78GLOH    C3 9268   3.480   3.088   1.438
   78GLOH   H06 9269   3.415   3.014   1.390
   78GLOH   H07 9270   3.431   3.184   1.424
   78GLOH    O3 9271   3.493   3.059   1.578
   78GLOH   H01 9272   3.492   2.960   1.590
   79GLOH   H03 9273   2.960   2.624   0.348
   79GLOH    O1 9274   2.999   2.618   0.257
   79GLOH    C1 9275   2.902   2.575   0.160
   79GLOH   H02 9276   2.943   2.585   0.060
   79GLOH   H08 9277   2.814   2.640   0.163
   79GLOH    C2 9278   2.852   2.430   0.177
   79GLOH   H04 9279   2.790   2.426   0.268
   79GLOH    O2 9280   2.771   2.396   0.062
   79GLOH   H05 9281   2.691   2.344   0.095
   79GLOH    C3 9282   2.971   2.333   0.196
   79GLOH   H06 9283   3.040   2.376   0.269
   79GLOH   H07 9284   3.025   2.328   0.102
   79GLOH    O3 9285   2.934   2.200   0.238
   79GLOH   H01 9286   3.015   2.154   0.272
   80GLOH   H03 9287   3.617   9.577   2.301
   80GLOH    O1 9288   3.614   9.608   2.207
   80GLOH    C1 9289   3.743   9.589   2.145
   80GLOH   H02 9290   3.802   9.516   2.199
   80GLOH   H08 9291   3.798   9.684   2.146
   80GLOH    C2 9292   3.733   9.545   1.997
   80GLOH   H04 9293   3.688   9.627   1.940
   80GLOH    O2 9294   3.866   9.519   1.946
   80GLOH   H05 9295   3.913   9.606   1.934
   80GLOH    C3 9296   3.644   9.421   1.983
   80GLOH   H06 9297   3.696   9.333   2.022
   80GLOH   H07 9298   3.628   9.403   1.876
   80GLOH    O3 9299   3.518   9.440   2.050
   80GLOH   H01 9300   3.536   9.512   2.117
   81GLOH   H03 9301   4.218   3.179   2.851
   81GLOH    O1 9302   4.279   3.196   0.053
   81GLOH    C1 9303   4.287   3.338   0.072
   81GLOH   H02 9304   4.200   3.374   0.127
   81GLOH   H08 9305   4.288   3.390   2.850
   81GLOH    C2 9306   4.412   3.382   0.151
   81GLOH   H04 9307   4.501   3.351   0.095
   81GLOH    O2 9308   4.414   3.526   0.168
   81GLOH   H05 9309   4.440   3.569   0.082
   81GLOH    C3 9310   4.416   3.312   0.289
   81GLOH   H06 9311   4.331   3.347   0.347
   81GLOH   H07 9312   4.506   3.344   0.341
   81GLOH    O3 9313   4.412   3.169   0.276
   81GLOH   H01 9314   4.361   3.151   0.193
   82GLOH   H03 9315   3.939   0.126   0.696
   82GLOH    O1 9316   3.895   0.041   0.722
   82GLOH    C1 9317   3.908   9.945   0.615
   82GLOH   H02 9318   3.958   9.855   0.653
   82GLOH   H08 9319   3.970   9.985   0.535
   82GLOH    C2 9320   3.773   9.900   0.556
   82GLOH   H04 9321   3.727   9.988   0.509
   82GLOH    O2 9322   3.796   9.800   0.454
   82GLOH   H05 9323   3.820   9.846   0.368
   82GLOH    C3 9324   3.682   9.850   0.669
   82GLOH   H06 9325   3.679   9.925   0.747
   82GLOH   H07 9326   3.728   9.761   0.712
   82GLOH    O3 9327   3.547   9.819   0.629
   82GLOH   H01 9328   3.498   9.795   0.712
   83GLOH   H03 9329   4.892   2.252   1.602
   83GLOH    O1 9330   4.944   2.168   1.613
   83GLOH    C1 9331   4.884   2.062   1.538
   83GLOH   H02 9332   4.958   1.985   1.514
   83GLOH   H08 9333   4.846   2.099   1.442
   83GLOH    C2 9334   4.767   1.994   1.613
   83GLOH   H04 9335   4.685   2.067   1.621
   83GLOH    O2 9336   4.721   1.879   1.539
   83GLOH   H05 9337   4.629   1.896   1.505
   83GLOH    C3 9338   4.810   1.954   1.755
   83GLOH   H06 9339   4.886   1.875   1.749
   83GLOH   H07 9340   4.725   1.911   1.807
   83GLOH    O3 9341   4.861   2.067   1.827
   83GLOH   H01 9342   4.917   2.114   1.760
   84GLOH   H03 9343   3.234   2.471   2.483
   84GLOH    O1 9344   3.183   2.547   2.519
   84GLOH    C1 9345   3.068   2.497   2.589
   84GLOH   H02 9346   3.022   2.578   2.646
   84GLOH   H08 9347   3.097   2.421   2.662
   84GLOH    C2 9348   2.960   2.436   2.497
   84GLOH   H04 9349   2.922   2.516   2.430
   84GLOH    O2 9350   3.011   2.327   2.416
   84GLOH   H05 9351   3.111   2.333   2.412
   84GLOH    C3 9352   2.843   2.385   2.583
   84GLOH   H06 9353   2.875   2.296   2.638
   84GLOH   H07 9354   2.763   2.354   2.516
   84GLOH    O3 9355   2.793   2.485   2.675
   84GLOH   H01 9356   2.776   2.445   2.764
   85GLOH   H03 9357   3.731   2.885   1.478
   85GLOH    O1 9358   3.784   2.836   1.547
   85GLOH    C1 9359   3.890   2.766   1.479
   85GLOH   H02 9360   3.859   2.736   1.379
   85GLOH   H08 9361   3.914   2.674   1.533
   85GLOH    C2 9362   4.021   2.846   1.468
   85GLOH   H04 9363   4.060   2.864   1.569
   85GLOH    O2 9364   4.117   2.768   1.393
   85GLOH   H05 9365   4.205   2.771   1.439
   85GLOH    C3 9366   3.994   2.982   1.400
   85GLOH   H06 9367   3.909   3.027   1.452
   85GLOH   H07 9368   3.963   2.964   1.297
   85GLOH    O3 9369   4.105   3.073   1.405
   85GLOH   H01 9370   4.186   3.030   1.365
   86GLOH   H03 9371   3.986   3.433   0.822
   86GLOH    O1 9372   4.021   3.484   0.901
   86GLOH    C1 9373   4.067   3.613   0.853
   86GLOH   H02 9374   4.118   3.602   0.758
   86GLOH   H08 9375   4.140   3.654   0.923
   86GLOH    C2 9376   3.955   3.718   0.835
   86GLOH   H04 9377   3.900   3.726   0.931
   86GLOH    O2 9378   4.013   3.846   0.802
   86GLOH   H05 9379   3.989   3.910   0.877
   86GLOH    C3 9380   3.854   3.678   0.726
   86GLOH   H06 9381   3.912   3.652   0.637
   86GLOH   H07 9382   3.794   3.765   0.701
   86GLOH    O3 9383   3.768   3.567   0.760
   86GLOH   H01 9384   3.725   3.585   0.848
   87GLOH   H03 9385   3.051   3.161   1.914
   87GLOH    O1 9386   3.001   3.105   1.980
   87GLOH    C1 9387   2.861   3.120   1.952
   87GLOH   H02 9388   2.846   3.149   1.847
   87GLOH   H08 9389   2.819   3.200   2.012
   87GLOH    C2 9390   2.778   2.993   1.977
   87GLOH   H04 9391   2.673   3.016   1.958
   87GLOH    O2 9392   2.819   2.887   1.888
   87GLOH   H05 9393   2.765   2.804   1.907
   87GLOH    C3 9394   2.791   2.949   2.124
   87GLOH   H06 9395   2.895   2.924   2.145
   87GLOH   H07 9396   2.733   2.857   2.138
   87GLOH    O3 9397   2.745   3.049   2.216
   87GLOH   H01 9398   2.756   3.016   2.307
   88GLOH   H03 9399   3.945   3.707   0.407
   88GLOH    O1 9400   3.878   3.776   0.431
   88GLOH    C1 9401   3.928   3.902   0.382
   88GLOH   H02 9402   3.845   3.968   0.358
   88GLOH   H08 9403   3.982   3.887   0.289
   88GLOH    C2 9404   4.020   3.976   0.481
   88GLOH   H04 9405   4.046   4.073   0.435
   88GLOH    O2 9406   3.951   4.003   0.605
   88GLOH   H05 9407   3.983   3.939   0.676
   88GLOH    C3 9408   4.151   3.898   0.503
   88GLOH   H06 9409   4.126   3.802   0.550
   88GLOH   H07 9410   4.212   3.953   0.574
   88GLOH    O3 9411   4.222   3.877   0.380
   88GLOH   H01 9412   4.275   3.794   0.389
   89GLOH   H03 9413   3.234   0.240   1.276
   89GLOH    O1 9414   3.274   0.211   1.362
   89GLOH    C1 9415   3.184   0.113   1.417
   89GLOH   H02 9416   3.107   0.162   1.476
   89GLOH   H08 9417   3.238   0.046   1.484
   89GLOH    C2 9418   3.116   0.028   1.308
   89GLOH   H04 9419   3.194   9.970   1.256
   89GLOH    O2 9420   3.021   9.936   1.365
   89GLOH   H05 9421   2.996   9.872   1.293
   89GLOH    C3 9422   3.046   0.119   1.205
   89GLOH   H06 9423   2.963   0.169   1.254
   89GLOH   H07 9424   3.004   0.056   1.127
   89GLOH    O3 9425   3.136   0.216   1.147
   89GLOH   H01 9426   3.194   0.169   1.080
   90GLOH   H03 9427   2.964   1.578   2.195
   90GLOH    O1 9428   2.986   1.507   2.261
   90GLOH    C1 9429   2.933   1.382   2.212
   90GLOH   H02 9430   2.956   1.370   2.105
   90GLOH   H08 9431   2.825   1.380   2.221
   90GLOH    C2 9432   2.990   1.261   2.288
   90GLOH   H04 9433   2.953   1.265   2.391
   90GLOH    O2 9434   2.942   1.140   2.225
   90GLOH   H05 9435   3.020   1.085   2.196
   90GLOH    C3 9436   3.144   1.270   2.292
   90GLOH   H06 9437   3.171   1.362   2.345
   90GLOH   H07 9438   3.180   1.282   2.189
   90GLOH    O3 9439   3.210   1.158   2.355
   90GLOH   H01 9440   3.294   1.190   2.393
   91GLOH   H03 9441   4.045   3.703   2.720
   91GLOH    O1 9442   4.038   3.697   2.819
   91GLOH    C1 9443   4.171   3.692   2.873
   91GLOH   H02 9444   4.221   3.601   2.839
   91GLOH   H08 9445   4.166   3.686   0.108
   91GLOH    C2 9446   4.259   3.813   2.836
   91GLOH   H04 9447   4.258   3.823   2.726
   91GLOH    O2 9448   4.209   3.936   0.020
   91GLOH   H05 9449   4.206   3.927   0.118
   91GLOH    C3 9450   4.405   3.789   0.005
   91GLOH   H06 9451   4.409   3.788   0.114
   91GLOH   H07 9452   4.465   3.874   2.846
   91GLOH    O3 9453   4.460   3.667   2.826
   91GLOH   H01 9454   4.506   3.687   2.741
   92GLOH   H03 9455   3.070   1.416   2.855
   92GLOH    O1 9456   3.127   1.400   0.059
   92GLOH    C1 9457   3.054   1.432   0.179
   92GLOH   H02 9458   3.091   1.372   0.263
   92GLOH   H08 9459   2.949   1.406   0.168
   92GLOH    C2 9460   3.063   1.581   0.217
   92GLOH   H04 9461   3.009   1.637   0.140
   92GLOH    O2 9462   2.998   1.604   0.343
   92GLOH   H05 9463   3.022   1.695   0.377
   92GLOH    C3 9464   3.209   1.631   0.216
   92GLOH   H06 9465   3.209   1.736   0.245
   92GLOH   H07 9466   3.244   1.628   0.113
   92GLOH    O3 9467   3.299   1.557   0.301
   92GLOH   H01 9468   3.300   1.461   0.275
   93GLOH   H03 9469   3.632   2.359   2.143
   93GLOH    O1 9470   3.682   2.331   2.062
   93GLOH    C1 9471   3.792   2.247   2.102
   93GLOH   H02 9472   3.761   2.181   2.184
   93GLOH   H08 9473   3.874   2.308   2.141
   93GLOH    C2 9474   3.846   2.159   1.988
   93GLOH   H04 9475   3.767   2.089   1.958
   93GLOH    O2 9476   3.884   2.240   1.875
   93GLOH   H05 9477   3.818   2.312   1.866
   93GLOH    C3 9478   3.968   2.079   2.036
   93GLOH   H06 9479   4.048   2.149   2.060
   93GLOH   H07 9480   4.003   2.017   1.954
   93GLOH    O3 9481   3.937   1.998   2.151
   93GLOH   H01 9482   4.022   1.967   2.191
   94GLOH   H03 9483   4.099   3.227   2.645
   94GLOH    O1 9484   4.117   3.169   2.723
   94GLOH    C1 9485   3.998   3.089   2.744
   94GLOH   H02 9486   3.965   3.047   2.650
   94GLOH   H08 9487   3.917   3.153   2.781
   94GLOH    C2 9488   4.018   2.974   2.845
   94GLOH   H04 9489   4.060   3.016   0.063
   94GLOH    O2 9490   3.893   2.910   0.001
   94GLOH   H05 9491   3.872   2.851   2.799
   94GLOH    C3 9492   4.118   2.870   2.789
   94GLOH   H06 9493   4.132   2.793   2.865
   94GLOH   H07 9494   4.214   2.919   2.775
   94GLOH    O3 9495   4.073   2.810   2.666
   94GLOH   H01 9496   4.124   2.853   2.593
   95GLOH   H03 9497   3.612   3.296   2.604
   95GLOH    O1 9498   3.619   3.393   2.598
   95GLOH    C1 9499   3.612   3.449   2.731
   95GLOH   H02 9500   3.704   3.427   2.786
   95GLOH   H08 9501   3.530   3.402   2.786
   95GLOH    C2 9502   3.590   3.601   2.733
   95GLOH   H04 9503   3.492   3.622   2.688
   95GLOH    O2 9504   3.590   3.648   2.871
   95GLOH   H05 9505   3.600   3.747   0.001
   95GLOH    C3 9506   3.697   3.672   2.646
   95GLOH   H06 9507   3.795   3.660   2.694
   95GLOH   H07 9508   3.675   3.778   2.644
   95GLOH    O3 9509   3.701   3.619   2.512
   95GLOH   H01 9510   3.670   3.525   2.521
   96GLOH   H03 9511   3.980   0.621   0.591
   96GLOH    O1 9512   4.026   0.637   0.678
   96GLOH    C1 9513   4.167   0.648   0.650
   96GLOH   H02 9514   4.214   0.714   0.722
   96GLOH   H08 9515   4.184   0.691   0.551
   96GLOH    C2 9516   4.236   0.510   0.655
   96GLOH   H04 9517   4.213   0.465   0.753
   96GLOH    O2 9518   4.186   0.422   0.551
   96GLOH   H05 9519   4.194   0.467   0.462
   96GLOH    C3 9520   4.389   0.524   0.646
   96GLOH   H06 9521   4.416   0.551   0.544
   96GLOH   H07 9522   4.433   0.425   0.665
   96GLOH    O3 9523   4.443   0.619   0.739
   96GLOH   H01 9524   4.396   0.610   0.826
   97GLOH   H03 9525   3.626   3.788   1.495
   97GLOH    O1 9526   3.573   3.775   1.413
   97GLOH    C1 9527   3.502   3.651   1.434
   97GLOH   H02 9528   3.441   3.659   1.524
   97GLOH   H08 9529   3.574   3.571   1.451
   97GLOH    C2 9530   3.411   3.608   1.317
   97GLOH   H04 9531   3.476   3.575   1.235
   97GLOH    O2 9532   3.329   3.497   1.359
   97GLOH   H05 9533   3.249   3.491   1.298
   97GLOH    C3 9534   3.329   3.728   1.268
   97GLOH   H06 9535   3.269   3.767   1.351
   97GLOH   H07 9536   3.259   3.696   1.191
   97GLOH    O3 9537   3.416   3.830   1.216
   97GLOH   H01 9538   3.489   3.836   1.283
   98GLOH   H03 9539   4.057   3.470   1.893
   98GLOH    O1 9540   4.145   3.508   1.914
   98GLOH    C1 9541   4.137   3.651   1.900
   98GLOH   H02 9542   4.095   3.677   1.803
   98GLOH   H08 9543   4.237   3.695   1.903
   98GLOH    C2 9544   4.052   3.718   2.010
   98GLOH   H04 9545   4.056   3.827   1.994
   98GLOH    O2 9546   3.914   3.676   2.003
   98GLOH   H05 9547   3.873   3.683   2.094
   98GLOH    C3 9548   4.110   3.691   2.150
   98GLOH   H06 9549   4.101   3.584   2.171
   98GLOH   H07 9550   4.050   3.743   2.224
   98GLOH    O3 9551   4.246   3.733   2.157
   98GLOH   H01 9552   4.301   3.650   2.150
   99GLOH   H03 9553   3.246   0.648   1.454
   99GLOH    O1 9554   3.233   0.746   1.472
   99GLOH    C1 9555   3.336   0.790   1.563
   99GLOH   H02 9556   3.320   0.746   1.662
   99GLOH   H08 9557   3.330   0.898   1.576
   99GLOH    C2 9558   3.478   0.753   1.515
   99GLOH   H04 9559   3.480   0.646   1.493
   99GLOH    O2 9560   3.511   0.826   1.395
   99GLOH   H05 9561   3.515   0.924   1.415
   99GLOH    C3 9562   3.583   0.780   1.624
   99GLOH   H06 9563   3.592   0.887   1.640
   99GLOH   H07 9564   3.680   0.745   1.587
   99GLOH    O3 9565   3.550   0.713   1.747
   99GLOH   H01 9566   3.579   0.618   1.739
  100GLOH   H03 9567   4.015   0.122   1.814
  100GLOH    O1 9568   4.057   0.051   1.869
  100GLOH    C1 9569   4.007   0.060   2.003
  100GLOH   H02 9570   4.030   0.158   2.045
  100GLOH   H08 9571   4.057   9.987   2.067
  100GLOH    C2 9572   3.855   0.038   2.013
  100GLOH   H04 9573   3.804   0.121   1.961
  100GLOH    O2 9574   3.815   9.913   1.953
  100GLOH   H05 9575   3.895   9.854   1.945
  100GLOH    C3 9576   3.810   0.040   2.161
  100GLOH   H06 9577   3.857   9.956   2.212
  100GLOH   H07 9578   3.703   0.023   2.164
  100GLOH    O3 9579   3.844   0.163   2.226
  100GLOH   H01 9580   3.827   0.153   2.322
  101GLOH   H03 9581   3.551   2.860   0.401
  101GLOH    O1 9582   3.544   2.764   0.423
  101GLOH    C1 9583   3.631   2.688   0.336
  101GLOH   H02 9584   3.613   2.715   0.232
  101GLOH   H08 9585   3.610   2.582   0.345
  101GLOH    C2 9586   3.781   2.709   0.365
  101GLOH   H04 9587   3.838   2.641   0.299
  101GLOH    O2 9588   3.824   2.844   0.338
  101GLOH   H05 9589   3.826   2.859   0.241
  101GLOH    C3 9590   3.813   2.669   0.511
  101GLOH   H06 9591   3.748   2.726   0.576
  101GLOH   H07 9592   3.915   2.699   0.533
  101GLOH    O3 9593   3.797   2.528   0.537
  101GLOH   H01 9594   3.819   2.514   0.633
  102GLOH   H03 9595   3.389   3.391   0.236
  102GLOH    O1 9596   3.327   3.314   0.243
  102GLOH    C1 9597   3.375   3.215   0.336
  102GLOH   H02 9598   3.291   3.154   0.371
  102GLOH   H08 9599   3.416   3.263   0.424
  102GLOH    C2 9600   3.480   3.118   0.279
  102GLOH   H04 9601   3.564   3.178   0.239
  102GLOH    O2 9602   3.530   3.028   0.381
  102GLOH   H05 9603   3.510   3.065   0.472
  102GLOH    C3 9604   3.421   3.034   0.164
  102GLOH   H06 9605   3.336   2.978   0.204
  102GLOH   H07 9606   3.496   2.959   0.136
  102GLOH    O3 9607   3.380   3.107   0.047
  102GLOH   H01 9608   3.343   3.043   2.858
  103GLOH   H03 9609   3.426   9.204   1.485
  103GLOH    O1 9610   3.451   9.231   1.577
  103GLOH    C1 9611   3.450   9.112   1.657
  103GLOH   H02 9612   3.524   9.042   1.619
  103GLOH   H08 9613   3.353   9.062   1.651
  103GLOH    C2 9614   3.481   9.140   1.805
  103GLOH   H04 9615   3.571   9.203   1.810
  103GLOH    O2 9616   3.371   9.208   1.870
  103GLOH   H05 9617   3.323   9.267   1.807
  103GLOH    C3 9618   3.510   9.009   1.880
  103GLOH   H06 9619   3.419   8.949   1.882
  103GLOH   H07 9620   3.534   9.033   1.984
  103GLOH    O3 9621   3.618   8.934   1.821
  103GLOH   H01 9622   3.701   8.989   1.827
  104GLOH   H03 9623   4.123   4.021   2.792
  104GLOH    O1 9624   4.062   4.073   2.733
  104GLOH    C1 9625   3.929   4.067   2.787
  104GLOH   H02 9626   3.922   4.128   0.003
  104GLOH   H08 9627   3.905   3.965   2.817
  104GLOH    C2 9628   3.820   4.114   2.688
  104GLOH   H04 9629   3.815   4.040   2.606
  104GLOH    O2 9630   3.691   4.119   2.754
  104GLOH   H05 9631   3.649   4.207   2.739
  104GLOH    C3 9632   3.857   4.250   2.626
  104GLOH   H06 9633   3.854   4.326   2.704
  104GLOH   H07 9634   3.781   4.277   2.553
  104GLOH    O3 9635   3.986   4.245   2.564
  104GLOH   H01 9636   4.040   4.188   2.625
  105GLOH   H03 9637   3.439   2.296   1.342
  105GLOH    O1 9638   3.420   2.394   1.342
  105GLOH    C1 9639   3.494   2.454   1.235
  105GLOH   H02 9640   3.585   2.398   1.217
  105GLOH   H08 9641   3.523   2.556   1.262
  105GLOH    C2 9642   3.415   2.458   1.103
  105GLOH   H04 9643   3.321   2.512   1.120
  105GLOH    O2 9644   3.493   2.527   1.004
  105GLOH   H05 9645   3.444   2.524   0.916
  105GLOH    C3 9646   3.382   2.314   1.060
  105GLOH   H06 9647   3.338   2.262   1.145
  105GLOH   H07 9648   3.475   2.263   1.037
  105GLOH    O3 9649   3.292   2.306   0.947
  105GLOH   H01 9650   3.227   2.379   0.952
  106GLOH   H03 9651   4.069   2.222   1.031
  106GLOH    O1 9652   4.084   2.271   1.116
  106GLOH    C1 9653   4.071   2.412   1.092
  106GLOH   H02 9654   3.983   2.431   1.030
  106GLOH   H08 9655   4.157   2.450   1.036
  106GLOH    C2 9656   4.057   2.494   1.221
  106GLOH   H04 9657   4.148   2.478   1.282
  106GLOH    O2 9658   4.046   2.635   1.191
  106GLOH   H05 9659   4.074   2.688   1.271
  106GLOH    C3 9660   3.937   2.445   1.304
  106GLOH   H06 9661   3.924   2.510   1.390
  106GLOH   H07 9662   3.962   2.346   1.344
  106GLOH    O3 9663   3.816   2.437   1.227
  106GLOH   H01 9664   3.793   2.526   1.188
  107GLOH   H03 9665   4.325   3.458   2.232
  107GLOH    O1 9666   4.358   3.512   2.156
  107GLOH    C1 9667   4.475   3.451   2.098
  107GLOH   H02 9668   4.469   3.342   2.103
  107GLOH   H08 9669   4.563   3.481   2.154
  107GLOH    C2 9670   4.499   3.490   1.950
  107GLOH   H04 9671   4.588   3.435   1.917
  107GLOH    O2 9672   4.389   3.451   1.864
  107GLOH   H05 9673   4.301   3.477   1.906
  107GLOH    C3 9674   4.530   3.640   1.935
  107GLOH   H06 9675   4.619   3.663   1.992
  107GLOH   H07 9676   4.448   3.698   1.978
  107GLOH    O3 9677   4.549   3.674   1.796
  107GLOH   H01 9678   4.498   3.607   1.745
  108GLOH   H03 9679   3.294   3.278   2.866
  108GLOH    O1 9680   3.264   3.335   2.792
  108GLOH    C1 9681   3.262   3.255   2.672
  108GLOH   H02 9682   3.192   3.173   2.682
  108GLOH   H08 9683   3.360   3.210   2.656
  108GLOH    C2 9684   3.226   3.333   2.543
  108GLOH   H04 9685   3.297   3.416   2.533
  108GLOH    O2 9686   3.239   3.246   2.428
  108GLOH   H05 9687   3.187   3.280   2.349
  108GLOH    C3 9688   3.084   3.392   2.552
  108GLOH   H06 9689   3.069   3.457   2.466
  108GLOH   H07 9690   3.079   3.455   2.641
  108GLOH    O3 9691   2.981   3.291   2.557
  108GLOH   H01 9692   2.970   3.253   2.468
  109GLOH   H03 9693   4.411   2.329   1.031
  109GLOH    O1 9694   4.468   2.333   1.112
  109GLOH    C1 9695   4.393   2.391   1.220
  109GLOH   H02 9696   4.310   2.325   1.248
  109GLOH   H08 9697   4.349   2.486   1.188
  109GLOH    C2 9698   4.478   2.418   1.345
  109GLOH   H04 9699   4.552   2.495   1.318
  109GLOH    O2 9700   4.399   2.468   1.456
  109GLOH   H05 9701   4.336   2.396   1.486
  109GLOH    C3 9702   4.556   2.290   1.384
  109GLOH   H06 9703   4.616   2.311   1.472
  109GLOH   H07 9704   4.627   2.268   1.304
  109GLOH    O3 9705   4.470   2.177   1.408
  109GLOH   H01 9706   4.394   2.208   1.464
  110GLOH   H03 9707   3.582   3.291   1.013
  110GLOH    O1 9708   3.532   3.277   0.928
  110GLOH    C1 9709   3.625   3.258   0.819
  110GLOH   H02 9710   3.723   3.298   0.846
  110GLOH   H08 9711   3.592   3.314   0.732
  110GLOH    C2 9712   3.644   3.111   0.777
  110GLOH   H04 9713   3.702   3.112   0.684
  110GLOH    O2 9714   3.720   3.037   0.876
  110GLOH   H05 9715   3.812   3.028   0.840
  110GLOH    C3 9716   3.510   3.041   0.746
  110GLOH   H06 9717   3.441   3.060   0.829
  110GLOH   H07 9718   3.527   2.934   0.744
  110GLOH    O3 9719   3.451   3.084   0.622
  110GLOH   H01 9720   3.371   3.027   0.605
  111GLOH   H03 9721   3.952   3.445   1.032
  111GLOH    O1 9722   3.918   3.428   1.124
  111GLOH    C1 9723   4.017   3.352   1.198
  111GLOH   H02 9724   4.019   3.249   1.163
  111GLOH   H08 9725   3.990   3.349   1.303
  111GLOH    C2 9726   4.160   3.409   1.186
  111GLOH   H04 9727   4.224   3.350   1.253
  111GLOH    O2 9728   4.210   3.397   1.052
  111GLOH   H05 9729   4.143   3.433   0.988
  111GLOH    C3 9730   4.166   3.555   1.235
  111GLOH   H06 9731   4.093   3.614   1.179
  111GLOH   H07 9732   4.264   3.596   1.210
  111GLOH    O3 9733   4.142   3.566   1.376
  111GLOH   H01 9734   4.069   3.631   1.394
  112GLOH   H03 9735   4.939   3.681   1.402
  112GLOH    O1 9736   4.916   3.777   1.396
  112GLOH    C1 9737   4.876   3.828   1.525
  112GLOH   H02 9738   4.890   3.936   1.528
  112GLOH   H08 9739   4.939   3.786   1.604
  112GLOH    C2 9740   4.729   3.798   1.557
  112GLOH   H04 9741   4.717   3.688   1.559
  112GLOH    O2 9742   4.690   3.851   1.686
  112GLOH   H05 9743   4.633   3.782   1.731
  112GLOH    C3 9744   4.637   3.852   1.446
  112GLOH   H06 9745   4.644   3.961   1.445
  112GLOH   H07 9746   4.534   3.827   1.471
  112GLOH    O3 9747   4.673   3.798   1.318
  112GLOH   H01 9748   4.772   3.803   1.314
  113GLOH   H03 9749   4.800   2.394   1.906
  113GLOH    O1 9750   4.835   2.485   1.887
  113GLOH    C1 9751   4.942   2.477   1.792
  113GLOH   H02 9752   4.997   2.383   1.804
  113GLOH   H08 9753   5.013   2.557   1.810
  113GLOH    C2 9754   4.895   2.486   1.645
  113GLOH   H04 9755   4.984   2.480   1.581
  113GLOH    O2 9756   4.807   2.376   1.612
  113GLOH   H05 9757   4.715   2.398   1.646
  113GLOH    C3 9758   4.827   2.621   1.619
  113GLOH   H06 9759   4.743   2.632   1.688
  113GLOH   H07 9760   4.786   2.621   1.518
  113GLOH    O3 9761   4.918   2.731   1.635
  113GLOH   H01 9762   4.922   2.781   1.550
  114GLOH   H03 9763   3.934   3.011   0.663
  114GLOH    O1 9764   3.946   2.996   0.760
  114GLOH    C1 9765   3.955   2.854   0.783
  114GLOH   H02 9766   4.035   2.810   0.723
  114GLOH   H08 9767   3.862   2.805   0.754
  114GLOH    C2 9768   3.982   2.820   0.931
  114GLOH   H04 9769   3.899   2.860   0.992
  114GLOH    O2 9770   3.988   2.677   0.948
  114GLOH   H05 9771   4.004   2.659   1.045
  114GLOH    C3 9772   4.112   2.886   0.979
  114GLOH   H06 9773   4.196   2.840   0.928
  114GLOH   H07 9774   4.125   2.866   1.086
  114GLOH    O3 9775   4.112   3.028   0.956
  114GLOH   H01 9776   4.054   3.042   0.876
  115GLOH   H03 9777   3.551   1.087   1.334
  115GLOH    O1 9778   3.533   1.075   1.432
  115GLOH    C1 9779   3.576   1.195   1.499
  115GLOH   H02 9780   3.500   1.272   1.491
  115GLOH   H08 9781   3.666   1.234   1.451
  115GLOH    C2 9782   3.608   1.172   1.648
  115GLOH   H04 9783   3.678   1.088   1.654
  115GLOH    O2 9784   3.673   1.288   1.704
  115GLOH   H05 9785   3.764   1.295   1.664
  115GLOH    C3 9786   3.482   1.134   1.728
  115GLOH   H06 9787   3.511   1.127   1.833
  115GLOH   H07 9788   3.451   1.034   1.699
  115GLOH    O3 9789   3.370   1.224   1.715
  115GLOH   H01 9790   3.313   1.210   1.794
  116GLOH   H03 9791   3.469   8.818   0.099
  116GLOH    O1 9792   3.472   8.787   0.005
  116GLOH    C1 9793   3.410   8.887   2.796
  116GLOH   H02 9794   3.436   8.987   2.833
  116GLOH   H08 9795   3.302   8.879   2.802
  116GLOH    C2 9796   3.450   8.879   2.647
  116GLOH   H04 9797   3.403   8.790   2.603
  116GLOH    O2 9798   3.398   8.998   2.582
  116GLOH   H05 9799   3.436   9.007   2.491
  116GLOH    C3 9800   3.603   8.867   2.633
  116GLOH   H06 9801   3.635   8.779   2.688
  116GLOH   H07 9802   3.648   8.953   2.682
  116GLOH    O3 9803   3.649   8.857   2.496
  116GLOH   H01 9804   3.598   8.921   2.440
  117GLOH   H03 9805   4.489   1.878   0.610
  117GLOH    O1 9806   4.457   1.796   0.565
  117GLOH    C1 9807   4.496   1.800   0.426
  117GLOH   H02 9808   4.490   1.902   0.388
  117GLOH   H08 9809   4.427   1.740   0.367
  117GLOH    C2 9810   4.639   1.747   0.400
  117GLOH   H04 9811   4.637   1.638   0.416
  117GLOH    O2 9812   4.679   1.772   0.263
  117GLOH   H05 9813   4.659   1.693   0.206
  117GLOH    C3 9814   4.740   1.806   0.501
  117GLOH   H06 9815   4.840   1.777   0.469
  117GLOH   H07 9816   4.723   1.759   0.598
  117GLOH    O3 9817   4.732   1.949   0.513
  117GLOH   H01 9818   4.752   1.989   0.424
  118GLOH   H03 9819   4.343   1.954   0.961
  118GLOH    O1 9820   4.250   1.976   0.988
  118GLOH    C1 9821   4.244   1.980   1.131
  118GLOH   H02 9822   4.287   2.074   1.167
  118GLOH   H08 9823   4.305   1.900   1.174
  118GLOH    C2 9824   4.101   1.966   1.186
  118GLOH   H04 9825   4.034   2.029   1.126
  118GLOH    O2 9826   4.052   1.831   1.178
  118GLOH   H05 9827   4.108   1.773   1.239
  118GLOH    C3 9828   4.094   2.020   1.330
  118GLOH   H06 9829   4.160   1.960   1.393
  118GLOH   H07 9830   3.993   2.006   1.368
  118GLOH    O3 9831   4.132   2.159   1.337
  118GLOH   H01 9832   4.104   2.203   1.252
  119GLOH   H03 9833   2.952   2.068   0.958
  119GLOH    O1 9834   2.906   2.127   1.023
  119GLOH    C1 9835   2.892   2.064   1.152
  119GLOH   H02 9836   2.835   1.971   1.142
  119GLOH   H08 9837   2.833   2.128   1.218
  119GLOH    C2 9838   3.024   2.032   1.225
  119GLOH   H04 9839   2.998   2.007   1.329
  119GLOH    O2 9840   3.092   1.918   1.166
  119GLOH   H05 9841   3.076   1.839   1.227
  119GLOH    C3 9842   3.116   2.155   1.228
  119GLOH   H06 9843   3.136   2.184   1.125
  119GLOH   H07 9844   3.212   2.124   1.271
  119GLOH    O3 9845   3.064   2.266   1.304
  119GLOH   H01 9846   3.094   2.253   1.398
  120GLOH   H03 9847   5.117   3.163   1.430
  120GLOH    O1 9848   5.104   3.072   1.467
  120GLOH    C1 9849   5.113   3.079   1.611
  120GLOH   H02 9850   5.170   3.166   1.642
  120GLOH   H08 9851   5.166   2.991   1.649
  120GLOH    C2 9852   4.975   3.084   1.678
  120GLOH   H04 9853   4.918   2.996   1.646
  120GLOH    O2 9854   4.988   3.082   1.821
  120GLOH   H05 9855   4.963   2.990   1.853
  120GLOH    C3 9856   4.897   3.210   1.634
  120GLOH   H06 9857   4.913   3.226   1.527
  120GLOH   H07 9858   4.939   3.296   1.685
  120GLOH    O3 9859   4.756   3.199   1.661
  120GLOH   H01 9860   4.716   3.288   1.642
  121ACOH    H4 9861   4.849   3.428   1.956
  121ACOH    O2 9862   4.856   3.524   1.985
  121ACOH    C2 9863   4.889   3.596   1.876
  121ACOH    O1 9864   4.885   3.559   1.760
  121ACOH    C1 9865   4.924   3.735   1.913
  121ACOH    H1 9866   4.920   3.749   2.021
  121ACOH    H2 9867   4.853   3.804   1.867
  121ACOH    H3 9868   5.024   3.758   1.878
  122ACOH    H4 9869   3.446   4.463   0.095
  122ACOH    O2 9870   3.464   4.548   0.046
  122ACOH    C2 9871   3.536   4.519   2.810
  122ACOH    O1 9872   3.584   4.412   2.778
  122ACOH    C1 9873   3.557   4.644   2.732
  122ACOH    H1 9874   3.619   4.625   2.645
  122ACOH    H2 9875   3.604   4.719   2.795
  122ACOH    H3 9876   3.460   4.682   2.699
  123ACOH    H4 9877   3.554   8.809   1.774
  123ACOH    O2 9878   3.497   8.730   1.752
  123ACOH    C2 9879   3.485   8.726   1.618
  123ACOH    O1 9880   3.538   8.799   1.537
  123ACOH    C1 9881   3.396   8.615   1.577
  123ACOH    H1 9882   3.453   8.545   1.516
  123ACOH    H2 9883   3.313   8.654   1.519
  123ACOH    H3 9884   3.357   8.562   1.664
  124ACOH    H4 9885   3.248   3.489   2.834
  124ACOH    O2 9886   3.261   3.586   2.847
  124ACOH    C2 9887   3.200   3.623   0.087
  124ACOH    O1 9888   3.117   3.558   0.149
  124ACOH    C1 9889   3.230   3.764   0.120
  124ACOH    H1 9890   3.338   3.779   0.118
  124ACOH    H2 9891   3.193   3.789   0.219
  124ACOH    H3 9892   3.184   3.830   0.047
  125ACOH    H4 9893   3.802   2.295   1.195
  125ACOH    O2 9894   3.791   2.197   1.178
  125ACOH    C2 9895   3.761   2.183   1.047
  125ACOH    O1 9896   3.761   2.269   0.961
  125ACOH    C1 9897   3.732   2.041   1.018
  125ACOH    H1 9898   3.819   1.980   1.043
  125ACOH    H2 9899   3.708   2.026   0.913
  125ACOH    H3 9900   3.649   2.009   1.079
  126ACOH    H4 9901   2.943   1.801   1.800
  126ACOH    O2 9902   2.978   1.708   1.806
  126ACOH    C2 9903   3.065   1.692   1.704
  126ACOH    O1 9904   3.091   1.773   1.617
  126ACOH    C1 9905   3.124   1.556   1.706
  126ACOH    H1 9906   3.092   1.500   1.794
  126ACOH    H2 9907   3.232   1.562   1.705
  126ACOH    H3 9908   3.091   1.501   1.618
  127ACOH    H4 9909   4.498   3.121   0.394
  127ACOH    O2 9910   4.566   3.100   0.464
  127ACOH    C2 9911   4.502   3.090   0.582
  127ACOH    O1 9912   4.383   3.105   0.603
  127ACOH    C1 9913   4.599   3.062   0.692
  127ACOH    H1 9914   4.548   3.056   0.788
  127ACOH    H2 9915   4.673   3.141   0.695
  127ACOH    H3 9916   4.649   2.968   0.672
  128ACOH    H4 9917   4.138   9.290   1.869
  128ACOH    O2 9918   4.238   9.285   1.874
  128ACOH    C2 9919   4.269   9.214   1.983
  128ACOH    O1 9920   4.191   9.163   2.062
  128ACOH    C1 9921   4.416   9.204   1.999
  128ACOH    H1 9922   4.441   9.149   2.089
  128ACOH    H2 9923   4.459   9.303   2.004
  128ACOH    H3 9924   4.457   9.151   1.914
  129ACOH    H4 9925   4.147   9.935   1.852
  129ACOH    O2 9926   4.209   9.857   1.844
  129ACOH    C2 9927   4.145   9.749   1.893
  129ACOH    O1 9928   4.031   9.744   1.936
  129ACOH    C1 9929   4.232   9.630   1.886
  129ACOH    H1 9930   4.256   9.610   1.783
  129ACOH    H2 9931   4.183   9.543   1.929
  129ACOH    H3 9932   4.324   9.649   1.940
  130ACOH    H4 9933   4.320   0.865   1.652
  130ACOH    O2 9934   4.373   0.787   1.682
  130ACOH    C2 9935   4.490   0.835   1.729
  130ACOH    O1 9936   4.521   0.952   1.743
  130ACOH    C1 9937   4.577   0.724   1.773
  130ACOH    H1 9938   4.602   0.662   1.687
  130ACOH    H2 9939   4.524   0.664   1.846
  130ACOH    H3 9940   4.669   0.762   1.817
  131ACOH    H4 9941   3.355   8.713   1.205
  131ACOH    O2 9942   3.440   8.691   1.157
  131ACOH    C2 9943   3.423   8.724   1.028
  131ACOH    O1 9944   3.330   8.788   0.982
  131ACOH    C1 9945   3.541   8.685   0.948
  131ACOH    H1 9946   3.631   8.721   0.996
  131ACOH    H2 9947   3.535   8.727   0.848
  131ACOH    H3 9948   3.546   8.577   0.941
  132ACOH    H4 9949   3.973   9.100   1.423
  132ACOH    O2 9950   4.059   9.058   1.395
  132ACOH    C2 9951   4.091   9.111   1.276
  132ACOH    O1 9952   4.020   9.176   1.202
  132ACOH    C1 9953   4.230   9.073   1.240
  132ACOH    H1 9954   4.258   9.115   1.144
  132ACOH    H2 9955   4.237   8.964   1.235
  132ACOH    H3 9956   4.298   9.108   1.317
  133ACOH    H4 9957   3.581   3.852   1.743
  133ACOH    O2 9958   3.536   3.923   1.796
  133ACOH    C2 9959   3.407   3.886   1.805
  133ACOH    O1 9960   3.363   3.772   1.793
  133ACOH    C1 9961   3.324   3.995   1.861
  133ACOH    H1 9962   3.233   4.005   1.803
  133ACOH    H2 9963   3.378   4.090   1.857
  133ACOH    H3 9964   3.299   3.973   1.964
  134ACOH    H4 9965   2.956   3.232   2.691
  134ACOH    O2 9966   2.942   3.191   2.781
  134ACOH    C2 9967   2.911   3.062   2.762
  134ACOH    O1 9968   2.908   3.001   2.657
  134ACOH    C1 9969   2.883   2.998   0.019
  134ACOH    H1 9970   2.971   3.004   0.082
  134ACOH    H2 9971   2.856   2.893   0.006
  134ACOH    H3 9972   2.802   3.050   0.068
  135ACOH    H4 9973   2.885   0.814   1.494
  135ACOH    O2 9974   2.805   0.811   1.436
  135ACOH    C2 9975   2.829   0.891   1.330
  135ACOH    O1 9976   2.928   0.958   1.311
  135ACOH    C1 9977   2.716   0.885   1.234
  135ACOH    H1 9978   2.625   0.918   1.283
  135ACOH    H2 9979   2.703   0.783   1.200
  135ACOH    H3 9980   2.735   0.949   1.148
  136ACOH    H4 9981   4.786   1.744   1.554
  136ACOH    O2 9982   4.828   1.657   1.579
  136ACOH    C2 9983   4.799   1.569   1.481
  136ACOH    O1 9984   4.740   1.592   1.377
  136ACOH    C1 9985   4.854   1.435   1.514
  136ACOH    H1 9986   4.799   1.394   1.598
  136ACOH    H2 9987   4.958   1.445   1.541
  136ACOH    H3 9988   4.845   1.367   1.429
  137ACOH    H4 9989   3.811   4.045   0.582
  137ACOH    O2 9990   3.715   4.066   0.563
  137ACOH    C2 9991   3.654   4.068   0.684
  137ACOH    O1 9992   3.707   4.051   0.792
  137ACOH    C1 9993   3.510   4.099   0.670
  137ACOH    H1 9994   3.497   4.193   0.617
  137ACOH    H2 9995   3.463   4.107   0.768
  137ACOH    H3 9996   3.461   4.020   0.615
  138ACOH    H4 9997   3.772   8.780   2.477
  138ACOH    O2 9998   3.853   8.722   2.471
  138ACOH    C2 9999   3.921   8.759   2.361
  138ACOH    O110000   3.897   8.852   2.285
  138ACOH    C110001   4.038   8.670   2.343
  138ACOH    H110002   4.094   8.698   2.254
  138ACOH    H210003   4.003   8.568   2.332
  138ACOH    H310004   4.102   8.678   2.430
  139ACOH    H410005   4.655   1.242   0.567
  139ACOH    O210006   4.716   1.175   0.608
  139ACOH    C210007   4.789   1.123   0.508
  139ACOH    O110008   4.796   1.163   0.394
  139ACOH    C110009   4.870   1.009   0.559
  139ACOH    H110010   4.805   0.937   0.608
  139ACOH    H210011   4.944   1.046   0.630
  139ACOH    H310012   4.920   0.960   0.477
  140ACOH    H410013   2.895   2.397   1.671
  140ACOH    O210014   2.863   2.370   1.581
  140ACOH    C210015   2.833   2.483   1.514
  140ACOH    O110016   2.825   2.594   1.562
  140ACOH    C110017   2.792   2.454   1.375
  140ACOH    H110018   2.848   2.517   1.307
  140ACOH    H210019   2.686   2.475   1.363
  140ACOH    H310020   2.810   2.350   1.350
  141ACOH    H410021   4.912   3.457   1.336
  141ACOH    O210022   4.967   3.522   1.389
  141ACOH    C210023   5.079   3.456   1.426
  141ACOH    O110024   5.107   3.341   1.403
  141ACOH    C110025   5.165   3.546   1.507
  141ACOH    H110026   5.110   3.580   1.594
  141ACOH    H210027   5.195   3.631   1.447
  141ACOH    H310028   5.254   3.492   1.540
  142ACOH    H410029   4.509   0.809   1.428
  142ACOH    O210030   4.553   0.721   1.440
  142ACOH    C210031   4.506   0.638   1.345
  142ACOH    O110032   4.451   0.671   1.241
  142ACOH    C110033   4.549   0.499   1.372
  142ACOH    H110034   4.499   0.463   1.462
  142ACOH    H210035   4.657   0.496   1.388
  142ACOH    H310036   4.523   0.434   1.289
  143SOL     OW10037   3.799   3.682   2.242
  143SOL    HW110038   3.727   3.731   2.192
  143SOL    HW210039   3.769   3.665   2.336
  144SOL     OW10040   2.946   2.423   1.826
  144SOL    HW110041   2.986   2.336   1.854
  144SOL    HW210042   2.901   2.467   1.904
  145SOL     OW10043   3.940   3.720   1.430
  145SOL    HW110044   3.888   3.719   1.345
  145SOL    HW210045   3.919   3.804   1.480
  146SOL     OW10046   3.284   2.439   1.727
  146SOL    HW110047   3.360   2.409   1.785
  146SOL    HW210048   3.229   2.506   1.777
  147SOL     OW10049   3.272   9.111   0.871
  147SOL    HW110050   3.220   9.064   0.943
  147SOL    HW210051   3.297   9.203   0.903
  148SOL     OW10052   3.619   3.199   1.780
  148SOL    HW110053   3.561   3.153   1.713
  148SOL    HW210054   3.714   3.197   1.749
  149SOL     OW10055   3.045   1.153   1.122
  149SOL    HW110056   3.137   1.113   1.115
  149SOL    HW210057   2.991   1.101   1.188
  150SOL     OW10058   3.242   1.687   1.055
  150SOL    HW110059   3.265   1.659   0.962
  150SOL    HW210060   3.173   1.760   1.051
  151SOL     OW10061   3.439   0.615   0.758
  151SOL    HW110062   3.452   0.645   0.663
  151SOL    HW210063   3.525   0.576   0.792
  152SOL     OW10064   4.330   2.995   1.307
  152SOL    HW110065   4.416   2.973   1.352
  152SOL    HW210066   4.348   3.043   1.222
  153SOL     OW10067   3.910   1.330   1.602
  153SOL    HW110068   3.927   1.322   1.503
  153SOL    HW210069   3.908   1.426   1.628
  154SOL     OW10070   2.563   2.264   0.155
  154SOL    HW110071   2.467   2.263   0.181
  154SOL    HW210072   2.610   2.187   0.198
  155SOL     OW10073   3.334   3.368   2.043
  155SOL    HW110074   3.378   3.278   2.044
  155SOL    HW210075   3.314   3.394   1.949
  156SOL     OW10076   4.296   2.456   2.200
  156SOL    HW110077   4.206   2.468   2.242
  156SOL    HW210078   4.330   2.544   2.168
  157SOL     OW10079   3.267   0.499   1.427
  157SOL    HW110080   3.281   0.448   1.342
  157SOL    HW210081   3.261   0.435   1.504
  158SOL     OW10082   4.521   3.967   2.150
  158SOL    HW110083   4.424   3.981   2.133
  158SOL    HW210084   4.572   3.983   2.066
  159SOL     OW10085   3.040   2.003   0.834
  159SOL    HW110086   3.020   1.914   0.793
  159SOL    HW210087   3.131   2.001   0.876
  160SOL     OW10088   3.448   0.726   0.507
  160SOL    HW110089   3.458   0.706   0.410
  160SOL    HW210090   3.362   0.775   0.522
  161SOL     OW10091   3.096   9.671   1.678
  161SOL    HW110092   3.051   9.614   1.747
  161SOL    HW210093   3.062   9.645   1.587
  162SOL     OW10094   3.063   1.719   1.333
  162SOL    HW110095   3.067   1.748   1.429
  162SOL    HW210096   3.058   1.619   1.328
  163SOL     OW10097   4.474   1.922   1.467
  163SOL    HW110098   4.445   1.919   1.563
  163SOL    HW210099   4.467   2.016   1.433
  164SOL     OW10100   3.173   9.746   0.946
  164SOL    HW110101   3.124   9.763   0.860
  164SOL    HW210102   3.271   9.761   0.932
  165SOL     OW10103   3.890   3.220   1.722
  165SOL    HW110104   3.883   3.302   1.779
  165SOL    HW210105   3.962   3.234   1.653
  166SOL     OW10106   3.707   2.602   1.669
  166SOL    HW110107   3.726   2.694   1.634
  166SOL    HW210108   3.609   2.584   1.662
  167SOL     OW10109   3.639   2.907   1.094
  167SOL    HW110110   3.540   2.923   1.100
  167SOL    HW210111   3.676   2.957   1.015
  168SOL     OW10112   3.889   3.845   1.785
  168SOL    HW110113   3.901   3.780   1.861
  168SOL    HW210114   3.855   3.932   1.821
  169SOL     OW10115   4.598   1.213   1.647
  169SOL    HW110116   4.574   1.205   1.550
  169SOL    HW210117   4.579   1.126   1.693
  170SOL     OW10118   4.381   3.499   1.460
  170SOL    HW110119   4.290   3.528   1.431
  170SOL    HW210120   4.373   3.428   1.530
  171SOL     OW10121   3.279   0.953   0.336
  171SOL    HW110122   3.198   0.974   0.280
  171SOL    HW210123   3.250   0.923   0.427
  172SOL     OW10124   2.979   1.948   2.104
  172SOL    HW110125   3.071   1.987   2.114
  172SOL    HW210126   2.919   1.986   2.174
  173SOL     OW10127   4.898   2.841   1.875
  173SOL    HW110128   4.911   2.789   1.790
  173SOL    HW210129   4.897   2.779   1.953
  174SOL     OW10130   3.550   9.320   0.731
  174SOL    HW110131   3.638   9.361   0.752
  174SOL    HW210132   3.553   9.222   0.752
  175SOL     OW10133   3.456   2.808   1.620
  175SOL    HW110134   3.418   2.731   1.568
  175SOL    HW210135   3.417   2.809   1.712
  176SOL     OW10136   3.772   1.659   1.437
  176SOL    HW110137   3.807   1.635   1.528
  176SOL    HW210138   3.682   1.702   1.446
  177SOL     OW10139   4.678   3.435   1.599
  177SOL    HW110140   4.657   3.478   1.511
  177SOL    HW210141   4.744   3.491   1.649
  178SOL     OW10142   3.126   3.246   1.809
  178SOL    HW110143   3.151   3.190   1.730
  178SOL    HW210144   3.170   3.336   1.801
  179SOL     OW10145   2.967   2.377   1.078
  179SOL    HW110146   2.926   2.295   1.040
  179SOL    HW210147   3.000   2.359   1.171
  180SOL     OW10148   3.355   9.548   1.869
  180SOL    HW110149   3.415   9.502   1.934
  180SOL    HW210150   3.291   9.483   1.830
  181SOL     OW10151   2.947   9.774   0.271
  181SOL    HW110152   2.906   9.787   0.181
  181SOL    HW210153   2.954   9.862   0.318
  182SOL     OW10154   3.533   0.674   0.243
  182SOL    HW110155   3.497   0.734   0.172
  182SOL    HW210156   3.530   0.580   0.211
  183SOL     OW10157   3.905   0.767   1.869
  183SOL    HW110158   3.934   0.751   1.775
  183SOL    HW210159   3.833   0.702   1.893
  184SOL     OW10160   3.657   0.478   0.850
  184SOL    HW110161   3.619   0.408   0.910
  184SOL    HW210162   3.754   0.490   0.870
  185SOL     OW10163   2.945   1.684   2.075
  185SOL    HW110164   2.960   1.781   2.091
  185SOL    HW210165   2.942   1.666   1.977
  186SOL     OW10166   3.292   9.569   0.693
  186SOL    HW110167   3.313   9.492   0.633
  186SOL    HW210168   3.211   9.617   0.660
  187SOL     OW10169   3.947   1.125   0.139
  187SOL    HW110170   3.919   1.204   0.193
  187SOL    HW210171   4.011   1.155   0.068
  188SOL     OW10172   4.191   1.691   1.338
  188SOL    HW110173   4.290   1.677   1.332
  188SOL    HW210174   4.160   1.671   1.431
  189SOL     OW10175   3.145   2.082   0.348
  189SOL    HW110176   3.238   2.066   0.315
  189SOL    HW210177   3.149   2.120   0.441
  190SOL     OW10178   3.170   0.649   0.763
  190SOL    HW110179   3.269   0.637   0.769
  190SOL    HW210180   3.132   0.585   0.696
  191SOL     OW10181   3.842   9.924   0.956
  191SOL    HW110182   3.880   9.977   1.032
  191SOL    HW210183   3.868   9.965   0.869
  192SOL     OW10184   3.868   3.459   1.503
  192SOL    HW110185   3.888   3.556   1.488
  192SOL    HW210186   3.953   3.409   1.520
  193SOL     OW10187   4.171   1.877   1.759
  193SOL    HW110188   4.095   1.930   1.721
  193SOL    HW210189   4.147   1.848   1.852
  194SOL     OW10190   2.889   3.540   0.325
  194SOL    HW110191   2.969   3.564   0.269
  194SOL    HW210192   2.806   3.575   0.281
  195SOL     OW10193   3.919   4.010   0.980
  195SOL    HW110194   3.901   4.039   1.074
  195SOL    HW210195   3.841   4.034   0.922
  196SOL     OW10196   3.276   2.528   2.206
  196SOL    HW110197   3.333   2.564   2.133
  196SOL    HW210198   3.191   2.581   2.210
  197SOL     OW10199   2.901   2.861   1.630
  197SOL    HW110200   2.868   2.769   1.607
  197SOL    HW210201   2.874   2.884   1.723
  198SOL     OW10202   4.732   3.131   2.159
  198SOL    HW110203   4.726   3.134   2.259
  198SOL    HW210204   4.728   3.036   2.129
  199SOL     OW10205   3.534   9.819   1.285
  199SOL    HW110206   3.560   9.866   1.201
  199SOL    HW210207   3.565   9.872   1.364
  200SOL     OW10208   2.943   2.653   0.510
  200SOL    HW110209   2.949   2.569   0.564
  200SOL    HW210210   2.971   2.731   0.567
  201SOL     OW10211   2.993   0.383   1.006
  201SOL    HW110212   3.041   0.320   1.067
  201SOL    HW210213   3.032   0.474   1.015
  202SOL     OW10214   4.560   2.920   1.467
  202SOL    HW110215   4.596   2.934   1.559
  202SOL    HW210216   4.632   2.941   1.400
  203SOL     OW10217   3.208   9.106   2.046
  203SOL    HW110218   3.114   9.125   2.019
  203SOL    HW210219   3.271   9.141   1.977
  204SOL     OW10220   3.294   1.040   1.092
  204SOL    HW110221   3.266   0.959   1.144
  204SOL    HW210222   3.345   1.012   1.011
  205SOL     OW10223   3.118   3.275   2.197
  205SOL    HW110224   3.189   3.319   2.141
  205SOL    HW210225   3.059   3.220   2.138
  206SOL     OW10226   3.072   1.515   0.766
  206SOL    HW110227   3.062   1.429   0.816
  206SOL    HW210228   3.167   1.546   0.772
  207SOL     OW10229   3.227   1.262   1.489
  207SOL    HW110230   3.281   1.254   1.405
  207SOL    HW210231   3.286   1.252   1.569
  208SOL     OW10232   3.644   3.597   0.985
  208SOL    HW110233   3.627   3.515   1.040
  208SOL    HW210234   3.558   3.649   0.975
  209SOL     OW10235   4.566   2.435   1.684
  209SOL    HW110236   4.541   2.481   1.769
  209SOL    HW210237   4.498   2.457   1.614
  210SOL     OW10238   3.523   1.647   0.173
  210SOL    HW110239   3.435   1.627   0.216
  210SOL    HW210240   3.510   1.663   0.075
  211SOL     OW10241   3.262   1.720   2.035
  211SOL    HW110242   3.329   1.646   2.026
  211SOL    HW210243   3.172   1.682   2.053
  212SOL     OW10244   3.303   0.319   2.130
  212SOL    HW110245   3.386   0.286   2.084
  212SOL    HW210246   3.328   0.371   2.211
  213SOL     OW10247   2.974   9.510   1.871
  213SOL    HW110248   2.877   9.489   1.868
  213SOL    HW210249   2.996   9.554   1.958
  214SOL     OW10250   3.597   0.202   1.737
  214SOL    HW110251   3.623   0.106   1.743
  214SOL    HW210252   3.546   0.217   1.653
  215SOL     OW10253   3.437   1.890   2.197
  215SOL    HW110254   3.372   1.814   2.191
  215SOL    HW210255   3.435   1.929   2.289
  216SOL     OW10256   3.676   9.593   1.215
  216SOL    HW110257   3.724   9.549   1.291
  216SOL    HW210258   3.620   9.669   1.250
  217SOL     OW10259   3.476   1.854   0.488
  217SOL    HW110260   3.570   1.885   0.497
  217SOL    HW210261   3.471   1.756   0.508
  218SOL     OW10262   3.803   2.380   0.288
  218SOL    HW110263   3.810   2.434   0.372
  218SOL    HW210264   3.737   2.305   0.303
  219SOL     OW10265   4.116   1.010   0.697
  219SOL    HW110266   4.123   0.949   0.776
  219SOL    HW210267   4.025   1.052   0.695
  220SOL     OW10268   2.776   1.817   0.364
  220SOL    HW110269   2.764   1.720   0.343
  220SOL    HW210270   2.870   1.833   0.393
  221SOL     OW10271   3.528   0.647   1.210
  221SOL    HW110272   3.548   0.700   1.128
  221SOL    HW210273   3.508   0.709   1.286
  222SOL     OW10274   4.465   1.670   1.353
  222SOL    HW110275   4.461   1.761   1.395
  222SOL    HW210276   4.560   1.642   1.344
  223SOL     OW10277   4.558   2.082   1.128
  223SOL    HW110278   4.563   2.059   1.225
  223SOL    HW210279   4.532   2.178   1.118
  224SOL     OW10280   3.600   9.357   1.109
  224SOL    HW110281   3.619   9.448   1.146
  224SOL    HW210282   3.679   9.323   1.059
  225SOL     OW10283   2.983   0.006   0.408
  225SOL    HW110284   2.952   0.026   0.501
  225SOL    HW210285   3.079   0.032   0.399
  226SOL     OW10286   4.845   2.648   2.090
  226SOL    HW110287   4.854   2.588   2.169
  226SOL    HW210288   4.837   2.593   2.007
  227SOL     OW10289   3.870   1.149   0.663
  227SOL    HW110290   3.819   1.088   0.724
  227SOL    HW210291   3.806   1.206   0.612
  228SOL     OW10292   3.308   9.404   1.313
  228SOL    HW110293   3.266   9.451   1.236
  228SOL    HW210294   3.328   9.470   1.386
  229SOL     OW10295   3.871   0.385   2.076
  229SOL    HW110296   3.873   0.305   2.136
  229SOL    HW210297   3.964   0.410   2.051
  230SOL     OW10298   3.698   9.557   0.528
  230SOL    HW110299   3.745   9.639   0.495
  230SOL    HW210300   3.603   9.580   0.550
  231SOL     OW10301   4.109   0.752   2.048
  231SOL    HW110302   4.035   0.765   1.982
  231SOL    HW210303   4.134   0.841   2.087
  232SOL     OW10304   4.186   1.610   0.214
  232SOL    HW110305   4.215   1.665   0.136
  232SOL    HW210306   4.094   1.637   0.242
  233SOL     OW10307   4.126   0.484   1.998
  233SOL    HW110308   4.119   0.581   2.020
  233SOL    HW210309   4.215   0.449   2.027
  234SOL     OW10310   3.119   2.517   0.910
  234SOL    HW110311   3.056   2.469   0.971
  234SOL    HW210312   3.109   2.616   0.922
  235SOL     OW10313   3.404   9.836   0.406
  235SOL    HW110314   3.378   9.743   0.380
  235SOL    HW210315   3.462   9.833   0.488
  236SOL     OW10316   3.813   1.396   0.872
  236SOL    HW110317   3.798   1.489   0.837
  236SOL    HW210318   3.908   1.370   0.856
  237SOL     OW10319   4.085   0.476   1.715
  237SOL    HW110320   4.066   0.570   1.685
  237SOL    HW210321   4.104   0.476   1.813
  238SOL     OW10322   4.006   0.274   0.686
  238SOL    HW110323   4.062   0.322   0.619
  238SOL    HW210324   4.042   0.291   0.778
  239SOL     OW10325   3.950   3.342   0.701
  239SOL    HW110326   4.014   3.288   0.647
  239SOL    HW210327   3.871   3.367   0.644
  240SOL     OW10328   3.139   0.387   1.923
  240SOL    HW110329   3.121   0.302   1.874
  240SOL    HW210330   3.196   0.369   2.003
  241SOL     OW10331   3.432   9.802   1.812
  241SOL    HW110332   3.398   9.710   1.831
  241SOL    HW210333   3.381   9.869   1.865
  242SOL     OW10334   2.703   2.068   0.273
  242SOL    HW110335   2.790   2.116   0.261
  242SOL    HW210336   2.720   1.976   0.308
  243SOL     OW10337   3.183   9.499   1.075
  243SOL    HW110338   3.245   9.441   1.023
  243SOL    HW210339   3.179   9.590   1.034
  244SOL     OW10340   3.483   2.148   1.331
  244SOL    HW110341   3.535   2.111   1.408
  244SOL    HW210342   3.442   2.073   1.280
  245SOL     OW10343   3.337   1.303   0.244
  245SOL    HW110344   3.297   1.288   0.153
  245SOL    HW210345   3.414   1.241   0.257
  246SOL     OW10346   3.212   3.099   1.599
  246SOL    HW110347   3.162   3.047   1.530
  246SOL    HW210348   3.310   3.083   1.587
  247SOL     OW10349   3.173   2.245   1.537
  247SOL    HW110350   3.217   2.300   1.607
  247SOL    HW210351   3.214   2.154   1.535
  248SOL     OW10352   3.279   9.721   1.338
  248SOL    HW110353   3.302   9.673   1.422
  248SOL    HW210354   3.362   9.763   1.301
  249SOL     OW10355   3.329   3.218   1.183
  249SOL    HW110356   3.238   3.222   1.142
  249SOL    HW210357   3.350   3.305   1.227
  250SOL     OW10358   2.973   1.767   0.710
  250SOL    HW110359   3.006   1.675   0.733
  250SOL    HW210360   2.873   1.765   0.702
  251SOL     OW10361   3.533   0.229   2.005
  251SOL    HW110362   3.548   0.224   1.906
  251SOL    HW210363   3.617   0.258   2.051
  252SOL     OW10364   3.538   9.069   0.509
  252SOL    HW110365   3.592   9.147   0.478
  252SOL    HW210366   3.562   9.047   0.603
  253SOL     OW10367   2.699   1.830   2.151
  253SOL    HW110368   2.612   1.802   2.110
  253SOL    HW210369   2.768   1.760   2.133
  254SOL     OW10370   2.785   0.214   0.934
  254SOL    HW110371   2.705   0.225   0.993
  254SOL    HW210372   2.854   0.283   0.959
  255SOL     OW10373   3.354   2.578   1.510
  255SOL    HW110374   3.390   2.514   1.442
  255SOL    HW210375   3.324   2.528   1.591
  256SOL     OW10376   4.924   2.875   1.419
  256SOL    HW110377   5.000   2.938   1.429
  256SOL    HW210378   4.860   2.911   1.350
  257SOL     OW10379   4.497   1.921   0.918
  257SOL    HW110380   4.530   1.960   0.832
  257SOL    HW210381   4.535   1.972   0.995
  258SOL     OW10382   4.315   0.633   0.966
  258SOL    HW110383   4.256   0.713   0.955
  258SOL    HW210384   4.346   0.627   1.061
  259SOL     OW10385   4.656   1.357   1.223
  259SOL    HW110386   4.631   1.371   1.128
  259SOL    HW210387   4.694   1.442   1.260
  260SOL     OW10388   2.934   0.048   0.682
  260SOL    HW110389   2.996   0.122   0.708
  260SOL    HW210390   2.849   0.057   0.734
  261SOL     OW10391   3.250   2.932   0.564
  261SOL    HW110392   3.240   2.892   0.473
  261SOL    HW210393   3.171   2.908   0.620
  262SOL     OW10394   3.792   1.647   0.771
  262SOL    HW110395   3.839   1.651   0.683
  262SOL    HW210396   3.709   1.703   0.767
  263SOL     OW10397   4.432   1.951   1.739
  263SOL    HW110398   4.337   1.922   1.748
  263SOL    HW210399   4.443   2.042   1.778
  264SOL     OW10400   3.949   0.452   0.246
  264SOL    HW110401   4.043   0.474   0.272
  264SOL    HW210402   3.932   0.483   0.152
  265SOL     OW10403   3.312   9.331   2.183
  265SOL    HW110404   3.392   9.354   2.128
  265SOL    HW210405   3.276   9.243   2.153
  266SOL     OW10406   3.181   9.362   1.763
  266SOL    HW110407   3.159   9.348   1.666
  266SOL    HW210408   3.104   9.406   1.809
  267SOL     OW10409   4.148   0.854   0.942
  267SOL    HW110410   4.073   0.810   0.993
  267SOL    HW210411   4.177   0.936   0.990
  268SOL     OW10412   2.992   1.239   1.810
  268SOL    HW110413   2.978   1.211   1.715
  268SOL    HW210414   2.922   1.197   1.868
  269SOL     OW10415   3.638   0.473   1.746
  269SOL    HW110416   3.624   0.374   1.747
  269SOL    HW210417   3.677   0.502   1.833
  270SOL     OW10418   3.374   9.366   0.528
  270SOL    HW110419   3.319   9.283   0.522
  270SOL    HW210420   3.450   9.352   0.591
  271SOL     OW10421   3.130   2.531   1.345
  271SOL    HW110422   3.111   2.433   1.335
  271SOL    HW210423   3.203   2.544   1.412
  272SOL     OW10424   3.597   9.456   1.598
  272SOL    HW110425   3.666   9.450   1.525
  272SOL    HW210426   3.543   9.371   1.599
  273SOL     OW10427   3.509   1.102   0.380
  273SOL    HW110428   3.419   1.058   0.374
  273SOL    HW210429   3.581   1.034   0.366
  274SOL     OW10430   2.836   1.097   1.984
  274SOL    HW110431   2.857   1.001   1.967
  274SOL    HW210432   2.853   1.119   2.080
  275SOL     OW10433   2.887   2.245   2.195
  275SOL    HW110434   2.934   2.271   2.280
  275SOL    HW210435   2.796   2.211   2.218
  276SOL     OW10436   4.319   3.633   0.395
  276SOL    HW110437   4.367   3.595   0.316
  276SOL    HW210438   4.320   3.567   0.470
  277SOL     OW10439   3.444   3.636   2.041
  277SOL    HW110440   3.411   3.546   2.070
  277SOL    HW210441   3.394   3.665   1.959
  278SOL     OW10442   3.343   9.570   0.348
  278SOL    HW110443   3.357   9.491   0.408
  278SOL    HW210444   3.359   9.543   0.253
  279SOL     OW10445   3.082   9.812   0.688
  279SOL    HW110446   3.080   9.760   0.602
  279SOL    HW210447   3.017   9.887   0.683
  280SOL     OW10448   3.614   3.514   1.782
  280SOL    HW110449   3.574   3.515   1.873
  280SOL    HW210450   3.561   3.454   1.723
  281SOL     OW10451   3.084   0.263   0.770
  281SOL    HW110452   3.182   0.276   0.784
  281SOL    HW210453   3.034   0.301   0.848
  282SOL     OW10454   4.758   2.027   0.269
  282SOL    HW110455   4.731   1.933   0.247
  282SOL    HW210456   4.778   2.076   0.184
  283SOL     OW10457   3.566   1.794   0.805
  283SOL    HW110458   3.527   1.882   0.776
  283SOL    HW210459   3.557   1.785   0.904
  284SOL     OW10460   3.431   1.273   2.083
  284SOL    HW110461   3.354   1.240   2.028
  284SOL    HW210462   3.503   1.204   2.086
  285SOL     OW10463   3.606   1.533   1.781
  285SOL    HW110464   3.692   1.576   1.754
  285SOL    HW210465   3.606   1.437   1.754
  286SOL     OW10466   3.494   2.112   1.756
  286SOL    HW110467   3.441   2.037   1.796
  286SOL    HW210468   3.533   2.082   1.668
  287SOL     OW10469   4.515   1.681   1.684
  287SOL    HW110470   4.522   1.774   1.720
  287SOL    HW210471   4.590   1.626   1.719
  288SOL     OW10472   3.530   1.783   1.448
  288SOL    HW110473   3.486   1.767   1.536
  288SOL    HW210474   3.476   1.742   1.374
  289SOL     OW10475   3.201   2.783   0.336
  289SOL    HW110476   3.118   2.744   0.296
  289SOL    HW210477   3.261   2.710   0.367
  290SOL     OW10478   3.512   9.986   0.202
  290SOL    HW110479   3.514   0.081   0.234
  290SOL    HW210480   3.475   9.927   0.273
  291SOL     OW10481   4.257   2.262   1.539
  291SOL    HW110482   4.209   2.256   1.627
  291SOL    HW210483   4.199   2.222   1.468
  292SOL     OW10484   3.256   1.099   0.723
  292SOL    HW110485   3.209   1.155   0.791
  292SOL    HW210486   3.256   1.146   0.635
  293SOL     OW10487   3.280   9.991   0.759
  293SOL    HW110488   3.315   0.042   0.681
  293SOL    HW210489   3.216   9.921   0.727
  294SOL     OW10490   4.164   1.912   2.252
  294SOL    HW110491   4.136   1.870   2.338
  294SOL    HW210492   4.245   1.969   2.267
  295SOL     OW10493   3.035   9.606   1.417
  295SOL    HW110494   3.109   9.664   1.382
  295SOL    HW210495   2.977   9.577   1.340
  296SOL     OW10496   3.652   9.931   1.747
  296SOL    HW110497   3.715   9.926   1.825
  296SOL    HW210498   3.567   9.884   1.770
  297SOL     OW10499   3.369   1.937   1.207
  297SOL    HW110500   3.432   1.886   1.149
  297SOL    HW210501   3.277   1.936   1.167
  298SOL     OW10502   3.620   9.992   1.481
  298SOL    HW110503   3.553   0.067   1.488
  298SOL    HW210504   3.640   9.957   1.572
  299SOL     OW10505   3.820   9.244   0.995
  299SOL    HW110506   3.841   9.302   0.916
  299SOL    HW210507   3.901   9.234   1.052
  300SOL     OW10508   3.051   2.946   1.421
  300SOL    HW110509   2.997   2.917   1.500
  300SOL    HW210510   3.061   2.869   1.358
  301SOL     OW10511   4.320   3.151   1.063
  301SOL    HW110512   4.248   3.095   1.022
  301SOL    HW210513   4.291   3.247   1.062
  302SOL     OW10514   4.107   2.357   0.771
  302SOL    HW110515   4.078   2.269   0.808
  302SOL    HW210516   4.027   2.418   0.765
  303SOL     OW10517   4.125   1.774   2.012
  303SOL    HW110518   4.142   1.834   2.090
  303SOL    HW210519   4.153   1.680   2.035
  304SOL     OW10520   3.453   8.916   0.240
  304SOL    HW110521   3.487   8.937   0.332
  304SOL    HW210522   3.381   8.980   0.215
  305SOL     OW10523   3.413   3.738   0.961
  305SOL    HW110524   3.413   3.791   1.046
  305SOL    HW210525   3.326   3.689   0.952
  306SOL     OW10526   3.186   3.584   0.942
  306SOL    HW110527   3.117   3.619   0.879
  306SOL    HW210528   3.221   3.497   0.907
  307SOL     OW10529   3.290   3.473   1.789
  307SOL    HW110530   3.281   3.571   1.774
  307SOL    HW210531   3.343   3.433   1.714
  308SOL     OW10532   3.051   9.939   1.636
  308SOL    HW110533   3.072   9.846   1.664
  308SOL    HW210534   3.028   9.941   1.538
  309SOL     OW10535   3.222   0.862   0.589
  309SOL    HW110536   3.176   0.793   0.644
  309SOL    HW210537   3.223   0.950   0.638
  310SOL     OW10538   4.843   3.270   1.949
  310SOL    HW110539   4.795   3.215   2.017
  310SOL    HW210540   4.900   3.210   1.892
  311SOL     OW10541   4.616   3.539   1.342
  311SOL    HW110542   4.629   3.635   1.320
  311SOL    HW210543   4.523   3.525   1.376
  312SOL     OW10544   4.057   2.121   0.891
  312SOL    HW110545   3.995   2.057   0.845
  312SOL    HW210546   4.135   2.071   0.928
  313SOL     OW10547   3.291   2.041   0.922
  313SOL    HW110548   3.289   2.139   0.942
  313SOL    HW210549   3.354   2.023   0.846
  314SOL     OW10550   4.504   1.193   1.385
  314SOL    HW110551   4.573   1.227   1.321
  314SOL    HW210552   4.436   1.265   1.402
  315SOL     OW10553   2.989   1.146   1.550
  315SOL    HW110554   3.077   1.188   1.529
  315SOL    HW210555   2.969   1.076   1.482
  316SOL     OW10556   3.760   2.195   0.673
  316SOL    HW110557   3.755   2.282   0.625
  316SOL    HW210558   3.758   2.211   0.772
  317SOL     OW10559   4.665   2.978   1.768
  317SOL    HW110560   4.735   2.928   1.818
  317SOL    HW210561   4.703   3.064   1.733
  318SOL     OW10562   3.135   3.989   0.445
  318SOL    HW110563   3.051   4.018   0.492
  318SOL    HW210564   3.157   3.896   0.471
  319SOL     OW10565   3.563   1.760   1.083
  319SOL    HW110566   3.660   1.748   1.107
  319SOL    HW210567   3.507   1.704   1.144
  320SOL     OW10568   3.039   1.840   0.441
  320SOL    HW110569   3.038   1.837   0.541
  320SOL    HW210570   3.078   1.927   0.411
  321SOL     OW10571   3.806   9.450   1.413
  321SOL    HW110572   3.874   9.520   1.435
  321SOL    HW210573   3.848   9.360   1.418
  322SOL     OW10574   3.940   1.682   0.307
  322SOL    HW110575   3.959   1.664   0.403
  322SOL    HW210576   3.857   1.634   0.280
  323SOL     OW10577   4.092   1.591   1.001
  323SOL    HW110578   4.020   1.620   1.063
  323SOL    HW210579   4.153   1.668   0.982
  324SOL     OW10580   4.128   3.206   0.546
  324SOL    HW110581   4.062   3.138   0.514
  324SOL    HW210582   4.216   3.161   0.564
  325SOL     OW10583   4.356   1.423   1.421
  325SOL    HW110584   4.400   1.506   1.388
  325SOL    HW210585   4.342   1.429   1.520
  326SOL     OW10586   3.435   1.739   1.692
  326SOL    HW110587   3.485   1.666   1.740
  326SOL    HW210588   3.396   1.802   1.759
  327SOL     OW10589   3.106   9.659   0.462
  327SOL    HW110590   3.189   9.627   0.417
  327SOL    HW210591   3.040   9.691   0.394
  328SOL     OW10592   4.090   3.288   1.551
  328SOL    HW110593   4.181   3.312   1.585
  328SOL    HW210594   4.097   3.209   1.490
  329SOL     OW10595   3.351   0.448   1.149
  329SOL    HW110596   3.270   0.490   1.107
  329SOL    HW210597   3.415   0.520   1.176
  330SOL     OW10598   3.446   3.394   1.579
  330SOL    HW110599   3.387   3.428   1.506
  330SOL    HW210600   3.524   3.346   1.540
  331SOL     OW10601   4.155   0.459   1.424
  331SOL    HW110602   4.154   0.446   1.523
  331SOL    HW210603   4.097   0.537   1.400
  332SOL     OW10604   3.819   1.707   1.178
  332SOL    HW110605   3.899   1.767   1.167
  332SOL    HW210606   3.804   1.690   1.275
  333SOL     OW10607   2.982   9.783   1.152
  333SOL    HW110608   3.052   9.783   1.081
  333SOL    HW210609   2.942   9.692   1.159
  334SOL     OW10610   3.155   1.006   2.143
  334SOL    HW110611   3.174   0.908   2.134
  334SOL    HW210612   3.188   1.039   2.232
  335SOL     OW10613   3.158   0.133   1.796
  335SOL    HW110614   3.109   0.067   1.740
  335SOL    HW210615   3.221   0.085   1.857
  336SOL     OW10616   3.601   1.076   1.180
  336SOL    HW110617   3.598   0.985   1.140
  336SOL    HW210618   3.612   1.144   1.107
  337SOL     OW10619   3.932   0.527   0.896
  337SOL    HW110620   3.964   0.571   0.812
  337SOL    HW210621   3.992   0.449   0.917
  338SOL     OW10622   3.126   2.642   1.842
  338SOL    HW110623   3.087   2.718   1.894
  338SOL    HW210624   3.054   2.579   1.814
  339SOL     OW10625   3.979   1.622   0.565
  339SOL    HW110626   4.057   1.672   0.602
  339SOL    HW210627   4.000   1.525   0.561
  340SOL     OW10628   3.141   2.160   0.613
  340SOL    HW110629   3.226   2.207   0.639
  340SOL    HW210630   3.105   2.111   0.692
  341SOL     OW10631   3.826   3.670   1.192
  341SOL    HW110632   3.864   3.579   1.178
  341SOL    HW210633   3.754   3.687   1.125
  342SOL     OW10634   3.714   2.642   1.105
  342SOL    HW110635   3.698   2.741   1.103
  342SOL    HW210636   3.637   2.595   1.062
  343SOL     OW10637   3.268   9.104   0.160
  343SOL    HW110638   3.218   9.137   0.240
  343SOL    HW210639   3.209   9.105   0.080
  344SOL     OW10640   3.071   3.228   1.084
  344SOL    HW110641   3.006   3.179   1.142
  344SOL    HW210642   3.037   3.229   0.990
  345SOL     OW10643   3.808   1.581   2.292
  345SOL    HW110644   3.852   1.509   2.238
  345SOL    HW210645   3.751   1.637   2.232
  346SOL     OW10646   3.343   0.014   1.968
  346SOL    HW110647   3.318   9.964   2.052
  346SOL    HW210648   3.414   0.081   1.990
  347SOL     OW10649   4.282   3.440   0.586
  347SOL    HW110650   4.221   3.362   0.567
  347SOL    HW210651   4.331   3.423   0.672
  348SOL     OW10652   3.646   1.716   2.111
  348SOL    HW110653   3.597   1.800   2.136
  348SOL    HW210654   3.581   1.648   2.079
  349SOL     OW10655   3.334   1.568   0.813
  349SOL    HW110656   3.401   1.603   0.747
  349SOL    HW210657   3.370   1.485   0.855
  350SOL     OW10658   3.885   1.597   1.685
  350SOL    HW110659   3.974   1.621   1.647
  350SOL    HW210660   3.880   1.630   1.780
  351SOL     OW10661   3.255   0.353   1.656
  351SOL    HW110662   3.222   0.262   1.682
  351SOL    HW210663   3.258   0.411   1.737
  352SOL     OW10664   4.019   2.826   1.960
  352SOL    HW110665   4.108   2.824   1.915
  352SOL    HW210666   3.953   2.873   1.901
  353SOL     OW10667   2.986   2.436   0.669
  353SOL    HW110668   3.023   2.452   0.761
  353SOL    HW210669   2.989   2.338   0.649
  354SOL     OW10670   3.378   9.353   0.950
  354SOL    HW110671   3.419   9.363   0.859
  354SOL    HW210672   3.450   9.352   1.019
  355SOL     OW10673   3.676   3.752   1.657
  355SOL    HW110674   3.764   3.783   1.693
  355SOL    HW210675   3.656   3.660   1.692
  356SOL     OW10676   3.930   1.415   2.077
  356SOL    HW110677   3.884   1.468   2.006
  356SOL    HW210678   3.937   1.320   2.047
  357SOL     OW10679   3.029   2.856   0.711
  357SOL    HW110680   2.955   2.924   0.712
  357SOL    HW210681   3.047   2.827   0.805
  358SOL     OW10682   3.146   1.281   0.902
  358SOL    HW110683   3.238   1.306   0.933
  358SOL    HW210684   3.094   1.244   0.980
  359SOL     OW10685   4.139   1.652   1.607
  359SOL    HW110686   4.157   1.739   1.653
  359SOL    HW210687   4.211   1.587   1.631
  360SOL     OW10688   3.343   9.570   1.549
  360SOL    HW110689   3.431   9.542   1.587
  360SOL    HW210690   3.284   9.602   1.623
  361SOL     OW10691   3.381   2.515   0.167
  361SOL    HW110692   3.296   2.536   0.119
  361SOL    HW210693   3.369   2.533   0.265
  362SOL     OW10694   3.448   9.720   0.854
  362SOL    HW110695   3.393   9.652   0.804
  362SOL    HW210696   3.523   9.674   0.901
  363SOL     OW10697   3.975   0.660   1.353
  363SOL    HW110698   3.882   0.624   1.366
  363SOL    HW210699   3.986   0.692   1.259
  364SOL     OW10700   3.715   0.981   0.095
  364SOL    HW110701   3.692   0.951   0.188
  364SOL    HW210702   3.798   1.036   0.098
  365SOL     OW10703   3.269   9.111   0.589
  365SOL    HW110704   3.259   9.101   0.688
  365SOL    HW210705   3.358   9.074   0.561
  366SOL     OW10706   3.833   0.194   0.293
  366SOL    HW110707   3.812   0.202   0.390
  366SOL    HW210708   3.884   0.275   0.263
  367SOL     OW10709   3.660   3.363   1.147
  367SOL    HW110710   3.759   3.378   1.138
  367SOL    HW210711   3.638   3.351   1.244
  368SOL     OW10712   3.798   1.434   1.144
  368SOL    HW110713   3.798   1.533   1.157
  368SOL    HW210714   3.799   1.414   1.046
  369SOL     OW10715   4.350   2.736   1.514
  369SOL    HW110716   4.374   2.642   1.489
  369SOL    HW210717   4.427   2.797   1.493
  370SOL     OW10718   3.499   2.356   1.876
  370SOL    HW110719   3.570   2.349   1.946
  370SOL    HW210720   3.495   2.270   1.825
  371SOL     OW10721   3.867   1.678   1.943
  371SOL    HW110722   3.948   1.729   1.972
  371SOL    HW210723   3.789   1.705   2.000
  372SOL     OW10724   4.030   0.731   1.619
  372SOL    HW110725   4.096   0.806   1.624
  372SOL    HW210726   4.007   0.712   1.523
  373SOL     OW10727   2.866   2.503   2.079
  373SOL    HW110728   2.869   2.413   2.122
  373SOL    HW210729   2.925   2.566   2.129
  374SOL     OW10730   3.121   9.188   0.375
  374SOL    HW110731   3.042   9.242   0.403
  374SOL    HW210732   3.165   9.148   0.456
  375SOL     OW10733   4.176   1.521   2.117
  375SOL    HW110734   4.188   1.540   2.214
  375SOL    HW210735   4.086   1.479   2.102
  376SOL     OW10736   3.020   1.405   0.518
  376SOL    HW110737   3.029   1.445   0.609
  376SOL    HW210738   3.004   1.478   0.451
  377SOL     OW10739   3.151   0.611   1.038
  377SOL    HW110740   3.148   0.638   0.942
  377SOL    HW210741   3.157   0.692   1.096
  378SOL     OW10742   3.942   0.241   1.736
  378SOL    HW110743   3.995   0.324   1.721
  378SOL    HW210744   3.846   0.257   1.714
  379SOL     OW10745   3.961   9.660   1.487
  379SOL    HW110746   3.892   9.673   1.557
  379SOL    HW210747   4.011   9.746   1.473
  380SOL     OW10748   3.121   0.113   2.179
  380SOL    HW110749   3.031   0.135   2.141
  380SOL    HW210750   3.183   0.189   2.163
  381SOL     OW10751   3.958   1.888   0.778
  381SOL    HW110752   3.900   1.811   0.803
  381SOL    HW210753   4.039   1.855   0.731
  382SOL     OW10754   3.251   0.069   0.400
  382SOL    HW110755   3.302   0.117   0.471
  382SOL    HW210756   3.293   9.981   0.382
  383SOL     OW10757   2.930   9.511   1.178
  383SOL    HW110758   2.867   9.442   1.143
  383SOL    HW210759   3.021   9.495   1.141
  384SOL     OW10760   2.694   2.666   1.941
  384SOL    HW110761   2.623   2.616   1.892
  384SOL    HW210762   2.747   2.604   1.998
  385SOL     OW10763   3.872   3.457   1.869
  385SOL    HW110764   3.887   3.539   1.923
  385SOL    HW210765   3.782   3.461   1.826
  386SOL     OW10766   3.335   8.916   2.194
  386SOL    HW110767   3.301   8.824   2.171
  386SOL    HW210768   3.283   8.984   2.144
  387SOL     OW10769   3.013   3.675   0.749
  387SOL    HW110770   3.068   3.715   0.676
  387SOL    HW210771   2.947   3.611   0.708
  388SOL     OW10772   4.054   1.133   1.742
  388SOL    HW110773   4.032   1.139   1.839
  388SOL    HW210774   4.006   1.205   1.691
  389SOL     OW10775   3.623   1.204   0.920
  389SOL    HW110776   3.647   1.120   0.873
  389SOL    HW210777   3.691   1.275   0.899
  390SOL     OW10778   4.136   1.013   2.166
  390SOL    HW110779   4.221   1.067   2.162
  390SOL    HW210780   4.120   0.983   2.259
  391SOL     OW10781   3.535   9.053   0.797
  391SOL    HW110782   3.589   9.032   0.879
  391SOL    HW210783   3.438   9.052   0.820
  392SOL     OW10784   3.741   9.661   0.957
  392SOL    HW110785   3.785   9.750   0.954
  392SOL    HW210786   3.723   9.635   1.052
  393SOL     OW10787   3.880   1.335   0.293
  393SOL    HW110788   3.934   1.343   0.377
  393SOL    HW210789   3.810   1.406   0.292
  394SOL     OW10790   3.173   0.329   0.337
  394SOL    HW110791   3.116   0.333   0.255
  394SOL    HW210792   3.205   0.236   0.351
  395SOL     OW10793   3.422   3.759   0.672
  395SOL    HW110794   3.439   3.760   0.771
  395SOL    HW210795   3.509   3.746   0.624
  396SOL     OW10796   3.118   0.457   0.576
  396SOL    HW110797   3.089   0.381   0.635
  396SOL    HW210798   3.139   0.422   0.485
  397SOL     OW10799   3.625   3.916   0.051
  397SOL    HW110800   3.638   3.958   0.140
  397SOL    HW210801   3.644   3.983   2.853
  398SOL     OW10802   3.722   0.585   1.978
  398SOL    HW110803   3.776   0.515   2.023
  398SOL    HW210804   3.667   0.635   2.046
  399SOL     OW10805   3.860   2.498   0.794
  399SOL    HW110806   3.900   2.572   0.849
  399SOL    HW210807   3.810   2.435   0.854
  400SOL     OW10808   3.075   3.307   0.333
  400SOL    HW110809   3.008   3.362   0.283
  400SOL    HW210810   3.161   3.302   0.281
  401SOL     OW10811   3.102   9.351   1.501
  401SOL    HW110812   3.060   9.439   1.482
  401SOL    HW210813   3.178   9.335   1.438
  402SOL     OW10814   3.463   1.534   2.014
  402SOL    HW110815   3.450   1.442   2.049
  402SOL    HW210816   3.511   1.530   1.926
  403SOL     OW10817   4.241   2.810   1.761
  403SOL    HW110818   4.299   2.884   1.795
  403SOL    HW210819   4.271   2.784   1.669
  404SOL     OW10820   3.957   1.313   1.330
  404SOL    HW110821   4.048   1.336   1.295
  404SOL    HW210822   3.887   1.355   1.271
  405SOL     OW10823   3.225   1.232   0.490
  405SOL    HW110824   3.269   1.256   0.403
  405SOL    HW210825   3.144   1.289   0.504
  406SOL     OW10826   3.415   0.915   0.860
  406SOL    HW110827   3.404   0.826   0.816
  406SOL    HW210828   3.371   0.986   0.805
  407SOL     OW10829   3.715   1.983   0.504
  407SOL    HW110830   3.801   1.961   0.458
  407SOL    HW210831   3.733   2.046   0.580
  408SOL     OW10832   3.353   0.343   0.791
  408SOL    HW110833   3.366   0.441   0.778
  408SOL    HW210834   3.403   0.313   0.872
  409SOL     OW10835   3.259   1.986   1.501
  409SOL    HW110836   3.212   1.910   1.546
  409SOL    HW210837   3.303   1.953   1.418
  410SOL     OW10838   4.786   3.401   2.238
  410SOL    HW110839   4.824   3.467   2.174
  410SOL    HW210840   4.783   3.311   2.194
  411SOL     OW10841   3.192   3.731   0.536
  411SOL    HW110842   3.275   3.749   0.588
  411SOL    HW210843   3.187   3.633   0.515
  412SOL     OW10844   3.758   9.680   1.662
  412SOL    HW110845   3.711   9.763   1.692
  412SOL    HW210846   3.692   9.605   1.656
  413SOL     OW10847   3.140   3.472   1.187
  413SOL    HW110848   3.100   3.383   1.163
  413SOL    HW210849   3.148   3.528   1.105
  414SOL     OW10850   3.459   2.613   2.017
  414SOL    HW110851   3.426   2.684   1.956
  414SOL    HW210852   3.483   2.531   1.964
  415SOL     OW10853   2.890   1.948   1.837
  415SOL    HW110854   2.881   2.037   1.792
  415SOL    HW210855   2.912   1.962   1.934
  416SOL     OW10856   3.907   3.031   0.507
  416SOL    HW110857   3.871   3.117   0.469
  416SOL    HW210858   3.879   2.955   0.449
  417SOL     OW10859   4.104   0.993   0.326
  417SOL    HW110860   4.042   1.036   0.260
  417SOL    HW210861   4.144   1.062   0.385
  418SOL     OW10862   4.645   4.013   1.904
  418SOL    HW110863   4.653   4.109   1.878
  418SOL    HW210864   4.663   3.955   1.824
  419SOL     OW10865   3.785   9.452   0.784
  419SOL    HW110866   3.775   9.528   0.848
  419SOL    HW210867   3.782   9.486   0.690
  420SOL     OW10868   3.036   2.684   2.201
  420SOL    HW110869   3.048   2.748   2.126
  420SOL    HW210870   3.014   2.734   2.285
  421SOL     OW10871   4.029   1.357   0.526
  421SOL    HW110872   4.113   1.335   0.476
  421SOL    HW210873   4.008   1.284   0.591
  422SOL     OW10874   4.189   1.772   0.656
  422SOL    HW110875   4.234   1.747   0.741
  422SOL    HW210876   4.258   1.792   0.586
  423SOL     OW10877   2.902   3.100   1.249
  423SOL    HW110878   2.810   3.109   1.286
  423SOL    HW210879   2.959   3.051   1.315
  424SOL     OW10880   3.222   1.170   1.931
  424SOL    HW110881   3.196   1.106   2.003
  424SOL    HW210882   3.140   1.204   1.885
  425SOL     OW10883   4.210   0.532   0.311
  425SOL    HW110884   4.221   0.631   0.307
  425SOL    HW210885   4.279   0.488   0.255
  426SOL     OW10886   3.446   2.029   0.701
  426SOL    HW110887   3.441   2.126   0.677
  426SOL    HW210888   3.444   1.974   0.618
  427SOL     OW10889   3.049   1.444   1.367
  427SOL    HW110890   2.974   1.389   1.330
  427SOL    HW210891   3.114   1.384   1.414
  428SOL     OW10892   3.174   0.826   1.221
  428SOL    HW110893   3.087   0.871   1.240
  428SOL    HW210894   3.215   0.797   1.307
  429SOL     OW10895   2.877   3.485   0.597
  429SOL    HW110896   2.874   3.510   0.500
  429SOL    HW210897   2.909   3.391   0.606
  430SOL     OW10898   3.862   2.952   1.779
  430SOL    HW110899   3.874   3.050   1.763
  430SOL    HW210900   3.827   2.908   1.696
  431SOL     OW10901   3.927   9.060   2.082
  431SOL    HW110902   4.022   9.092   2.081
  431SOL    HW210903   3.919   8.979   2.140
  10.00000  10.00000   2.87400
