chitosan Film  in water:acetic acid 2%
12238
    1CHTO  H203    1   4.926   6.743   2.374
    1CHTO   O82    2   4.924   6.803   2.447
    1CHTO  C123    3   5.049   6.800   2.518
    1CHTO  H227    4   5.044   6.873   2.601
    1CHTO   O77    5   5.054   6.664   2.573
    1CHTO  C118    6   5.169   6.636   2.654
    1CHTO  H222    7   5.176   6.708   2.737
    1CHTO  C125    8   5.150   6.492   2.714
    1CHTO   O84    9   5.038   6.485   2.804
    1CHTO  H205   10   4.959   6.495   2.755
    1CHTO  C114   11   5.295   6.646   2.566
    1CHTO  H218   12   5.286   6.576   2.483
    1CHTO  C116   13   5.306   6.788   2.504
    1CHTO  H220   14   5.324   6.863   2.585
    1CHTO   O79   15   5.422   6.791   2.419
    1CHTO  H201   16   5.436   6.878   2.386
    1CHTO  C120   17   5.174   6.825   2.425
    1CHTO  H224   18   5.170   6.757   2.337
    1CHTO   N21   19   5.176   6.964   2.373
    1CHTO  H211   20   5.116   6.971   2.284
    1CHTO  H212   21   5.278   6.995   2.352
    1CHTO   O75   22   5.407   6.612   2.650
    1CHTO  C112   23   5.489   6.476   2.599
    1CHTO  H216   24   5.469   6.460   2.492
    1CHTO   O73   25   5.443   6.367   2.680
    1CHTO  C113   26   5.497   6.239   2.642
    1CHTO  H217   27   5.474   6.220   2.536
    1CHTO  C124   28   5.428   6.130   2.725
    1CHTO   O83   29   5.288   6.120   2.695
    1CHTO  H204   30   5.250   6.051   2.747
    1CHTO  C109   31   5.650   6.239   2.664
    1CHTO  H213   32   5.668   6.251   2.772
    1CHTO  C110   33   5.716   6.358   2.586
    1CHTO  H214   34   5.708   6.337   2.479
    1CHTO   O78   35   5.856   6.363   2.620
    1CHTO  H200   36   5.900   6.287   2.587
    1CHTO  C111   37   5.645   6.493   2.619
    1CHTO  H215   38   5.663   6.517   2.725
    1CHTO   N19   39   5.696   6.607   2.540
    1CHTO  H207   40   5.646   6.698   2.570
    1CHTO  H208   41   5.680   6.590   2.435
    1CHTO   O74   42   5.706   6.111   2.620
    1CHTO  C115   43   5.803   6.041   2.726
    1CHTO  H219   44   5.803   6.095   2.822
    1CHTO   O76   45   5.755   5.897   2.762
    1CHTO  C122   46   5.742   5.812   2.647
    1CHTO  H226   47   5.651   5.842   2.595
    1CHTO  C126   48   5.715   5.665   2.697
    1CHTO   O85   49   5.822   5.615   2.777
    1CHTO  H206   50   5.803   5.527   2.803
    1CHTO  C121   51   5.866   5.818   2.549
    1CHTO  H225   52   5.899   5.715   2.526
    1CHTO   O81   53   5.825   5.875   2.424
    1CHTO  H202   54   5.799   5.965   2.435
    1CHTO  C119   55   5.987   5.896   2.611
    1CHTO  H223   56   6.016   5.835   2.698
    1CHTO  C117   57   5.948   6.040   2.663
    1CHTO  H221   58   5.944   6.116   2.586
    1CHTO   N20   59   6.050   6.091   2.761
    1CHTO  H209   60   6.147   6.092   2.715
    1CHTO  H210   61   6.051   6.028   2.849
    1CHTO   O80   62   6.122   5.891   2.521
    1CHTO  C103   63   6.233   5.787   2.555
    1CHTO  H190   64   6.228   5.758   2.660
    1CHTO  C101   65   6.233   5.655   2.469
    1CHTO  H188   66   6.233   5.682   2.363
    1CHTO   O68   67   6.104   5.576   2.498
    1CHTO  H168   68   6.103   5.549   2.588
    1CHTO   C99   69   6.364   5.568   2.498
    1CHTO  H186   70   6.361   5.534   2.604
    1CHTO   N17   71   6.377   5.445   2.414
    1CHTO  H174   72   6.287   5.385   2.423
    1CHTO  H175   73   6.464   5.389   2.443
    1CHTO   C97   74   6.491   5.657   2.487
    1CHTO  H184   75   6.507   5.684   2.381
    1CHTO   O64   76   6.479   5.773   2.571
    1CHTO  C104   77   6.371   5.860   2.533
    1CHTO  H191   78   6.380   5.891   2.429
    1CHTO  C108   79   6.383   5.989   2.616
    1CHTO   O71   80   6.504   6.059   2.586
    1CHTO  H171   81   6.507   6.139   2.636
    1CHTO   O62   82   6.609   5.593   2.542
    1CHTO   C91   83   6.727   5.586   2.460
    1CHTO  H178   84   6.698   5.576   2.356
    1CHTO   C92   85   6.800   5.453   2.499
    1CHTO  H179   86   6.804   5.446   2.609
    1CHTO   O66   87   6.716   5.344   2.457
    1CHTO  H166   88   6.637   5.342   2.508
    1CHTO   C93   89   6.945   5.439   2.437
    1CHTO  H180   90   6.933   5.427   2.329
    1CHTO   N16   91   7.018   5.318   2.484
    1CHTO  H172   92   6.961   5.229   2.459
    1CHTO  H173   93   7.116   5.315   2.439
    1CHTO   C94   94   7.026   5.570   2.466
    1CHTO  H181   95   7.038   5.589   2.573
    1CHTO   O61   96   6.955   5.683   2.411
    1CHTO   C95   97   6.828   5.709   2.474
    1CHTO  H182   98   6.844   5.729   2.580
    1CHTO  C106   99   6.771   5.841   2.411
    1CHTO   O69  100   6.745   5.829   2.271
    1CHTO  H169  101   6.675   5.768   2.257
    1CHTO   O63  102   7.169   5.568   2.392
    1CHTO   C96  103   7.281   5.640   2.475
    1CHTO  H183  104   7.234   5.719   2.534
    1CHTO   C98  105   7.392   5.707   2.386
    1CHTO  H185  106   7.346   5.778   2.316
    1CHTO   O67  107   7.478   5.784   2.471
    1CHTO  H167  108   7.432   5.857   2.507
    1CHTO  C102  109   7.479   5.598   2.308
    1CHTO  H189  110   7.575   5.647   2.287
    1CHTO   N18  111   7.425   5.556   2.176
    1CHTO  H176  112   7.496   5.579   2.098
    1CHTO  H177  113   7.331   5.606   2.156
    1CHTO  C105  114   7.507   5.475   2.401
    1CHTO  H192  115   7.440   5.392   2.374
    1CHTO   O65  116   7.485   5.503   2.541
    1CHTO  C100  117   7.347   5.533   2.574
    1CHTO  H187  118   7.291   5.439   2.568
    1CHTO  C107  119   7.344   5.580   2.721
    1CHTO   O70  120   7.210   5.599   2.768
    1CHTO  H170  121   7.212   5.627   2.858
    1CHTO   O57  122   7.661   5.436   2.372
    1CHTO   C85  123   7.686   5.324   2.285
    1CHTO  H157  124   7.593   5.308   2.227
    1CHTO   C83  125   7.703   5.194   2.371
    1CHTO  H155  126   7.611   5.179   2.428
    1CHTO   O56  127   7.808   5.215   2.469
    1CHTO  H135  128   7.814   5.140   2.526
    1CHTO   C81  129   7.725   5.073   2.276
    1CHTO  H153  130   7.640   5.067   2.209
    1CHTO   N14  131   7.724   4.942   2.347
    1CHTO  H141  132   7.729   4.862   2.276
    1CHTO  H142  133   7.808   4.935   2.413
    1CHTO   C79  134   7.855   5.096   2.190
    1CHTO  H151  135   7.861   5.014   2.118
    1CHTO   O52  136   7.841   5.219   2.112
    1CHTO   C86  137   7.813   5.339   2.191
    1CHTO  H158  138   7.906   5.358   2.249
    1CHTO   C90  139   7.799   5.458   2.092
    1CHTO   O60  140   7.796   5.583   2.160
    1CHTO  H138  141   7.789   5.653   2.098
    1CHTO   O50  142   7.977   5.101   2.265
    1CHTO   C73  143   8.105   5.051   2.221
    1CHTO  H145  144   8.114   5.060   2.112
    1CHTO   C74  145   8.120   4.901   2.260
    1CHTO  H146  146   8.035   4.847   2.213
    1CHTO   O54  147   8.239   4.850   2.198
    1CHTO  H133  148   8.248   4.758   2.214
    1CHTO   C75  149   8.118   4.887   2.417
    1CHTO  H147  150   8.021   4.922   2.455
    1CHTO   N13  151   8.129   4.747   2.466
    1CHTO  H139  152   8.133   4.677   2.383
    1CHTO  H140  153   8.218   4.733   2.526
    1CHTO   C76  154   8.230   4.983   2.480
    1CHTO  H148  155   8.328   4.945   2.448
    1CHTO   O49  156   8.215   5.120   2.431
    1CHTO   C77  157   8.219   5.133   2.288
    1CHTO  H149  158   8.315   5.098   2.250
    1CHTO   C88  159   8.213   5.283   2.255
    1CHTO   O58  160   8.236   5.308   2.112
    1CHTO  H136  161   8.165   5.274   2.061
    1CHTO   O51  162   8.219   4.988   2.647
    1CHTO   C78  163   8.126   5.107   2.707
    1CHTO  H150  164   8.057   5.147   2.630
    1CHTO   C80  165   8.215   5.222   2.760
    1CHTO  H152  166   8.287   5.180   2.834
    1CHTO   O55  167   8.291   5.275   2.649
    1CHTO  H134  168   8.354   5.212   2.620
    1CHTO   C84  169   8.129   5.335   2.829
    1CHTO  H156  170   8.066   5.380   2.752
    1CHTO   N15  171   8.213   5.445   0.022
    1CHTO  H143  172   8.281   5.405   0.094
    1CHTO  H144  173   8.268   5.494   2.810
    1CHTO   C87  174   8.036   5.272   0.070
    1CHTO  H159  175   8.095   5.237   0.154
    1CHTO   O53  176   7.955   5.153   0.008
    1CHTO   C82  177   8.040   5.050   2.822
    1CHTO  H154  178   8.105   5.012   0.035
    1CHTO   C89  179   7.952   4.932   2.775
    1CHTO   O59  180   7.857   4.970   2.675
    1CHTO  H137  181   7.793   5.028   2.712
    1CHTO   O45  182   7.927   5.382   0.129
    1CHTO   C67  183   7.822   5.419   0.037
    1CHTO  H124  184   7.827   5.359   2.812
    1CHTO   C65  185   7.684   5.398   0.105
    1CHTO  H122  186   7.688   5.298   0.149
    1CHTO   O44  187   7.581   5.400   0.005
    1CHTO  H102  188   7.499   5.375   0.043
    1CHTO   C63  189   7.668   5.498   0.225
    1CHTO  H120  190   7.750   5.482   0.294
    1CHTO   N11  191   7.550   5.472   0.313
    1CHTO  H108  192   7.459   5.493   0.260
    1CHTO  H109  193   7.555   5.534   0.401
    1CHTO   C61  194   7.681   5.647   0.174
    1CHTO  H118  195   7.693   5.707   0.266
    1CHTO   O40  196   7.801   5.667   0.095
    1CHTO   C68  197   7.842   5.570   2.859
    1CHTO  H125  198   7.950   5.586   2.843
    1CHTO   C72  199   7.773   5.602   2.723
    1CHTO   O48  200   7.821   5.522   2.615
    1CHTO  H105  201   7.909   5.545   2.595
    1CHTO   O38  202   7.568   5.696   0.098
    1CHTO   C55  203   7.521   5.830   0.129
    1CHTO  H112  204   7.594   5.882   0.193
    1CHTO   C56  205   7.377   5.822   0.197
    1CHTO  H113  206   7.315   5.757   0.132
    1CHTO   O42  207   7.389   5.754   0.323
    1CHTO  H100  208   7.304   5.737   0.359
    1CHTO   C57  209   7.312   5.965   0.214
    1CHTO  H114  210   7.370   6.017   0.290
    1CHTO   N10  211   7.171   5.960   0.262
    1CHTO  H106  212   7.169   5.960   0.370
    1CHTO  H107  213   7.121   5.872   0.225
    1CHTO   C58  214   7.321   6.044   0.081
    1CHTO  H115  215   7.254   5.997   0.005
    1CHTO   O37  216   7.456   6.046   0.032
    1CHTO   C59  217   7.511   5.917   2.866
    1CHTO  H116  218   7.449   5.868   2.791
    1CHTO   C70  219   7.650   5.941   2.805
    1CHTO   O46  220   7.645   6.016   2.683
    1CHTO  H103  221   7.625   6.105   2.701
    1CHTO   O39  222   7.280   6.201   0.104
    1CHTO   C60  223   7.238   6.272   2.852
    1CHTO  H117  224   7.260   6.213   2.763
    1CHTO   C62  225   7.084   6.299   2.854
    1CHTO  H119  226   7.035   6.199   2.851
    1CHTO   O43  227   7.048   6.363   0.112
    1CHTO  H101  228   6.955   6.374   0.116
    1CHTO   C66  229   7.042   6.384   2.724
    1CHTO  H123  230   7.073   6.330   2.635
    1CHTO   N12  231   6.895   6.401   2.712
    1CHTO  H110  232   6.871   6.458   2.623
    1CHTO  H111  233   6.847   6.304   2.709
    1CHTO   C69  234   7.117   6.520   2.727
    1CHTO  H126  235   7.091   6.572   2.822
    1CHTO   O41  236   7.269   6.491   2.722
    1CHTO   C64  237   7.318   6.405   2.840
    1CHTO  H121  238   7.305   6.463   0.069
    1CHTO   C71  239   7.470   6.379   2.822
    1CHTO   O47  240   7.497   6.308   2.701
    1CHTO  H104  241   7.589   6.292   2.693
    1CHTO   O34  242   7.080   6.614   2.606
    1CHTO   C49  243   7.062   6.764   2.564
    1CHTO   H91  244   7.059   6.765   2.455
    1CHTO   C47  245   7.183   6.847   2.614
    1CHTO   H89  246   7.174   6.947   2.564
    1CHTO   O33  247   7.304   6.784   2.567
    1CHTO   H70  248   7.378   6.838   2.587
    1CHTO   C45  249   7.177   6.864   2.774
    1CHTO   H87  250   7.172   6.764   2.819
    1CHTO    N8  251   7.295   6.934   2.830
    1CHTO   H75  252   7.353   6.867   0.025
    1CHTO   H76  253   7.357   6.975   2.751
    1CHTO   C43  254   7.038   6.934   2.814
    1CHTO   H85  255   7.035   6.936   0.057
    1CHTO   O29  256   6.927   6.859   2.759
    1CHTO   C50  257   6.929   6.823   2.619
    1CHTO   H92  258   6.853   6.746   2.606
    1CHTO   C54  259   6.878   6.939   2.528
    1CHTO   O36  260   6.740   6.968   2.555
    1CHTO   H72  261   6.712   7.038   2.499
    1CHTO   O27  262   7.031   7.072   2.771
    1CHTO   C37  263   7.003   7.193   2.843
    1CHTO   H79  264   7.009   7.176   0.086
    1CHTO   C38  265   7.108   7.304   2.809
    1CHTO   H80  266   7.115   7.312   2.700
    1CHTO   O31  267   7.234   7.259   2.861
    1CHTO   H68  268   7.303   7.318   2.835
    1CHTO   C39  269   7.068   7.444   0.004
    1CHTO   H81  270   7.075   7.436   0.113
    1CHTO    N7  271   7.162   7.554   2.828
    1CHTO   H73  272   7.206   7.601   0.048
    1CHTO   H74  273   7.111   7.628   2.768
    1CHTO   C40  274   6.918   7.478   2.836
    1CHTO   H82  275   6.907   7.501   2.730
    1CHTO   O26  276   6.833   7.370   0.011
    1CHTO   C41  277   6.860   7.244   2.809
    1CHTO   H83  278   6.851   7.259   2.700
    1CHTO   C52  279   6.749   7.145   2.851
    1CHTO   O35  280   6.746   7.119   0.133
    1CHTO   H71  281   6.721   7.197   0.178
    1CHTO   O28  282   6.867   7.587   0.051
    1CHTO   C42  283   6.798   7.702   2.857
    1CHTO   H84  284   6.820   7.699   2.751
    1CHTO   C44  285   6.847   7.841   0.042
    1CHTO   H86  286   6.830   7.847   0.150
    1CHTO   O32  287   6.989   7.846   0.020
    1CHTO   H69  288   7.025   7.926   0.055
    1CHTO   C48  289   6.771   7.961   2.839
    1CHTO   H90  290   6.799   7.963   2.734
    1CHTO    N9  291   6.813   8.095   0.029
    1CHTO   H77  292   6.762   8.174   2.843
    1CHTO   H78  293   6.792   8.099   0.135
    1CHTO   C51  294   6.615   7.938   2.851
    1CHTO   H93  295   6.591   7.942   0.092
    1CHTO   O30  296   6.583   7.810   2.795
    1CHTO   C46  297   6.642   7.695   0.006
    1CHTO   H88  298   6.615   7.705   0.111
    1CHTO   C53  299   6.582   7.565   2.814
    1CHTO   O72  300   6.440   7.562   2.833
    1CHTO  H199  301   6.406   7.483   2.797
    1CHTO   O22  302   6.536   8.037   2.783
    1CHTO   C31  303   6.495   8.049   2.641
    1CHTO   H59  304   6.435   8.142   2.635
    1CHTO   C29  305   6.610   8.066   2.539
    1CHTO   H57  306   6.670   7.973   2.539
    1CHTO   O21  307   6.696   8.172   2.583
    1CHTO   H37  308   6.651   8.255   2.579
    1CHTO   C27  309   6.554   8.091   2.392
    1CHTO   H55  310   6.504   8.189   2.391
    1CHTO    N5  311   6.662   8.093   2.290
    1CHTO   H43  312   6.621   8.120   2.193
    1CHTO   H44  313   6.710   7.996   2.283
    1CHTO   C25  314   6.445   7.984   2.356
    1CHTO   H53  315   6.493   7.886   2.342
    1CHTO   O17  316   6.345   7.971   2.463
    1CHTO   C32  317   6.401   7.935   2.590
    1CHTO   H60  318   6.459   7.844   2.579
    1CHTO   C36  319   6.285   7.904   2.689
    1CHTO   O25  320   6.201   8.018   2.714
    1CHTO   H40  321   6.249   8.083   2.762
    1CHTO   O15  322   6.368   8.025   2.222
    1CHTO   C19  323   6.322   7.970   2.095
    1CHTO   H47  324   6.222   8.013   2.083
    1CHTO   C20  325   6.410   8.012   1.972
    1CHTO   H48  326   6.514   7.979   1.984
    1CHTO   O19  327   6.409   8.155   1.966
    1CHTO   H35  328   6.457   8.192   2.038
    1CHTO   C21  329   6.354   7.950   1.837
    1CHTO   H49  330   6.259   7.998   1.814
    1CHTO    N4  331   6.442   7.974   1.719
    1CHTO   H41  332   6.530   8.030   1.747
    1CHTO   H42  333   6.388   8.029   1.643
    1CHTO   C22  334   6.325   7.799   1.855
    1CHTO   H50  335   6.420   7.745   1.863
    1CHTO   O14  336   6.245   7.776   1.971
    1CHTO   C23  337   6.304   7.816   2.095
    1CHTO   H51  338   6.401   7.764   2.106
    1CHTO   C34  339   6.212   7.768   2.207
    1CHTO   O23  340   6.202   7.626   2.206
    1CHTO   H38  341   6.146   7.597   2.275
    1CHTO   O16  342   6.241   7.744   1.751
    1CHTO   C24  343   6.308   7.620   1.670
    1CHTO   H52  344   6.416   7.615   1.685
    1CHTO   C26  345   6.278   7.638   1.520
    1CHTO   H54  346   6.167   7.643   1.506
    1CHTO   O20  347   6.333   7.764   1.476
    1CHTO   H36  348   6.286   7.835   1.516
    1CHTO   C30  349   6.333   7.520   1.434
    1CHTO   H58  350   6.443   7.525   1.431
    1CHTO    N6  351   6.289   7.528   1.292
    1CHTO   H45  352   6.332   7.447   1.235
    1CHTO   H46  353   6.181   7.522   1.286
    1CHTO   C33  354   6.298   7.382   1.498
    1CHTO   H61  355   6.192   7.357   1.480
    1CHTO   O18  356   6.321   7.383   1.641
    1CHTO   C28  357   6.250   7.484   1.714
    1CHTO   H56  358   6.143   7.481   1.691
    1CHTO   C35  359   6.269   7.458   1.866
    1CHTO   O24  360   6.216   7.332   1.907
    1CHTO   H39  361   6.229   7.322   2.000
    1CHTO    O9  362   6.374   7.277   1.434
    1CHTO   C13  363   6.342   7.129   1.488
    1CHTO   H26  364   6.235   7.126   1.516
    1CHTO   C11  365   6.437   7.097   1.612
    1CHTO   H24  366   6.396   7.148   1.700
    1CHTO    O8  367   6.569   7.148   1.588
    1CHTO    H3  368   6.622   7.136   1.665
    1CHTO    C9  369   6.434   6.943   1.635
    1CHTO   H22  370   6.327   6.916   1.639
    1CHTO    N2  371   6.486   6.903   1.768
    1CHTO   H10  372   6.592   6.925   1.775
    1CHTO   H11  373   6.432   6.953   1.847
    1CHTO    C7  374   6.500   6.871   1.511
    1CHTO   H20  375   6.447   6.774   1.506
    1CHTO    O4  376   6.479   6.942   1.387
    1CHTO   C14  377   6.358   7.019   1.373
    1CHTO   H27  378   6.273   6.948   1.380
    1CHTO   C18  379   6.356   7.077   1.229
    1CHTO   O13  380   6.232   7.143   1.201
    1CHTO    H7  381   6.225   7.221   1.253
    1CHTO    O2  382   6.661   6.848   1.527
    1CHTO    C1  383   6.708   6.717   1.493
    1CHTO   H14  384   6.626   6.657   1.449
    1CHTO    C2  385   6.765   6.639   1.619
    1CHTO   H15  386   6.828   6.712   1.673
    1CHTO    O6  387   6.655   6.602   1.703
    1CHTO    H1  388   6.614   6.678   1.740
    1CHTO    C3  389   6.851   6.510   1.579
    1CHTO   H16  390   6.781   6.432   1.545
    1CHTO    N1  391   6.926   6.453   1.696
    1CHTO    H8  392   7.033   6.457   1.680
    1CHTO    H9  393   6.901   6.506   1.787
    1CHTO    C4  394   6.944   6.539   1.455
    1CHTO   H17  395   7.025   6.605   1.486
    1CHTO    O1  396   6.869   6.599   1.348
    1CHTO    C5  397   6.817   6.729   1.382
    1CHTO   H18  398   6.898   6.789   1.423
    1CHTO   C16  399   6.765   6.797   1.253
    1CHTO   O11  400   6.661   6.722   1.190
    1CHTO    H5  401   6.633   6.767   1.112
    1CHTO    O3  402   6.999   6.416   1.402
    1CHTO    C6  403   7.092   6.425   1.289
    1CHTO   H19  404   7.076   6.514   1.228
    1CHTO    C8  405   7.240   6.428   1.341
    1CHTO   H21  406   7.253   6.347   1.412
    1CHTO    O7  407   7.258   6.554   1.408
    1CHTO    H2  408   7.343   6.558   1.447
    1CHTO   C12  409   7.343   6.411   1.222
    1CHTO   H25  410   7.333   6.502   1.159
    1CHTO    N3  411   7.485   6.406   1.271
    1CHTO   H12  412   7.491   6.418   1.378
    1CHTO   H13  413   7.544   6.483   1.222
    1CHTO   C15  414   7.303   6.286   1.137
    1CHTO   H28  415   7.315   6.194   1.193
    1CHTO   O10  416   7.382   6.276   1.003
    1CHTO    H4  417   7.362   6.195   0.961
    1CHTO    O5  418   7.167   6.299   1.091
    1CHTO   C10  419   7.069   6.301   1.197
    1CHTO   H23  420   7.077   6.209   1.254
    1CHTO   C17  421   6.932   6.302   1.128
    1CHTO   O12  422   6.823   6.288   1.220
    1CHTO    H6  423   6.816   6.365   1.274
    2CHTO  H203  424   6.280   4.570   2.681
    2CHTO   O82  425   6.294   4.658   2.709
    2CHTO  C123  426   6.180   4.707   2.781
    2CHTO  H227  427   6.202   4.809   2.818
    2CHTO   O77  428   6.075   4.714   2.679
    2CHTO  C118  429   5.954   4.775   2.724
    2CHTO  H222  430   5.975   4.876   2.764
    2CHTO  C125  431   5.856   4.788   2.601
    2CHTO   O84  432   5.910   4.874   2.500
    2CHTO  H205  433   5.986   4.835   2.462
    2CHTO  C114  434   5.891   4.689   2.836
    2CHTO  H218  435   5.862   4.593   2.793
    2CHTO  C116  436   5.991   4.662   0.086
    2CHTO  H220  437   6.004   4.755   0.145
    2CHTO   O79  438   5.932   4.566   0.176
    2CHTO  H201  439   5.987   4.554   0.251
    2CHTO  C120  440   6.132   4.613   0.032
    2CHTO  H224  441   6.117   4.510   2.859
    2CHTO   N21  442   6.233   4.603   0.141
    2CHTO  H211  443   6.284   4.697   0.155
    2CHTO  H212  444   6.187   4.570   0.233
    2CHTO   O75  445   5.774   4.763   0.011
    2CHTO  C112  446   5.649   4.668   0.052
    2CHTO  H216  447   5.687   4.572   0.091
    2CHTO   O73  448   5.569   4.648   2.800
    2CHTO  C113  449   5.457   4.561   2.820
    2CHTO  H217  450   5.494   4.465   2.859
    2CHTO  C124  451   5.392   4.530   2.684
    2CHTO   O83  452   5.341   4.646   2.617
    2CHTO  H204  453   5.302   4.620   2.536
    2CHTO  C109  454   5.358   4.624   0.056
    2CHTO  H213  455   5.324   4.720   0.013
    2CHTO  C110  456   5.434   4.650   0.190
    2CHTO  H214  457   5.463   4.553   0.233
    2CHTO   O78  458   5.343   4.712   0.281
    2CHTO  H200  459   5.382   4.721   0.366
    2CHTO  C111  460   5.561   4.737   0.164
    2CHTO  H215  461   5.529   4.835   0.126
    2CHTO   N19  462   5.642   4.763   0.287
    2CHTO  H207  463   5.741   4.722   0.279
    2CHTO  H208  464   5.593   4.723   0.375
    2CHTO   O74  465   5.242   4.537   0.079
    2CHTO  C115  466   5.103   4.608   0.043
    2CHTO  H219  467   5.108   4.717   0.059
    2CHTO   O76  468   5.066   4.591   2.752
    2CHTO  C122  469   4.994   4.471   2.725
    2CHTO  H226  470   5.056   4.387   2.758
    2CHTO  C126  471   4.981   4.454   2.569
    2CHTO   O85  472   4.920   4.330   2.532
    2CHTO  H206  473   4.831   4.327   2.563
    2CHTO  C121  474   4.854   4.471   2.798
    2CHTO  H225  475   4.776   4.506   2.726
    2CHTO   O81  476   4.821   4.337   2.836
    2CHTO  H202  477   4.733   4.332   0.001
    2CHTO  C119  478   4.853   4.566   0.056
    2CHTO  H223  479   4.856   4.667   0.016
    2CHTO  C117  480   4.988   4.550   0.136
    2CHTO  H221  481   5.018   4.448   0.159
    2CHTO   N20  482   4.984   4.621   0.268
    2CHTO  H209  483   5.078   4.607   0.320
    2CHTO  H210  484   4.965   4.726   0.253
    2CHTO   O80  485   4.711   4.566   0.132
    2CHTO  C103  486   4.606   4.689   0.105
    2CHTO  H190  487   4.640   4.779   0.157
    2CHTO  C101  488   4.573   4.726   2.821
    2CHTO  H188  489   4.541   4.636   2.768
    2CHTO   O68  490   4.699   4.781   2.752
    2CHTO  H168  491   4.681   4.797   2.661
    2CHTO   C99  492   4.455   4.834   2.814
    2CHTO  H186  493   4.491   4.929   2.858
    2CHTO   N17  494   4.411   4.866   2.674
    2CHTO  H174  495   4.338   4.947   2.676
    2CHTO  H175  496   4.496   4.893   2.614
    2CHTO   C97  497   4.335   4.790   0.036
    2CHTO  H184  498   4.280   4.708   2.852
    2CHTO   O64  499   4.377   4.753   0.169
    2CHTO  C104  500   4.471   4.645   0.174
    2CHTO  H191  501   4.433   4.556   0.124
    2CHTO  C108  502   4.493   4.605   0.321
    2CHTO   O71  503   4.372   4.557   0.381
    2CHTO  H171  504   4.312   4.628   0.392
    2CHTO   O62  505   4.247   4.902   0.062
    2CHTO   C91  506   4.107   4.874   0.074
    2CHTO  H178  507   4.095   4.767   0.095
    2CHTO   C92  508   4.037   4.900   2.802
    2CHTO  H179  509   4.098   4.858   2.721
    2CHTO   O66  510   3.913   4.827   2.798
    2CHTO  H166  511   3.856   4.855   0.000
    2CHTO   C93  512   4.005   5.053   2.777
    2CHTO  H180  513   3.938   5.055   2.691
    2CHTO   N16  514   4.122   5.135   2.737
    2CHTO  H172  515   4.105   5.180   2.640
    2CHTO  H173  516   4.212   5.076   2.735
    2CHTO   C94  517   3.930   5.115   0.037
    2CHTO  H181  518   3.984   5.200   0.080
    2CHTO   O61  519   3.913   5.020   0.144
    2CHTO   C95  520   4.035   4.958   0.189
    2CHTO  H182  521   4.103   5.036   0.224
    2CHTO  C106  522   4.003   4.868   0.313
    2CHTO   O69  523   4.121   4.810   0.368
    2CHTO  H169  524   4.099   4.756   0.441
    2CHTO   O63  525   3.787   5.161   2.855
    2CHTO   C96  526   3.785   5.310   2.800
    2CHTO  H183  527   3.886   5.338   2.772
    2CHTO   C98  528   3.734   5.416   0.037
    2CHTO  H185  529   3.636   5.384   0.076
    2CHTO   O67  530   3.823   5.414   0.150
    2CHTO  H167  531   3.909   5.442   0.124
    2CHTO  C102  532   3.723   5.563   2.838
    2CHTO  H189  533   3.827   5.593   2.816
    2CHTO   N18  534   3.669   5.669   0.062
    2CHTO  H176  535   3.742   5.747   0.076
    2CHTO  H177  536   3.642   5.627   0.158
    2CHTO  C105  537   3.646   5.555   2.704
    2CHTO  H192  538   3.540   5.538   2.724
    2CHTO   O65  539   3.693   5.450   2.618
    2CHTO  C100  540   3.695   5.318   2.671
    2CHTO  H187  541   3.592   5.289   2.698
    2CHTO  C107  542   3.743   5.223   2.558
    2CHTO   O70  543   3.872   5.259   2.507
    2CHTO  H170  544   3.937   5.247   2.574
    2CHTO   O57  545   3.668   5.701   2.627
    2CHTO   C85  546   3.660   5.712   2.484
    2CHTO  H157  547   3.588   5.633   2.451
    2CHTO   C83  548   3.797   5.670   2.420
    2CHTO  H155  549   3.808   5.562   2.430
    2CHTO   O56  550   3.906   5.727   2.495
    2CHTO  H135  551   3.905   5.821   2.488
    2CHTO   C81  552   3.798   5.705   2.268
    2CHTO  H153  553   3.712   5.656   2.222
    2CHTO   N14  554   3.916   5.650   2.196
    2CHTO  H141  555   3.885   5.576   2.124
    2CHTO  H142  556   3.970   5.727   2.145
    2CHTO   C79  557   3.780   5.860   2.252
    2CHTO  H151  558   3.783   5.882   2.145
    2CHTO   O52  559   3.646   5.896   2.299
    2CHTO   C86  560   3.615   5.856   2.437
    2CHTO  H158  561   3.663   5.935   2.499
    2CHTO   C90  562   3.463   5.869   2.460
    2CHTO   O60  563   3.415   6.000   2.427
    2CHTO  H138  564   3.447   6.062   2.490
    2CHTO   O50  565   3.880   5.939   2.319
    2CHTO   C73  566   3.951   6.063   2.336
    2CHTO  H145  567   3.880   6.147   2.343
    2CHTO   C74  568   4.047   6.088   2.215
    2CHTO  H146  569   3.984   6.090   2.124
    2CHTO   O54  570   4.102   6.221   2.227
    2CHTO  H133  571   4.156   6.227   2.304
    2CHTO   C75  572   4.155   5.973   2.210
    2CHTO  H147  573   4.103   5.878   2.191
    2CHTO   N13  574   4.252   5.986   2.099
    2CHTO  H139  575   4.321   5.903   2.100
    2CHTO  H140  576   4.309   6.077   2.110
    2CHTO   C76  577   4.227   5.959   2.353
    2CHTO  H148  578   4.290   6.047   2.368
    2CHTO   O49  579   4.130   5.949   2.462
    2CHTO   C77  580   4.036   6.058   2.467
    2CHTO  H149  581   4.090   6.152   2.478
    2CHTO   C88  582   3.948   6.045   2.592
    2CHTO   O58  583   4.029   6.057   2.717
    2CHTO  H136  584   4.063   6.144   2.725
    2CHTO   O51  585   4.312   5.821   2.357
    2CHTO   C78  586   4.387   5.796   2.494
    2CHTO  H150  587   4.342   5.854   2.577
    2CHTO   C80  588   4.536   5.836   2.480
    2CHTO  H152  589   4.579   5.784   2.391
    2CHTO   O55  590   4.539   5.978   2.455
    2CHTO  H134  591   4.627   6.006   2.438
    2CHTO   C84  592   4.620   5.799   2.609
    2CHTO  H156  593   4.586   5.863   2.690
    2CHTO   N15  594   4.767   5.826   2.592
    2CHTO  H143  595   4.783   5.930   2.574
    2CHTO  H144  596   4.805   5.769   2.509
    2CHTO   C87  597   4.594   5.652   2.651
    2CHTO  H159  598   4.639   5.583   2.579
    2CHTO   O53  599   4.441   5.628   2.657
    2CHTO   C82  600   4.377   5.647   2.531
    2CHTO  H154  601   4.423   5.583   2.455
    2CHTO   C89  602   4.230   5.599   2.546
    2CHTO   O59  603   4.165   5.583   2.420
    2CHTO  H137  604   4.152   5.667   2.380
    2CHTO   O45  605   4.663   5.621   2.802
    2CHTO   C67  606   4.580   5.555   0.033
    2CHTO  H124  607   4.477   5.587   0.020
    2CHTO   C65  608   4.587   5.399   0.018
    2CHTO  H122  609   4.681   5.378   2.832
    2CHTO   O44  610   4.478   5.361   2.800
    2CHTO  H102  611   4.485   5.270   2.776
    2CHTO   C63  612   4.602   5.324   0.157
    2CHTO  H120  613   4.703   5.340   0.194
    2CHTO   N11  614   4.596   5.174   0.150
    2CHTO  H108  615   4.693   5.131   0.171
    2CHTO  H109  616   4.525   5.135   0.220
    2CHTO   C61  617   4.507   5.390   0.263
    2CHTO  H118  618   4.532   5.345   0.360
    2CHTO   O40  619   4.531   5.534   0.277
    2CHTO   C68  620   4.617   5.601   0.180
    2CHTO  H125  621   4.723   5.575   0.202
    2CHTO   C72  622   4.602   5.753   0.202
    2CHTO   O48  623   4.694   5.831   0.125
    2CHTO  H105  624   4.681   5.922   0.144
    2CHTO   O38  625   4.367   5.367   0.233
    2CHTO   C55  626   4.270   5.418   0.327
    2CHTO  H112  627   4.310   5.508   0.377
    2CHTO   C56  628   4.226   5.307   0.432
    2CHTO  H113  629   4.191   5.220   0.374
    2CHTO   O42  630   4.340   5.263   0.507
    2CHTO  H100  631   4.402   5.219   0.451
    2CHTO   C57  632   4.112   5.362   0.527
    2CHTO  H114  633   4.158   5.437   0.590
    2CHTO   N10  634   4.055   5.259   0.617
    2CHTO  H106  635   3.972   5.207   0.569
    2CHTO  H107  636   4.020   5.305   0.708
    2CHTO   C58  637   4.000   5.430   0.443
    2CHTO  H115  638   3.942   5.352   0.388
    2CHTO   O37  639   4.054   5.525   0.349
    2CHTO   C59  640   4.143   5.468   0.252
    2CHTO  H116  641   4.093   5.385   0.200
    2CHTO   C70  642   4.173   5.578   0.150
    2CHTO   O46  643   4.232   5.528   0.030
    2CHTO  H103  644   4.169   5.478   2.848
    2CHTO   O39  645   3.902   5.516   0.540
    2CHTO   C60  646   3.780   5.556   0.475
    2CHTO  H117  647   3.799   5.570   0.369
    2CHTO   C62  648   3.669   5.449   0.491
    2CHTO  H119  649   3.709   5.356   0.444
    2CHTO   O43  650   3.646   5.423   0.631
    2CHTO  H101  651   3.583   5.354   0.641
    2CHTO   C66  652   3.538   5.497   0.411
    2CHTO  H123  653   3.566   5.514   0.307
    2CHTO   N12  654   3.432   5.393   0.409
    2CHTO  H110  655   3.347   5.429   0.354
    2CHTO  H111  656   3.471   5.302   0.365
    2CHTO   C69  657   3.489   5.633   0.469
    2CHTO  H126  658   3.458   5.620   0.575
    2CHTO   O41  659   3.606   5.738   0.461
    2CHTO   C64  660   3.733   5.694   0.530
    2CHTO  H121  661   3.713   5.684   0.639
    2CHTO   C71  662   3.841   5.803   0.513
    2CHTO   O47  663   3.875   5.824   0.376
    2CHTO  H104  664   3.941   5.891   0.369
    2CHTO   O34  665   3.371   5.688   0.390
    2CHTO   C49  666   3.248   5.770   0.421
    2CHTO   H91  667   3.179   5.704   0.475
    2CHTO   C47  668   3.185   5.812   0.287
    2CHTO   H89  669   3.087   5.859   0.311
    2CHTO   O33  670   3.160   5.694   0.207
    2CHTO   H70  671   3.241   5.654   0.182
    2CHTO   C45  672   3.281   5.920   0.216
    2CHTO   H87  673   3.382   5.877   0.208
    2CHTO    N8  674   3.236   5.958   0.079
    2CHTO   H75  675   3.140   6.007   0.084
    2CHTO   H76  676   3.308   6.024   0.033
    2CHTO   C43  677   3.295   6.047   0.313
    2CHTO   H85  678   3.362   6.117   0.264
    2CHTO   O29  679   3.346   6.005   0.442
    2CHTO   C50  680   3.280   5.895   0.508
    2CHTO   H92  681   3.349   5.861   0.588
    2CHTO   C54  682   3.156   5.943   0.589
    2CHTO   O36  683   3.193   6.037   0.691
    2CHTO   H72  684   3.239   5.992   0.760
    2CHTO   O27  685   3.170   6.116   0.328
    2CHTO   C37  686   3.074   6.222   0.326
    2CHTO   H79  687   3.079   6.276   0.230
    2CHTO   C38  688   2.930   6.164   0.339
    2CHTO   H80  689   2.927   6.098   0.427
    2CHTO   O31  690   2.904   6.084   0.222
    2CHTO   H68  691   2.958   6.007   0.222
    2CHTO   C39  692   2.822   6.277   0.356
    2CHTO   H81  693   2.816   6.331   0.261
    2CHTO    N7  694   2.684   6.224   0.383
    2CHTO   H73  695   2.613   6.306   0.392
    2CHTO   H74  696   2.653   6.158   0.304
    2CHTO   C40  697   2.866   6.382   0.466
    2CHTO   H82  698   2.859   6.336   0.565
    2CHTO   O26  699   3.000   6.427   0.438
    2CHTO   C41  700   3.100   6.322   0.441
    2CHTO   H83  701   3.096   6.269   0.538
    2CHTO   C52  702   3.240   6.388   0.430
    2CHTO   O35  703   3.270   6.477   0.546
    2CHTO   H71  704   3.275   6.426   0.624
    2CHTO   O28  705   2.782   6.499   0.464
    2CHTO   C42  706   2.798   6.613   0.555
    2CHTO   H84  707   2.709   6.673   0.536
    2CHTO   C44  708   2.919   6.708   0.527
    2CHTO   H86  709   3.012   6.651   0.540
    2CHTO   O32  710   2.909   6.748   0.389
    2CHTO   H69  711   2.984   6.798   0.364
    2CHTO   C48  712   2.924   6.831   0.626
    2CHTO   H90  713   2.836   6.892   0.607
    2CHTO    N9  714   3.043   6.920   0.603
    2CHTO   H77  715   3.104   6.884   0.521
    2CHTO   H78  716   3.011   7.021   0.582
    2CHTO   C51  717   2.917   6.778   0.775
    2CHTO   H93  718   3.006   6.719   0.794
    2CHTO   O30  719   2.797   6.701   0.791
    2CHTO   C46  720   2.795   6.575   0.706
    2CHTO   H88  721   2.884   6.516   0.730
    2CHTO   C53  722   2.668   6.494   0.744
    2CHTO   O72  723   2.547   6.568   0.722
    2CHTO  H199  724   2.533   6.578   0.629
    2CHTO   O22  725   2.906   6.886   0.870
    2CHTO   C31  726   2.932   6.869   1.015
    2CHTO   H59  727   2.922   6.971   1.059
    2CHTO   C29  728   2.832   6.778   1.088
    2CHTO   H57  729   2.836   6.679   1.041
    2CHTO   O21  730   2.700   6.831   1.065
    2CHTO   H37  731   2.635   6.772   1.098
    2CHTO   C27  732   2.865   6.763   1.242
    2CHTO   H55  733   2.851   6.861   1.291
    2CHTO    N5  734   2.777   6.664   1.310
    2CHTO   H43  735   2.793   6.566   1.268
    2CHTO   H44  736   2.795   6.664   1.416
    2CHTO   C25  737   3.017   6.725   1.260
    2CHTO   H53  738   3.034   6.625   1.217
    2CHTO   O17  739   3.102   6.820   1.188
    2CHTO   C32  740   3.078   6.823   1.047
    2CHTO   H60  741   3.093   6.723   1.006
    2CHTO   C36  742   3.184   6.916   0.981
    2CHTO   O25  743   3.177   7.051   1.028
    2CHTO   H40  744   3.099   7.092   0.996
    2CHTO   O15  745   3.061   6.723   1.412
    2CHTO   C19  746   3.127   6.759   1.537
    2CHTO   H47  747   3.157   6.662   1.579
    2CHTO   C20  748   3.255   6.846   1.518
    2CHTO   H48  749   3.231   6.943   1.472
    2CHTO   O19  750   3.343   6.775   1.429
    2CHTO   H35  751   3.307   6.774   1.342
    2CHTO   C21  752   3.327   6.873   1.657
    2CHTO   H49  753   3.372   6.780   1.691
    2CHTO    N4  754   3.439   6.971   1.644
    2CHTO   H41  755   3.486   6.986   1.740
    2CHTO   H42  756   3.512   6.933   1.574
    2CHTO   C22  757   3.225   6.916   1.767
    2CHTO   H50  758   3.198   7.021   1.754
    2CHTO   O14  759   3.107   6.835   1.767
    2CHTO   C23  760   3.036   6.826   1.642
    2CHTO   H51  761   3.007   6.928   1.612
    2CHTO   C34  762   2.908   6.745   1.666
    2CHTO   O23  763   2.817   6.814   1.753
    2CHTO   H38  764   2.854   6.819   1.840
    2CHTO   O16  765   3.279   6.891   1.899
    2CHTO   C24  766   3.283   7.019   2.003
    2CHTO   H52  767   3.256   7.113   1.953
    2CHTO   C26  768   3.425   7.030   2.061
    2CHTO   H54  769   3.452   6.933   2.108
    2CHTO   O20  770   3.516   7.053   1.951
    2CHTO   H36  771   3.605   7.051   1.983
    2CHTO   C30  772   3.433   7.143   2.169
    2CHTO   H58  773   3.418   7.241   2.122
    2CHTO    N6  774   3.568   7.148   2.231
    2CHTO   H45  775   3.573   7.228   2.303
    2CHTO   H46  776   3.589   7.055   2.282
    2CHTO   C33  777   3.320   7.127   2.275
    2CHTO   H61  778   3.340   7.037   2.336
    2CHTO   O18  779   3.193   7.110   2.210
    2CHTO   C28  780   3.182   6.999   2.119
    2CHTO   H56  781   3.205   6.906   2.170
    2CHTO   C35  782   3.037   6.992   2.065
    2CHTO   O24  783   2.941   6.967   2.168
    2CHTO   H39  784   2.933   7.041   2.224
    2CHTO    O9  785   3.319   7.238   2.367
    2CHTO   C13  786   3.276   7.202   2.523
    2CHTO   H26  787   3.273   7.091   2.534
    2CHTO   C11  788   3.135   7.268   2.554
    2CHTO   H24  789   3.060   7.214   2.495
    2CHTO    O8  790   3.135   7.405   2.511
    2CHTO    H3  791   3.050   7.443   2.523
    2CHTO    C9  792   3.106   7.250   2.706
    2CHTO   H22  793   3.116   7.142   2.725
    2CHTO    N2  794   2.964   7.280   2.740
    2CHTO   H10  795   2.959   7.349   2.823
    2CHTO   H11  796   2.911   7.189   2.764
    2CHTO    C7  797   3.216   7.325   2.792
    2CHTO   H20  798   3.241   7.251   0.006
    2CHTO    O4  799   3.335   7.355   2.717
    2CHTO   C14  800   3.385   7.252   2.630
    2CHTO   H27  801   3.416   7.165   2.693
    2CHTO   C18  802   3.514   7.306   2.563
    2CHTO   O13  803   3.615   7.340   2.659
    2CHTO    H7  804   3.647   7.262   2.701
    2CHTO    O2  805   3.166   7.463   2.862
    2CHTO    C1  806   3.237   7.500   0.116
    2CHTO   H14  807   3.333   7.445   0.121
    2CHTO    C2  808   3.154   7.469   0.248
    2CHTO   H15  809   3.052   7.506   0.229
    2CHTO    O6  810   3.149   7.326   0.266
    2CHTO    H1  811   3.096   7.286   0.200
    2CHTO    C3  812   3.216   7.542   0.377
    2CHTO   H16  813   3.313   7.497   0.402
    2CHTO    N1  814   3.127   7.526   0.497
    2CHTO    H8  815   3.172   7.575   0.583
    2CHTO    H9  816   3.030   7.570   0.477
    2CHTO    C4  817   3.246   7.693   0.342
    2CHTO   H17  818   3.152   7.744   0.320
    2CHTO    O1  819   3.333   7.698   0.228
    2CHTO    C5  820   3.272   7.651   0.107
    2CHTO   H18  821   3.180   7.707   0.088
    2CHTO   C16  822   3.371   7.678   2.856
    2CHTO   O11  823   3.394   7.818   2.837
    2CHTO    H5  824   3.316   7.859   2.803
    2CHTO    O3  825   3.320   7.764   0.445
    2CHTO    C6  826   3.249   7.872   0.514
    2CHTO   H19  827   3.140   7.863   0.507
    2CHTO    C8  828   3.287   7.871   0.666
    2CHTO   H21  829   3.396   7.875   0.674
    2CHTO    O7  830   3.239   7.747   0.721
    2CHTO    H2  831   3.267   7.738   0.810
    2CHTO   C12  832   3.225   7.996   0.742
    2CHTO   H25  833   3.115   7.981   0.741
    2CHTO    N3  834   3.268   8.000   0.886
    2CHTO   H12  835   3.233   7.912   0.937
    2CHTO   H13  836   3.375   8.008   0.893
    2CHTO   C15  837   3.259   8.128   0.664
    2CHTO   H28  838   3.365   8.153   0.670
    2CHTO   O10  839   3.174   8.249   0.713
    2CHTO    H4  840   3.203   8.328   0.670
    2CHTO    O5  841   3.219   8.117   0.526
    2CHTO   C10  842   3.286   8.012   0.455
    2CHTO   H23  843   3.393   8.027   0.465
    2CHTO   C17  844   3.253   8.028   0.305
    2CHTO   O12  845   3.113   8.015   0.278
    2CHTO    H6  846   3.066   8.088   0.314
    3CHTO  H203  847   7.556   1.849   1.889
    3CHTO   O82  848   7.549   1.797   1.811
    3CHTO  C123  849   7.506   1.664   1.843
    3CHTO  H227  850   7.566   1.627   1.928
    3CHTO   O77  851   7.367   1.681   1.883
    3CHTO  C118  852   7.306   1.562   1.933
    3CHTO  H222  853   7.363   1.523   2.019
    3CHTO  C125  854   7.161   1.599   1.982
    3CHTO   O84  855   7.165   1.688   2.095
    3CHTO  H205  856   7.197   1.771   2.068
    3CHTO  C114  857   7.300   1.455   1.822
    3CHTO  H218  858   7.234   1.491   1.743
    3CHTO  C116  859   7.440   1.429   1.758
    3CHTO  H220  860   7.502   1.372   1.831
    3CHTO   O79  861   7.423   1.343   1.644
    3CHTO  H201  862   7.372   1.386   1.578
    3CHTO  C120  863   7.513   1.565   1.720
    3CHTO  H224  864   7.458   1.608   1.635
    3CHTO   N21  865   7.653   1.542   1.674
    3CHTO  H211  866   7.715   1.628   1.695
    3CHTO  H212  867   7.694   1.454   1.721
    3CHTO   O75  868   7.245   1.339   1.886
    3CHTO  C112  869   7.129   1.264   1.803
    3CHTO  H216  870   7.170   1.232   1.705
    3CHTO   O73  871   7.021   1.358   1.786
    3CHTO  C113  872   6.908   1.307   1.716
    3CHTO  H217  873   6.940   1.265   1.618
    3CHTO  C124  874   6.812   1.423   1.687
    3CHTO   O83  875   6.869   1.520   1.599
    3CHTO  H204  876   6.939   1.565   1.642
    3CHTO  C109  877   6.842   1.195   1.801
    3CHTO  H213  878   6.813   1.241   1.897
    3CHTO  C110  879   6.947   1.082   1.825
    3CHTO  H214  880   6.967   1.033   1.729
    3CHTO   O78  881   6.890   0.982   1.912
    3CHTO  H200  882   6.819   0.937   1.869
    3CHTO  C111  883   7.079   1.138   1.884
    3CHTO  H215  884   7.059   1.173   1.987
    3CHTO   N19  885   7.188   1.037   1.893
    3CHTO  H207  886   7.276   1.082   1.937
    3CHTO  H208  887   7.156   0.954   1.954
    3CHTO   O74  888   6.723   1.144   1.733
    3CHTO  C115  889   6.606   1.108   1.833
    3CHTO  H219  890   6.638   1.037   1.909
    3CHTO   O76  891   6.556   1.237   1.916
    3CHTO  C122  892   6.471   1.322   1.839
    3CHTO  H226  893   6.528   1.358   1.753
    3CHTO  C126  894   6.440   1.450   1.925
    3CHTO   O85  895   6.366   1.549   1.852
    3CHTO  H206  896   6.280   1.516   1.832
    3CHTO  C121  897   6.339   1.248   1.792
    3CHTO  H225  898   6.254   1.283   1.854
    3CHTO   O81  899   6.312   1.283   1.655
    3CHTO  H202  900   6.293   1.375   1.648
    3CHTO  C119  901   6.351   1.093   1.805
    3CHTO  H223  902   6.350   1.072   1.912
    3CHTO  C117  903   6.489   1.043   1.748
    3CHTO  H221  904   6.509   1.071   1.645
    3CHTO   N20  905   6.500   0.893   1.750
    3CHTO  H209  906   6.494   0.857   1.852
    3CHTO  H210  907   6.592   0.862   1.705
    3CHTO   O80  908   6.221   1.016   1.756
    3CHTO  C103  909   6.085   1.043   1.825
    3CHTO  H190  910   6.099   1.101   1.916
    3CHTO  C101  911   5.979   1.115   1.733
    3CHTO  H188  912   5.986   1.072   1.632
    3CHTO   O68  913   6.015   1.267   1.724
    3CHTO  H168  914   6.100   1.277   1.685
    3CHTO   C99  915   5.829   1.093   1.785
    3CHTO  H186  916   5.818   1.144   1.884
    3CHTO   N17  917   5.725   1.152   1.694
    3CHTO  H174  918   5.671   1.230   1.744
    3CHTO  H175  919   5.658   1.075   1.657
    3CHTO   C97  920   5.807   0.942   1.813
    3CHTO  H184  921   5.821   0.888   1.718
    3CHTO   O64  922   5.901   0.899   1.913
    3CHTO  C104  923   6.037   0.898   1.868
    3CHTO  H191  924   6.049   0.830   1.784
    3CHTO  C108  925   6.126   0.844   1.981
    3CHTO   O71  926   6.095   0.708   2.012
    3CHTO  H171  927   6.123   0.651   1.943
    3CHTO   O62  928   5.678   0.913   1.870
    3CHTO   C91  929   5.615   0.790   1.830
    3CHTO  H178  930   5.646   0.765   1.728
    3CHTO   C92  931   5.461   0.818   1.822
    3CHTO  H179  932   5.428   0.864   1.916
    3CHTO   O66  933   5.439   0.917   1.720
    3CHTO  H166  934   5.476   0.999   1.745
    3CHTO   C93  935   5.377   0.688   1.793
    3CHTO  H180  936   5.399   0.661   1.688
    3CHTO   N16  937   5.230   0.708   1.797
    3CHTO  H172  938   5.185   0.683   1.702
    3CHTO  H173  939   5.205   0.810   1.825
    3CHTO   C94  940   5.421   0.567   1.886
    3CHTO  H181  941   5.340   0.535   1.952
    3CHTO   O61  942   5.529   0.600   1.976
    3CHTO   C95  943   5.647   0.666   1.925
    3CHTO  H182  944   5.703   0.705   2.010
    3CHTO  C106  945   5.741   0.560   1.857
    3CHTO   O69  946   5.864   0.617   1.812
    3CHTO  H169  947   5.918   0.551   1.773
    3CHTO   O63  948   5.465   0.443   1.790
    3CHTO   C96  949   5.375   0.313   1.798
    3CHTO  H183  950   5.420   0.240   1.731
    3CHTO   C98  951   5.227   0.332   1.753
    3CHTO  H185  952   5.182   0.416   1.808
    3CHTO   O67  953   5.229   0.373   1.615
    3CHTO  H167  954   5.267   0.459   1.606
    3CHTO  C102  955   5.139   0.199   1.772
    3CHTO  H189  956   5.177   0.127   1.698
    3CHTO   N18  957   4.994   0.216   1.742
    3CHTO  H176  958   4.943   0.121   1.755
    3CHTO  H177  959   4.982   0.250   1.641
    3CHTO  C105  960   5.164   0.141   1.914
    3CHTO  H192  961   5.119   0.208   1.988
    3CHTO   O65  962   5.303   0.128   1.945
    3CHTO  C100  963   5.377   0.251   1.943
    3CHTO  H187  964   5.329   0.321   2.012
    3CHTO  C107  965   5.521   0.225   1.996
    3CHTO   O70  966   5.591   0.128   1.917
    3CHTO  H170  967   5.676   0.113   1.954
    3CHTO   O57  968   5.090   9.990   1.919
    3CHTO   C85  969   5.050   9.927   2.042
    3CHTO  H157  970   5.030   9.822   2.013
    3CHTO   C83  971   4.911   9.983   2.089
    3CHTO  H155  972   4.836   9.954   2.014
    3CHTO   O56  973   4.912   0.127   2.092
    3CHTO  H135  974   4.926   0.161   2.006
    3CHTO   C81  975   4.873   9.918   2.225
    3CHTO  H153  976   4.873   9.810   2.212
    3CHTO   N14  977   4.734   9.949   2.268
    3CHTO  H141  978   4.724   0.053   2.289
    3CHTO  H142  979   4.710   9.893   2.356
    3CHTO   C79  980   4.981   9.955   2.333
    3CHTO  H151  981   4.952   9.907   2.426
    3CHTO   O52  982   5.109   9.898   2.294
    3CHTO   C86  983   5.156   9.937   2.160
    3CHTO  H158  984   5.192   0.041   2.173
    3CHTO   C90  985   5.282   9.853   2.125
    3CHTO   O60  986   5.391   9.884   2.212
    3CHTO  H138  987   5.466   9.833   2.189
    3CHTO   O50  988   4.996   0.097   2.356
    3CHTO   C73  989   5.045   0.179   2.463
    3CHTO  H145  990   5.127   0.128   2.516
    3CHTO   C74  991   4.930   0.208   2.565
    3CHTO  H146  992   4.894   0.111   2.602
    3CHTO   O54  993   4.986   0.277   2.679
    3CHTO  H133  994   5.020   0.361   2.654
    3CHTO   C75  995   4.816   0.289   2.491
    3CHTO  H147  996   4.776   0.227   2.410
    3CHTO   N13  997   4.699   0.321   2.577
    3CHTO  H139  998   4.654   0.230   2.612
    3CHTO  H140  999   4.731   0.379   2.663
    3CHTO   C76 1000   4.879   0.421   2.424
    3CHTO  H148 1001   4.910   0.488   2.503
    3CHTO   O49 1002   4.994   0.387   2.340
    3CHTO   C77 1003   5.098   0.314   2.406
    3CHTO  H149 1004   5.139   0.374   2.487
    3CHTO   C88 1005   5.213   0.296   2.305
    3CHTO   O58 1006   5.329   0.227   2.366
    3CHTO  H136 1007   5.396   0.216   2.302
    3CHTO   O51 1008   4.774   0.488   2.323
    3CHTO   C78 1009   4.810   0.639   2.293
    3CHTO  H150 1010   4.913   0.664   2.328
    3CHTO   C80 1011   4.709   0.732   2.363
    3CHTO  H152 1012   4.606   0.705   2.328
    3CHTO   O55 1013   4.716   0.706   2.504
    3CHTO  H134 1014   4.800   0.730   2.539
    3CHTO   C84 1015   4.738   0.884   2.329
    3CHTO  H156 1016   4.834   0.909   2.374
    3CHTO   N15 1017   4.636   0.976   2.390
    3CHTO  H143 1018   4.660   1.078   2.366
    3CHTO  H144 1019   4.635   0.965   2.496
    3CHTO   C87 1020   4.750   0.905   2.176
    3CHTO  H159 1021   4.651   0.898   2.130
    3CHTO   O53 1022   4.845   0.797   2.113
    3CHTO   C82 1023   4.806   0.662   2.141
    3CHTO  H154 1024   4.706   0.644   2.102
    3CHTO   C89 1025   4.902   0.566   2.067
    3CHTO   O59 1026   4.891   0.579   1.925
    3CHTO  H137 1027   4.949   0.519   1.883
    3CHTO   O45 1028   4.811   1.060   2.141
    3CHTO   C67 1029   4.955   1.069   2.133
    3CHTO  H124 1030   4.999   0.980   2.178
    3CHTO   C65 1031   5.002   1.077   1.983
    3CHTO  H122 1032   4.919   1.123   1.928
    3CHTO   O44 1033   5.018   0.942   1.937
    3CHTO  H102 1034   5.095   0.904   1.975
    3CHTO   C63 1035   5.124   1.176   1.961
    3CHTO  H120 1036   5.087   1.279   1.966
    3CHTO   N11 1037   5.186   1.175   1.825
    3CHTO  H108 1038   5.111   1.187   1.750
    3CHTO  H109 1039   5.258   1.254   1.817
    3CHTO   C61 1040   5.224   1.159   2.081
    3CHTO  H118 1041   5.303   1.235   2.067
    3CHTO   O40 1042   5.160   1.188   2.210
    3CHTO   C68 1043   5.014   1.190   2.215
    3CHTO  H125 1044   4.978   1.286   2.172
    3CHTO   C72 1045   4.969   1.188   2.363
    3CHTO   O48 1046   5.015   1.302   2.436
    3CHTO  H105 1047   4.986   1.296   2.525
    3CHTO   O38 1048   5.283   1.027   2.080
    3CHTO   C55 1049   5.367   0.986   2.189
    3CHTO  H112 1050   5.332   1.029   2.284
    3CHTO   C56 1051   5.519   1.022   2.161
    3CHTO  H113 1052   5.543   0.982   2.061
    3CHTO   O42 1053   5.535   1.164   2.152
    3CHTO  H100 1054   5.623   1.185   2.126
    3CHTO   C57 1055   5.615   0.958   2.270
    3CHTO  H114 1056   5.597   1.010   2.364
    3CHTO   N10 1057   5.760   0.974   2.238
    3CHTO  H106 1058   5.776   1.066   2.185
    3CHTO  H107 1059   5.794   0.891   2.178
    3CHTO   C58 1060   5.578   0.808   2.290
    3CHTO  H115 1061   5.603   0.752   2.197
    3CHTO   O37 1062   5.438   0.792   2.317
    3CHTO   C59 1063   5.356   0.832   2.206
    3CHTO  H116 1064   5.388   0.780   2.116
    3CHTO   C70 1065   5.211   0.789   2.233
    3CHTO   O46 1066   5.196   0.647   2.244
    3CHTO  H103 1067   5.211   0.607   2.160
    3CHTO   O39 1068   5.655   0.743   2.416
    3CHTO   C60 1069   5.682   0.604   2.394
    3CHTO  H117 1070   5.601   0.560   2.335
    3CHTO   C62 1071   5.814   0.584   2.314
    3CHTO  H119 1072   5.802   0.640   2.219
    3CHTO   O43 1073   5.924   0.642   2.387
    3CHTO  H101 1074   6.003   0.635   2.337
    3CHTO   C66 1075   5.831   0.428   2.281
    3CHTO  H123 1076   5.743   0.394   2.228
    3CHTO   N12 1077   5.946   0.403   2.190
    3CHTO  H110 1078   6.038   0.437   2.235
    3CHTO  H111 1079   5.951   0.299   2.164
    3CHTO   C69 1080   5.840   0.348   2.414
    3CHTO  H126 1081   5.933   0.375   2.469
    3CHTO   O41 1082   5.713   0.378   2.504
    3CHTO   C64 1083   5.686   0.526   2.528
    3CHTO  H121 1084   5.767   0.569   2.592
    3CHTO   C71 1085   5.553   0.540   2.607
    3CHTO   O47 1086   5.441   0.488   2.535
    3CHTO  H104 1087   5.450   0.395   2.524
    3CHTO   O34 1088   5.842   0.196   2.388
    3CHTO   C49 1089   5.901   0.075   2.323
    3CHTO   H91 1090   5.985   0.112   2.264
    3CHTO   C47 1091   5.797   0.012   2.227
    3CHTO   H89 1092   5.798   0.077   2.136
    3CHTO   O33 1093   5.665   0.015   2.284
    3CHTO   H70 1094   5.601   9.993   2.219
    3CHTO   C45 1095   5.832   9.858   2.190
    3CHTO   H87 1096   5.777   9.793   2.260
    3CHTO    N8 1097   5.788   9.823   2.052
    3CHTO   H75 1098   5.758   9.911   1.998
    3CHTO   H76 1099   5.707   9.753   2.056
    3CHTO   C43 1100   5.986   9.825   2.221
    3CHTO   H85 1101   6.003   9.721   2.193
    3CHTO   O29 1102   6.011   9.848   2.361
    3CHTO   C50 1103   5.956   9.967   2.422
    3CHTO   H92 1104   5.876   9.938   2.491
    3CHTO   C54 1105   6.067   0.023   2.515
    3CHTO   O36 1106   6.025   0.135   2.593
    3CHTO   H72 1107   6.011   0.209   2.538
    3CHTO   O27 1108   6.074   9.905   2.140
    3CHTO   C37 1109   6.190   9.978   2.098
    3CHTO   H79 1110   6.188   0.080   2.140
    3CHTO   C38 1111   6.321   9.910   2.149
    3CHTO   H80 1112   6.317   9.803   2.122
    3CHTO   O31 1113   6.321   9.921   2.293
    3CHTO   H68 1114   6.393   9.874   2.329
    3CHTO   C39 1115   6.449   9.976   2.085
    3CHTO   H81 1116   6.453   0.079   2.119
    3CHTO    N7 1117   6.578   9.910   2.128
    3CHTO   H73 1118   6.589   9.918   2.235
    3CHTO   H74 1119   6.577   9.806   2.099
    3CHTO   C40 1120   6.434   9.978   1.928
    3CHTO   H82 1121   6.436   9.876   1.891
    3CHTO   O26 1122   6.312   0.046   1.892
    3CHTO   C41 1123   6.189   9.987   1.943
    3CHTO   H83 1124   6.177   9.886   1.901
    3CHTO   C52 1125   6.071   0.072   1.890
    3CHTO   O35 1126   6.082   0.217   1.927
    3CHTO   H71 1127   6.157   0.255   1.885
    3CHTO   O28 1128   6.545   0.045   1.862
    3CHTO   C42 1129   6.543   0.180   1.805
    3CHTO   H84 1130   6.648   0.198   1.781
    3CHTO   C44 1131   6.501   0.295   1.904
    3CHTO   H86 1132   6.402   0.273   1.943
    3CHTO   O32 1133   6.594   0.292   2.014
    3CHTO   H69 1134   6.568   0.354   2.080
    3CHTO   C48 1135   6.497   0.437   1.833
    3CHTO   H90 1136   6.599   0.466   1.809
    3CHTO    N9 1137   6.443   0.543   1.925
    3CHTO   H77 1138   6.516   0.622   1.938
    3CHTO   H78 1139   6.350   0.584   1.887
    3CHTO   C51 1140   6.416   0.425   1.699
    3CHTO   H93 1141   6.312   0.399   1.724
    3CHTO   O30 1142   6.477   0.326   1.616
    3CHTO   C46 1143   6.463   0.190   1.671
    3CHTO   H88 1144   6.357   0.170   1.688
    3CHTO   C53 1145   6.517   0.093   1.562
    3CHTO   O72 1146   6.485   9.957   1.593
    3CHTO  H199 1147   6.520   9.901   1.527
    3CHTO   O22 1148   6.419   0.546   1.621
    3CHTO   C31 1149   6.314   0.569   1.520
    3CHTO   H59 1150   6.270   0.468   1.498
    3CHTO   C29 1151   6.198   0.658   1.569
    3CHTO   H57 1152   6.241   0.757   1.595
    3CHTO   O21 1153   6.145   0.602   1.690
    3CHTO   H37 1154   6.085   0.662   1.730
    3CHTO   C27 1155   6.087   0.678   1.457
    3CHTO   H55 1156   6.037   0.582   1.442
    3CHTO    N5 1157   5.985   0.779   1.495
    3CHTO   H43 1158   5.941   0.752   1.590
    3CHTO   H44 1159   5.908   0.783   1.420
    3CHTO   C25 1160   6.154   0.715   1.320
    3CHTO   H53 1161   6.196   0.817   1.326
    3CHTO   O17 1162   6.264   0.624   1.287
    3CHTO   C32 1163   6.369   0.623   1.385
    3CHTO   H60 1164   6.406   0.724   1.400
    3CHTO   C36 1165   6.487   0.538   1.330
    3CHTO   O25 1166   6.449   0.402   1.305
    3CHTO   H40 1167   6.389   0.398   1.232
    3CHTO   O15 1168   6.048   0.708   1.202
    3CHTO   C19 1169   6.041   0.803   1.091
    3CHTO   H47 1170   5.959   0.764   1.029
    3CHTO   C20 1171   6.005   0.948   1.135
    3CHTO   H48 1172   6.076   0.986   1.211
    3CHTO   O19 1173   5.875   0.942   1.197
    3CHTO   H35 1174   5.879   0.896   1.279
    3CHTO   C21 1175   6.004   1.050   1.014
    3CHTO   H49 1176   5.920   1.026   0.949
    3CHTO    N4 1177   5.985   1.191   1.057
    3CHTO   H41 1178   6.071   1.252   1.033
    3CHTO   H42 1179   5.966   1.198   1.164
    3CHTO   C22 1180   6.133   1.030   0.930
    3CHTO   H50 1181   6.219   1.063   0.988
    3CHTO   O14 1182   6.149   0.893   0.891
    3CHTO   C23 1183   6.168   0.802   1.001
    3CHTO   H51 1184   6.257   0.835   1.056
    3CHTO   C34 1185   6.199   0.663   0.944
    3CHTO   O23 1186   6.096   0.613   0.858
    3CHTO   H38 1187   6.094   0.663   0.779
    3CHTO   O16 1188   6.127   1.097   0.802
    3CHTO   C24 1189   6.227   1.222   0.785
    3CHTO   H52 1190   6.259   1.262   0.882
    3CHTO   C26 1191   6.154   1.332   0.706
    3CHTO   H54 1192   6.114   1.287   0.612
    3CHTO   O20 1193   6.041   1.376   0.785
    3CHTO   H36 1194   5.990   1.439   0.737
    3CHTO   C30 1195   6.249   1.450   0.669
    3CHTO   H58 1196   6.277   1.504   0.760
    3CHTO    N6 1197   6.181   1.550   0.582
    3CHTO   H45 1198   6.097   1.593   0.633
    3CHTO   H46 1199   6.146   1.502   0.491
    3CHTO   C33 1200   6.381   1.397   0.606
    3CHTO   H61 1201   6.360   1.354   0.507
    3CHTO   O18 1202   6.438   1.294   0.689
    3CHTO   C28 1203   6.356   1.179   0.709
    3CHTO   H56 1204   6.327   1.135   0.613
    3CHTO   C35 1205   6.440   1.074   0.787
    3CHTO   O24 1206   6.486   1.120   0.915
    3CHTO   H39 1207   6.550   1.187   0.903
    3CHTO    O9 1208   6.476   1.503   0.581
    3CHTO   C13 1209   6.557   1.561   0.714
    3CHTO   H26 1210   6.497   1.538   0.805
    3CHTO   C11 1211   6.575   1.718   0.696
    3CHTO   H24 1212   6.476   1.764   0.704
    3CHTO    O8 1213   6.624   1.746   0.563
    3CHTO    H3 1214   6.710   1.710   0.551
    3CHTO    C9 1215   6.665   1.771   0.810
    3CHTO   H22 1216   6.616   1.741   0.904
    3CHTO    N2 1217   6.672   1.920   0.817
    3CHTO   H10 1218   6.572   1.961   0.826
    3CHTO   H11 1219   6.721   1.959   0.729
    3CHTO    C7 1220   6.806   1.703   0.801
    3CHTO   H20 1221   6.861   1.740   0.890
    3CHTO    O4 1222   6.796   1.559   0.809
    3CHTO   C14 1223   6.696   1.486   0.734
    3CHTO   H27 1224   6.675   1.395   0.794
    3CHTO   C18 1225   6.757   1.438   0.600
    3CHTO   O13 1226   6.865   1.346   0.621
    3CHTO    H7 1227   6.833   1.266   0.656
    3CHTO    O2 1228   6.886   1.746   0.664
    3CHTO    C1 1229   7.017   1.693   0.640
    3CHTO   H14 1230   7.013   1.582   0.641
    3CHTO    C2 1231   7.129   1.740   0.743
    3CHTO   H15 1232   7.117   1.849   0.752
    3CHTO    O6 1233   7.105   1.678   0.870
    3CHTO    H1 1234   7.164   1.712   0.935
    3CHTO    C3 1235   7.278   1.705   0.690
    3CHTO   H16 1236   7.292   1.596   0.696
    3CHTO    N1 1237   7.384   1.767   0.776
    3CHTO    H8 1238   7.482   1.741   0.739
    3CHTO    H9 1239   7.374   1.733   0.878
    3CHTO    C4 1240   7.293   1.743   0.538
    3CHTO   H17 1241   7.290   1.852   0.528
    3CHTO    O1 1242   7.187   1.682   0.463
    3CHTO    C5 1243   7.058   1.734   0.495
    3CHTO   H18 1244   7.059   1.843   0.491
    3CHTO   C16 1245   6.958   1.682   0.389
    3CHTO   O11 1246   6.990   1.732   0.259
    3CHTO    H5 1247   6.930   1.697   0.196
    3CHTO    O3 1248   7.417   1.693   0.483
    3CHTO    C6 1249   7.440   1.716   0.340
    3CHTO   H19 1250   7.347   1.734   0.284
    3CHTO    C8 1251   7.533   1.839   0.315
    3CHTO   H21 1252   7.624   1.825   0.375
    3CHTO    O7 1253   7.462   1.955   0.361
    3CHTO    H2 1254   7.518   2.031   0.356
    3CHTO   C12 1255   7.572   1.849   0.162
    3CHTO   H25 1256   7.478   1.873   0.107
    3CHTO    N3 1257   7.668   1.962   0.137
    3CHTO   H12 1258   7.691   1.968   0.031
    3CHTO   H13 1259   7.758   1.948   0.194
    3CHTO   C15 1260   7.625   1.710   0.111
    3CHTO   H28 1261   7.722   1.685   0.155
    3CHTO   O10 1262   7.637   1.702   2.821
    3CHTO    H4 1263   7.555   1.724   2.781
    3CHTO    O5 1264   7.531   1.605   0.139
    3CHTO   C10 1265   7.504   1.588   0.280
    3CHTO   H23 1266   7.598   1.566   0.331
    3CHTO   C17 1267   7.413   1.465   0.297
    3CHTO   O12 1268   7.480   1.345   0.258
    3CHTO    H6 1269   7.424   1.271   0.273
    4CHTO  H203 1270   5.613   7.086   2.513
    4CHTO   O82 1271   5.629   7.126   2.429
    4CHTO  C123 1272   5.570   7.257   2.426
    4CHTO  H227 1273   5.467   7.251   2.464
    4CHTO   O77 1274   5.653   7.335   2.517
    4CHTO  C118 1275   5.601   7.467   2.543
    4CHTO  H222 1276   5.499   7.458   2.585
    4CHTO  C125 1277   5.693   7.537   2.649
    4CHTO   O84 1278   5.690   7.469   2.774
    4CHTO  H205 1279   5.732   7.385   2.767
    4CHTO  C114 1280   5.596   7.550   2.413
    4CHTO  H218 1281   5.698   7.569   2.381
    4CHTO  C116 1282   5.524   7.475   2.297
    4CHTO  H220 1283   5.414   7.476   2.317
    4CHTO   O79 1284   5.544   7.550   2.176
    4CHTO  H201 1285   5.500   7.632   2.180
    4CHTO  C120 1286   5.574   7.325   2.283
    4CHTO  H224 1287   5.678   7.331   2.247
    4CHTO   N21 1288   5.497   7.249   2.182
    4CHTO  H211 1289   5.409   7.204   2.226
    4CHTO  H212 1290   5.469   7.313   2.099
    4CHTO   O75 1291   5.530   7.672   2.452
    4CHTO  C112 1292   5.602   7.805   2.397
    4CHTO  H216 1293   5.621   7.794   2.289
    4CHTO   O73 1294   5.725   7.820   2.471
    4CHTO  C113 1295   5.807   7.928   2.425
    4CHTO  H217 1296   5.829   7.912   2.318
    4CHTO  C124 1297   5.940   7.923   2.501
    4CHTO   O83 1298   6.012   7.801   2.479
    4CHTO  H204 1299   5.967   7.729   2.519
    4CHTO  C109 1300   5.734   8.063   2.447
    4CHTO  H213 1301   5.723   8.076   2.556
    4CHTO  C110 1302   5.594   8.060   2.379
    4CHTO  H214 1303   5.608   8.061   2.270
    4CHTO   O78 1304   5.524   8.181   2.414
    4CHTO  H200 1305   5.442   8.186   2.369
    4CHTO  C111 1306   5.514   7.933   2.421
    4CHTO  H215 1307   5.493   7.939   2.529
    4CHTO   N19 1308   5.382   7.918   2.353
    4CHTO  H207 1309   5.364   8.000   2.285
    4CHTO  H208 1310   5.303   7.913   2.426
    4CHTO   O74 1311   5.816   8.172   2.394
    4CHTO  C115 1312   5.817   8.301   2.487
    4CHTO  H219 1313   5.729   8.304   2.551
    4CHTO   O76 1314   5.941   8.301   2.587
    4CHTO  C122 1315   6.070   8.304   2.523
    4CHTO  H226 1316   6.094   8.202   2.492
    4CHTO  C126 1317   6.175   8.342   2.633
    4CHTO   O85 1318   6.309   8.347   2.583
    4CHTO  H206 1319   6.367   8.372   2.653
    4CHTO  C121 1320   6.076   8.404   2.399
    4CHTO  H225 1321   6.170   8.462   2.404
    4CHTO   O81 1322   6.080   8.330   2.276
    4CHTO  H202 1323   6.097   8.388   2.204
    4CHTO  C119 1324   5.956   8.504   2.404
    4CHTO  H223 1325   5.960   8.548   2.504
    4CHTO  C117 1326   5.818   8.428   2.391
    4CHTO  H221 1327   5.797   8.389   2.292
    4CHTO   N20 1328   5.704   8.521   2.421
    4CHTO  H209 1329   5.610   8.469   2.409
    4CHTO  H210 1330   5.708   8.606   2.355
    4CHTO   O80 1331   5.978   8.630   2.313
    4CHTO  C103 1332   6.023   8.766   2.380
    4CHTO  H190 1333   5.955   8.793   2.460
    4CHTO  C101 1334   6.171   8.771   2.435
    4CHTO  H188 1335   6.239   8.736   2.357
    4CHTO   O68 1336   6.184   8.676   2.557
    4CHTO  H168 1337   6.130   8.707   2.628
    4CHTO   C99 1338   6.212   8.921   2.475
    4CHTO  H186 1339   6.152   8.952   2.562
    4CHTO   N17 1340   6.356   8.935   2.516
    4CHTO  H174 1341   6.375   9.035   2.552
    4CHTO  H175 1342   6.421   8.910   2.433
    4CHTO   C97 1343   6.176   9.020   2.361
    4CHTO  H184 1344   6.246   9.005   2.276
    4CHTO   O64 1345   6.039   9.004   2.320
    4CHTO  C104 1346   6.007   8.875   2.267
    4CHTO  H191 1347   6.071   8.849   2.183
    4CHTO  C108 1348   5.864   8.878   2.212
    4CHTO   O71 1349   5.853   8.965   2.099
    4CHTO  H171 1350   5.863   9.055   2.127
    4CHTO   O62 1351   6.183   9.157   2.407
    4CHTO   C91 1352   6.187   9.259   2.305
    4CHTO  H178 1353   6.163   9.214   2.208
    4CHTO   C92 1354   6.331   9.316   2.293
    4CHTO  H179 1355   6.359   9.363   2.389
    4CHTO   O66 1356   6.426   9.209   2.274
    4CHTO  H166 1357   6.430   9.154   2.350
    4CHTO   C93 1358   6.343   9.418   2.174
    4CHTO  H180 1359   6.363   9.358   2.084
    4CHTO   N16 1360   6.461   9.509   2.184
    4CHTO  H172 1361   6.552   9.451   2.184
    4CHTO  H173 1362   6.454   9.568   2.274
    4CHTO   C94 1363   6.208   9.498   2.151
    4CHTO  H181 1364   6.226   9.602   2.125
    4CHTO   O61 1365   6.129   9.504   2.272
    4CHTO   C95 1366   6.088   9.379   2.331
    4CHTO  H182 1367   6.081   9.393   2.439
    4CHTO  C106 1368   5.942   9.343   2.284
    4CHTO   O69 1369   5.847   9.443   2.325
    4CHTO  H169 1370   5.838   9.441   2.419
    4CHTO   O63 1371   6.124   9.428   2.035
    4CHTO   C96 1372   6.184   9.438   1.889
    4CHTO  H183 1373   6.288   9.408   1.892
    4CHTO   C98 1374   6.178   9.580   1.825
    4CHTO  H185 1375   6.080   9.626   1.847
    4CHTO   O67 1376   6.274   9.662   1.894
    4CHTO  H167 1377   6.361   9.631   1.879
    4CHTO  C102 1378   6.207   9.583   1.667
    4CHTO  H189 1379   6.314   9.563   1.656
    4CHTO   N18 1380   6.183   9.715   1.602
    4CHTO  H176 1381   6.207   9.709   1.497
    4CHTO  H177 1382   6.244   9.790   1.649
    4CHTO  C105 1383   6.130   9.467   1.598
    4CHTO  H192 1384   6.023   9.489   1.600
    4CHTO   O65 1385   6.153   9.341   1.663
    4CHTO  C100 1386   6.108   9.333   1.799
    4CHTO  H187 1387   6.000   9.355   1.802
    4CHTO  C107 1388   6.130   9.189   1.851
    4CHTO   O70 1389   6.058   9.092   1.775
    4CHTO  H170 1390   6.095   9.086   1.689
    4CHTO   O57 1391   6.184   9.457   1.448
    4CHTO   C85 1392   6.102   9.395   1.348
    4CHTO  H157 1393   5.998   9.427   1.368
    4CHTO   C83 1394   6.102   9.239   1.366
    4CHTO  H155 1395   6.055   9.216   1.461
    4CHTO   O56 1396   6.238   9.191   1.373
    4CHTO  H135 1397   6.280   9.225   1.449
    4CHTO   C81 1398   6.018   9.175   1.252
    4CHTO  H153 1399   5.917   9.216   1.257
    4CHTO   N14 1400   5.998   9.029   1.269
    4CHTO  H141 1401   6.092   8.978   1.260
    4CHTO  H142 1402   5.931   8.992   1.195
    4CHTO   C79 1403   6.078   9.214   1.112
    4CHTO  H151 1404   6.012   9.172   1.036
    4CHTO   O52 1405   6.076   9.359   1.096
    4CHTO   C86 1406   6.147   9.431   1.201
    4CHTO  H158 1407   6.254   9.405   1.185
    4CHTO   C90 1408   6.138   9.584   1.177
    4CHTO   O60 1409   6.004   9.631   1.187
    4CHTO  H138 1410   5.975   9.627   1.276
    4CHTO   O50 1411   6.211   9.164   1.090
    4CHTO   C73 1412   6.278   9.132   0.967
    4CHTO  H145 1413   6.255   9.208   0.891
    4CHTO   C74 1414   6.231   8.992   0.915
    4CHTO  H146 1415   6.122   8.997   0.903
    4CHTO   O54 1416   6.285   8.972   0.783
    4CHTO  H133 1417   6.378   8.968   0.786
    4CHTO   C75 1418   6.274   8.881   1.019
    4CHTO  H147 1419   6.225   8.903   1.115
    4CHTO   N13 1420   6.230   8.745   0.982
    4CHTO  H139 1421   6.260   8.674   1.058
    4CHTO  H140 1422   6.275   8.716   0.888
    4CHTO   C76 1423   6.432   8.891   1.042
    4CHTO  H148 1424   6.480   8.865   0.948
    4CHTO   O49 1425   6.470   9.026   1.083
    4CHTO   C77 1426   6.432   9.129   0.990
    4CHTO  H149 1427   6.482   9.113   0.894
    4CHTO   C88 1428   6.486   9.263   1.043
    4CHTO   O58 1429   6.458   9.375   0.949
    4CHTO  H136 1430   6.509   9.365   0.871
    4CHTO   O51 1431   6.481   8.799   1.166
    4CHTO   C78 1432   6.629   8.730   1.144
    4CHTO  H150 1433   6.667   8.694   1.242
    4CHTO   C80 1434   6.733   8.828   1.084
    4CHTO  H152 1435   6.689   8.875   0.993
    4CHTO   O55 1436   6.756   8.931   1.182
    4CHTO  H134 1437   6.680   8.985   1.191
    4CHTO   C84 1438   6.867   8.755   1.042
    4CHTO  H156 1439   6.915   8.718   1.133
    4CHTO   N15 1440   6.965   8.847   0.975
    4CHTO  H143 1441   6.921   8.890   0.888
    4CHTO  H144 1442   6.992   8.926   1.042
    4CHTO   C87 1443   6.833   8.634   0.952
    4CHTO  H159 1444   6.785   8.668   0.860
    4CHTO   O53 1445   6.737   8.543   1.030
    4CHTO   C82 1446   6.611   8.605   1.056
    4CHTO  H154 1447   6.562   8.631   0.962
    4CHTO   C89 1448   6.519   8.501   1.126
    4CHTO   O59 1449   6.577   8.451   1.248
    4CHTO  H137 1450   6.519   8.388   1.286
    4CHTO   O45 1451   6.973   8.546   0.910
    4CHTO   C67 1452   6.960   8.406   0.878
    4CHTO  H124 1453   7.052   8.375   0.828
    4CHTO   C65 1454   6.944   8.320   1.009
    4CHTO  H122 1455   6.923   8.390   1.090
    4CHTO   O44 1456   7.072   8.259   1.036
    4CHTO  H102 1457   7.071   8.218   1.120
    4CHTO   C63 1458   6.819   8.224   1.004
    4CHTO  H120 1459   6.729   8.285   1.001
    4CHTO   N11 1460   6.795   8.144   1.127
    4CHTO  H108 1461   6.792   8.207   1.213
    4CHTO  H109 1462   6.872   8.071   1.139
    4CHTO   C61 1463   6.823   8.144   0.869
    4CHTO  H118 1464   6.730   8.086   0.863
    4CHTO   O40 1465   6.826   8.231   0.753
    4CHTO   C68 1466   6.843   8.375   0.774
    4CHTO  H125 1467   6.747   8.416   0.812
    4CHTO   C72 1468   6.871   8.442   0.638
    4CHTO   O48 1469   6.760   8.429   0.547
    4CHTO  H105 1470   6.750   8.340   0.522
    4CHTO   O38 1471   6.938   8.057   0.855
    4CHTO   C55 1472   6.920   7.915   0.874
    4CHTO  H112 1473   6.821   7.895   0.918
    4CHTO   C56 1474   7.038   7.859   0.964
    4CHTO  H113 1475   7.132   7.890   0.918
    4CHTO   O42 1476   7.033   7.922   1.093
    4CHTO  H100 1477   7.108   7.897   1.145
    4CHTO   C57 1478   7.031   7.701   0.976
    4CHTO  H114 1479   6.942   7.678   1.036
    4CHTO   N10 1480   7.147   7.644   1.048
    4CHTO  H106 1481   7.228   7.622   0.980
    4CHTO  H107 1482   7.118   7.552   1.098
    4CHTO   C58 1483   7.013   7.637   0.836
    4CHTO  H115 1484   7.108   7.646   0.779
    4CHTO   O37 1485   6.906   7.698   0.763
    4CHTO   C59 1486   6.923   7.839   0.738
    4CHTO  H116 1487   7.018   7.856   0.686
    4CHTO   C70 1488   6.810   7.885   0.645
    4CHTO   O46 1489   6.814   7.821   0.517
    4CHTO  H103 1490   6.742   7.852   0.464
    4CHTO   O39 1491   6.969   7.481   0.850
    4CHTO   C60 1492   7.047   7.388   0.773
    4CHTO  H117 1493   7.090   7.439   0.687
    4CHTO   C62 1494   7.164   7.329   0.858
    4CHTO  H119 1495   7.231   7.415   0.882
    4CHTO   O43 1496   7.112   7.276   0.982
    4CHTO  H101 1497   7.056   7.203   0.965
    4CHTO   C66 1498   7.245   7.221   0.771
    4CHTO  H123 1499   7.278   7.269   0.679
    4CHTO   N12 1500   7.368   7.175   0.841
    4CHTO  H110 1501   7.433   7.259   0.860
    4CHTO  H111 1502   7.419   7.101   0.780
    4CHTO   C69 1503   7.149   7.105   0.734
    4CHTO  H126 1504   7.106   7.061   0.827
    4CHTO   O41 1505   7.034   7.164   0.647
    4CHTO   C64 1506   6.954   7.276   0.718
    4CHTO  H121 1507   6.897   7.232   0.803
    4CHTO   C71 1508   6.851   7.333   0.617
    4CHTO   O47 1509   6.914   7.387   0.499
    4CHTO  H104 1510   6.962   7.464   0.521
    4CHTO   O34 1511   7.221   6.991   0.652
    4CHTO   C49 1512   7.175   6.844   0.642
    4CHTO   H91 1513   7.066   6.845   0.648
    4CHTO   C47 1514   7.233   6.764   0.761
    4CHTO   H89 1515   7.190   6.662   0.755
    4CHTO   O33 1516   7.189   6.826   0.884
    4CHTO   H70 1517   7.220   6.776   0.957
    4CHTO   C45 1518   7.393   6.757   0.746
    4CHTO   H87 1519   7.431   6.860   0.736
    4CHTO    N8 1520   7.461   6.695   0.863
    4CHTO   H75 1521   7.389   6.655   0.933
    4CHTO   H76 1522   7.528   6.616   0.831
    4CHTO   C43 1523   7.429   6.686   0.606
    4CHTO   H85 1524   7.537   6.692   0.595
    4CHTO   O29 1525   7.360   6.751   0.496
    4CHTO   C50 1526   7.219   6.779   0.508
    4CHTO   H92 1527   7.195   6.851   0.428
    4CHTO   C54 1528   7.136   6.654   0.468
    4CHTO   O36 1529   6.995   6.683   0.462
    4CHTO   H72 1530   6.949   6.605   0.439
    4CHTO   O27 1531   7.398   6.545   0.608
    4CHTO   C37 1532   7.423   6.419   0.545
    4CHTO   H79 1533   7.356   6.405   0.459
    4CHTO   C38 1534   7.569   6.410   0.491
    4CHTO   H80 1535   7.638   6.444   0.571
    4CHTO   O31 1536   7.579   6.502   0.381
    4CHTO   H68 1537   7.668   6.510   0.353
    4CHTO   C39 1538   7.608   6.263   0.448
    4CHTO   H81 1539   7.546   6.236   0.363
    4CHTO    N7 1540   7.751   6.251   0.404
    4CHTO   H73 1541   7.817   6.278   0.485
    4CHTO   H74 1542   7.772   6.149   0.373
    4CHTO   C40 1543   7.573   6.164   0.566
    4CHTO   H82 1544   7.636   6.187   0.652
    4CHTO   O26 1545   7.433   6.175   0.596
    4CHTO   C41 1546   7.395   6.306   0.648
    4CHTO   H83 1547   7.453   6.327   0.740
    4CHTO   C52 1548   7.246   6.301   0.688
    4CHTO   O35 1549   7.155   6.267   0.573
    4CHTO   H71 1550   7.158   6.337   0.509
    4CHTO   O28 1551   7.590   6.024   0.531
    4CHTO   C42 1552   7.647   5.929   0.626
    4CHTO   H84 1553   7.664   5.985   0.718
    4CHTO   C44 1554   7.786   5.870   0.586
    4CHTO   H86 1555   7.775   5.817   0.491
    4CHTO   O32 1556   7.876   5.981   0.567
    4CHTO   H69 1557   7.851   6.031   0.492
    4CHTO   C48 1558   7.844   5.768   0.693
    4CHTO   H90 1559   7.872   5.825   0.781
    4CHTO    N9 1560   7.970   5.701   0.645
    4CHTO   H77 1561   8.047   5.775   0.628
    4CHTO   H78 1562   7.950   5.646   0.554
    4CHTO   C51 1563   7.734   5.662   0.736
    4CHTO   H93 1564   7.718   5.595   0.651
    4CHTO   O30 1565   7.614   5.730   0.774
    4CHTO   C46 1566   7.552   5.812   0.662
    4CHTO   H88 1567   7.538   5.748   0.574
    4CHTO   C53 1568   7.415   5.864   0.712
    4CHTO   O72 1569   7.328   5.755   0.744
    4CHTO  H199 1570   7.246   5.788   0.774
    4CHTO   O22 1571   7.777   5.583   0.850
    4CHTO   C31 1572   7.755   5.616   0.993
    4CHTO   H59 1573   7.728   5.724   0.996
    4CHTO   C29 1574   7.639   5.538   1.058
    4CHTO   H57 1575   7.664   5.431   1.054
    4CHTO   O21 1576   7.519   5.556   0.980
    4CHTO   H37 1577   7.530   5.519   0.895
    4CHTO   C27 1578   7.618   5.580   1.210
    4CHTO   H55 1579   7.585   5.685   1.212
    4CHTO    N5 1580   7.517   5.497   1.280
    4CHTO   H43 1581   7.422   5.504   1.228
    4CHTO   H44 1582   7.549   5.394   1.284
    4CHTO   C25 1583   7.756   5.575   1.286
    4CHTO   H53 1584   7.788   5.470   1.296
    4CHTO   O17 1585   7.859   5.647   1.214
    4CHTO   C32 1586   7.884   5.601   1.080
    4CHTO   H60 1587   7.911   5.496   1.084
    4CHTO   C36 1588   8.005   5.679   1.025
    4CHTO   O25 1589   7.984   5.821   1.024
    4CHTO   H40 1590   7.982   5.853   1.112
    4CHTO   O15 1591   7.744   5.641   1.430
    4CHTO   C19 1592   7.685   5.748   1.508
    4CHTO   H47 1593   7.578   5.745   1.480
    4CHTO   C20 1594   7.697   5.726   1.662
    4CHTO   H48 1595   7.803   5.720   1.694
    4CHTO   O19 1596   7.635   5.599   1.690
    4CHTO   H35 1597   7.646   5.577   1.781
    4CHTO   C21 1598   7.628   5.843   1.744
    4CHTO   H49 1599   7.520   5.838   1.726
    4CHTO    N4 1600   7.647   5.828   1.891
    4CHTO   H41 1601   7.702   5.912   1.931
    4CHTO   H42 1602   7.552   5.821   1.940
    4CHTO   C22 1603   7.674   5.981   1.689
    4CHTO   H50 1604   7.779   5.996   1.714
    4CHTO   O14 1605   7.657   5.986   1.546
    4CHTO   C23 1606   7.735   5.891   1.473
    4CHTO   H51 1607   7.841   5.905   1.500
    4CHTO   C34 1608   7.719   5.925   1.324
    4CHTO   O23 1609   7.777   6.053   1.294
    4CHTO   H38 1610   7.768   6.070   1.202
    4CHTO   O16 1611   7.594   6.088   1.746
    4CHTO   C24 1612   7.568   6.227   1.661
    4CHTO   H52 1613   7.569   6.210   1.554
    4CHTO   C26 1614   7.676   6.332   1.697
    4CHTO   H54 1615   7.686   6.336   1.808
    4CHTO   O20 1616   7.801   6.287   1.643
    4CHTO   H36 1617   7.832   6.212   1.689
    4CHTO   C30 1618   7.637   6.475   1.647
    4CHTO   H58 1619   7.639   6.477   1.537
    4CHTO    N6 1620   7.734   6.579   1.693
    4CHTO   H45 1621   7.778   6.629   1.608
    4CHTO   H46 1622   7.813   6.536   1.753
    4CHTO   C33 1623   7.491   6.507   1.690
    4CHTO   H61 1624   7.484   6.507   1.800
    4CHTO   O18 1625   7.404   6.404   1.638
    4CHTO   C28 1626   7.426   6.276   1.698
    4CHTO   H56 1627   7.418   6.282   1.807
    4CHTO   C35 1628   7.321   6.175   1.646
    4CHTO   O24 1629   7.188   6.214   1.681
    4CHTO   H39 1630   7.128   6.150   1.649
    4CHTO    O9 1631   7.446   6.639   1.649
    4CHTO   C13 1632   7.298   6.679   1.705
    4CHTO   H26 1633   7.230   6.592   1.688
    4CHTO   C11 1634   7.246   6.809   1.629
    4CHTO   H24 1635   7.233   6.782   1.523
    4CHTO    O8 1636   7.344   6.914   1.634
    4CHTO    H3 1637   7.357   6.942   1.722
    4CHTO    C9 1638   7.107   6.847   1.687
    4CHTO   H22 1639   7.045   6.757   1.675
    4CHTO    N2 1640   7.035   6.953   1.612
    4CHTO   H10 1641   6.948   6.912   1.562
    4CHTO   H11 1642   7.101   7.001   1.540
    4CHTO    C7 1643   7.120   6.876   1.840
    4CHTO   H20 1644   7.015   6.889   1.876
    4CHTO    O4 1645   7.178   6.764   1.911
    4CHTO   C14 1646   7.299   6.702   1.862
    4CHTO   H27 1647   7.303   6.602   1.911
    4CHTO   C18 1648   7.423   6.781   1.912
    4CHTO   O13 1649   7.431   6.781   2.055
    4CHTO    H7 1650   7.507   6.828   2.082
    4CHTO    O2 1651   7.209   7.012   1.875
    4CHTO    C1 1652   7.132   7.126   1.919
    4CHTO   H14 1653   7.024   7.110   1.898
    4CHTO    C2 1654   7.178   7.260   1.849
    4CHTO   H15 1655   7.286   7.270   1.867
    4CHTO    O6 1656   7.155   7.249   1.707
    4CHTO    H1 1657   7.212   7.185   1.670
    4CHTO    C3 1658   7.100   7.386   1.911
    4CHTO   H16 1659   6.994   7.378   1.883
    4CHTO    N1 1660   7.150   7.517   1.855
    4CHTO    H8 1661   7.190   7.580   1.933
    4CHTO    H9 1662   7.070   7.568   1.804
    4CHTO    C4 1663   7.104   7.381   2.068
    4CHTO   H17 1664   7.206   7.405   2.101
    4CHTO    O1 1665   7.065   7.252   2.118
    4CHTO    C5 1666   7.147   7.143   2.073
    4CHTO   H18 1667   7.251   7.163   2.095
    4CHTO   C16 1668   7.103   7.017   2.152
    4CHTO   O11 1669   7.134   7.030   2.292
    4CHTO    H5 1670   7.108   6.952   2.337
    4CHTO    O3 1671   7.008   7.472   2.125
    4CHTO    C6 1672   7.049   7.536   2.251
    4CHTO   H19 1673   7.139   7.493   2.294
    4CHTO    C8 1674   7.075   7.688   2.226
    4CHTO   H21 1675   6.989   7.729   2.173
    4CHTO    O7 1676   7.192   7.698   2.143
    4CHTO    H2 1677   7.174   7.667   2.057
    4CHTO   C12 1678   7.093   7.767   2.362
    4CHTO   H25 1679   7.189   7.732   2.406
    4CHTO    N3 1680   7.106   7.914   2.338
    4CHTO   H12 1681   7.122   7.965   2.432
    4CHTO   H13 1682   7.017   7.952   2.289
    4CHTO   C15 1683   6.976   7.730   2.461
    4CHTO   H28 1684   6.880   7.770   2.428
    4CHTO   O10 1685   7.004   7.775   2.601
    4CHTO    H4 1686   7.009   7.869   2.603
    4CHTO    O5 1687   6.966   7.587   2.478
    4CHTO   C10 1688   6.936   7.517   2.357
    4CHTO   H23 1689   6.842   7.556   2.317
    4CHTO   C17 1690   6.911   7.369   2.391
    4CHTO   O12 1691   7.027   7.307   2.449
    4CHTO    H6 1692   7.008   7.216   2.467
    5CHTO  H203 1693   7.966   3.323   0.964
    5CHTO   O82 1694   7.984   3.378   1.038
    5CHTO  C123 1695   7.982   3.301   1.159
    5CHTO  H227 1696   8.060   3.223   1.152
    5CHTO   O77 1697   8.018   3.398   1.261
    5CHTO  C118 1698   8.038   3.343   1.392
    5CHTO  H222 1699   8.117   3.266   1.389
    5CHTO  C125 1700   8.088   3.463   1.482
    5CHTO   O84 1701   8.134   3.420   1.610
    5CHTO  H205 1702   8.062   3.388   1.661
    5CHTO  C114 1703   7.905   3.282   1.441
    5CHTO  H218 1704   7.831   3.362   1.449
    5CHTO  C116 1705   7.850   3.177   1.340
    5CHTO  H220 1706   7.917   3.088   1.340
    5CHTO   O79 1707   7.723   3.132   1.388
    5CHTO  H201 1708   7.690   3.062   1.334
    5CHTO  C120 1709   7.842   3.239   1.194
    5CHTO  H224 1710   7.765   3.319   1.198
    5CHTO   N21 1711   7.796   3.139   1.094
    5CHTO  H211 1712   7.829   3.040   1.120
    5CHTO  H212 1713   7.831   3.166   0.995
    5CHTO   O75 1714   7.933   3.226   1.571
    5CHTO  C112 1715   7.817   3.261   1.679
    5CHTO  H216 1716   7.718   3.253   1.630
    5CHTO   O73 1717   7.841   3.394   1.727
    5CHTO  C113 1718   7.736   3.448   1.807
    5CHTO  H217 1719   7.644   3.456   1.745
    5CHTO  C124 1720   7.781   3.591   1.841
    5CHTO   O83 1721   7.685   3.668   1.913
    5CHTO  H204 1722   7.610   3.685   1.858
    5CHTO  C109 1723   7.709   3.361   1.934
    5CHTO  H213 1724   7.790   3.381   2.004
    5CHTO  C110 1725   7.704   3.208   1.900
    5CHTO  H214 1726   7.608   3.186   1.854
    5CHTO   O78 1727   7.708   3.134   2.024
    5CHTO  H200 1728   7.629   3.147   2.073
    5CHTO  C111 1729   7.818   3.165   1.804
    5CHTO  H215 1730   7.915   3.177   1.856
    5CHTO   N19 1731   7.810   3.023   1.761
    5CHTO  H207 1732   7.893   2.999   1.695
    5CHTO  H208 1733   7.813   2.958   1.847
    5CHTO   O74 1734   7.582   3.403   1.993
    5CHTO  C115 1735   7.580   3.415   2.152
    5CHTO  H219 1736   7.672   3.376   2.196
    5CHTO   O76 1737   7.572   3.567   2.200
    5CHTO  C122 1738   7.458   3.637   2.147
    5CHTO  H226 1739   7.481   3.668   2.046
    5CHTO  C126 1740   7.438   3.770   2.229
    5CHTO   O85 1741   7.548   3.859   2.215
    5CHTO  H206 1742   7.532   3.937   2.265
    5CHTO  C121 1743   7.325   3.550   2.147
    5CHTO  H225 1744   7.240   3.614   2.179
    5CHTO   O81 1745   7.295   3.508   2.013
    5CHTO  H202 1746   7.362   3.450   1.981
    5CHTO  C119 1747   7.338   3.430   2.246
    5CHTO  H223 1748   7.366   3.476   2.341
    5CHTO  C117 1749   7.455   3.332   2.204
    5CHTO  H221 1750   7.431   3.264   2.123
    5CHTO   N20 1751   7.492   3.243   2.319
    5CHTO  H209 1752   7.567   3.172   2.288
    5CHTO  H210 1753   7.528   3.302   2.402
    5CHTO   O80 1754   7.197   3.359   2.287
    5CHTO  C103 1755   7.082   3.343   2.180
    5CHTO  H190 1756   7.085   3.424   2.107
    5CHTO  C101 1757   7.080   3.207   2.102
    5CHTO  H188 1758   7.084   3.125   2.174
    5CHTO   O68 1759   7.204   3.200   2.015
    5CHTO  H168 1760   7.209   3.117   1.972
    5CHTO   C99 1761   6.946   3.194   2.016
    5CHTO  H186 1762   6.943   3.275   1.940
    5CHTO   N17 1763   6.934   3.064   1.939
    5CHTO  H174 1764   7.014   2.997   1.965
    5CHTO  H175 1765   6.837   3.018   1.956
    5CHTO   C97 1766   6.823   3.219   2.108
    5CHTO  H184 1767   6.817   3.137   2.181
    5CHTO   O64 1768   6.836   3.347   2.173
    5CHTO  C104 1769   6.948   3.360   2.261
    5CHTO  H191 1770   6.946   3.286   2.341
    5CHTO  C108 1771   6.943   3.497   2.330
    5CHTO   O71 1772   6.825   3.512   2.409
    5CHTO  H171 1773   6.824   3.598   2.447
    5CHTO   O62 1774   6.700   3.232   2.034
    5CHTO   C91 1775   6.579   3.202   2.105
    5CHTO  H178 1776   6.600   3.198   2.212
    5CHTO   C92 1777   6.531   3.058   2.064
    5CHTO  H179 1778   6.532   3.051   1.954
    5CHTO   O66 1779   6.629   2.963   2.110
    5CHTO  H166 1780   6.709   2.973   2.063
    5CHTO   C93 1781   6.388   3.025   2.121
    5CHTO  H180 1782   6.395   3.023   2.231
    5CHTO   N16 1783   6.337   2.891   2.080
    5CHTO  H172 1784   6.239   2.874   2.122
    5CHTO  H173 1785   6.406   2.814   2.113
    5CHTO   C94 1786   6.290   3.141   2.079
    5CHTO  H181 1787   6.290   3.156   1.970
    5CHTO   O61 1788   6.338   3.262   2.138
    5CHTO   C95 1789   6.463   3.307   2.084
    5CHTO  H182 1790   6.451   3.326   1.977
    5CHTO  C106 1791   6.501   3.444   2.150
    5CHTO   O69 1792   6.404   3.546   2.120
    5CHTO  H169 1793   6.324   3.527   2.166
    5CHTO   O63 1794   6.138   3.119   2.132
    5CHTO   C96 1795   6.037   3.103   2.009
    5CHTO  H183 1796   6.091   3.055   1.927
    5CHTO   C98 1797   5.976   3.235   1.955
    5CHTO  H185 1798   5.923   3.288   2.036
    5CHTO   O67 1799   6.084   3.323   1.917
    5CHTO  H167 1800   6.132   3.351   1.993
    5CHTO  C102 1801   5.879   3.209   1.830
    5CHTO  H189 1802   5.945   3.183   1.746
    5CHTO   N18 1803   5.802   3.327   1.784
    5CHTO  H176 1804   5.870   3.406   1.753
    5CHTO  H177 1805   5.739   3.363   1.864
    5CHTO  C105 1806   5.786   3.086   1.854
    5CHTO  H192 1807   5.697   3.117   1.909
    5CHTO   O65 1808   5.847   2.976   1.925
    5CHTO  C100 1809   5.916   3.009   2.046
    5CHTO  H187 1810   5.847   3.062   2.114
    5CHTO  C107 1811   5.959   2.876   2.112
    5CHTO   O70 1812   6.005   2.896   2.246
    5CHTO  H170 1813   6.086   2.943   2.245
    5CHTO   O57 1814   5.747   3.035   1.703
    5CHTO   C85 1815   5.627   2.961   1.674
    5CHTO  H157 1816   5.543   3.024   1.710
    5CHTO   C83 1817   5.620   2.829   1.757
    5CHTO  H155 1818   5.609   2.856   1.863
    5CHTO   O56 1819   5.744   2.757   1.746
    5CHTO  H135 1820   5.745   2.684   1.805
    5CHTO   C81 1821   5.495   2.747   1.713
    5CHTO  H153 1822   5.407   2.811   1.723
    5CHTO   N14 1823   5.464   2.631   1.802
    5CHTO  H141 1824   5.457   2.540   1.746
    5CHTO  H142 1825   5.539   2.620   1.878
    5CHTO   C79 1826   5.510   2.707   1.561
    5CHTO  H151 1827   5.419   2.653   1.533
    5CHTO   O52 1828   5.514   2.829   1.480
    5CHTO   C86 1829   5.615   2.928   1.520
    5CHTO  H158 1830   5.709   2.885   1.483
    5CHTO   C90 1831   5.594   3.058   1.437
    5CHTO   O60 1832   5.464   3.113   1.457
    5CHTO  H138 1833   5.453   3.189   1.403
    5CHTO   O50 1834   5.623   2.623   1.533
    5CHTO   C73 1835   5.657   2.533   1.426
    5CHTO  H145 1836   5.595   2.554   1.338
    5CHTO   C74 1837   5.632   2.385   1.469
    5CHTO  H146 1838   5.527   2.376   1.500
    5CHTO   O54 1839   5.647   2.303   1.351
    5CHTO  H133 1840   5.627   2.213   1.372
    5CHTO   C75 1841   5.731   2.346   1.586
    5CHTO  H147 1842   5.706   2.407   1.674
    5CHTO   N13 1843   5.719   2.205   1.632
    5CHTO  H139 1844   5.618   2.186   1.666
    5CHTO  H140 1845   5.787   2.186   1.713
    5CHTO   C76 1846   5.882   2.381   1.546
    5CHTO  H148 1847   5.914   2.312   1.467
    5CHTO   O49 1848   5.893   2.519   1.498
    5CHTO   C77 1849   5.807   2.550   1.387
    5CHTO  H149 1850   5.830   2.485   1.303
    5CHTO   C88 1851   5.842   2.692   1.342
    5CHTO   O58 1852   5.760   2.735   1.227
    5CHTO  H136 1853   5.784   2.822   1.202
    5CHTO   O51 1854   5.980   2.375   1.677
    5CHTO   C78 1855   6.132   2.407   1.640
    5CHTO  H150 1856   6.138   2.450   1.539
    5CHTO   C80 1857   6.217   2.279   1.644
    5CHTO  H152 1858   6.206   2.231   1.743
    5CHTO   O55 1859   6.162   2.189   1.546
    5CHTO  H134 1860   6.207   2.106   1.550
    5CHTO   C84 1861   6.370   2.311   1.617
    5CHTO  H156 1862   6.378   2.352   1.516
    5CHTO   N15 1863   6.458   2.190   1.621
    5CHTO  H143 1864   6.451   2.143   1.717
    5CHTO  H144 1865   6.428   2.120   1.546
    5CHTO   C87 1866   6.417   2.420   1.716
    5CHTO  H159 1867   6.415   2.381   1.818
    5CHTO   O53 1868   6.323   2.544   1.704
    5CHTO   C82 1869   6.186   2.514   1.736
    5CHTO  H154 1870   6.178   2.481   1.840
    5CHTO   C89 1871   6.103   2.644   1.724
    5CHTO   O59 1872   6.142   2.741   1.822
    5CHTO  H137 1873   6.089   2.818   1.813
    5CHTO   O45 1874   6.566   2.474   1.680
    5CHTO   C67 1875   6.649   2.499   1.795
    5CHTO  H124 1876   6.585   2.522   1.881
    5CHTO   C65 1877   6.737   2.374   1.830
    5CHTO  H122 1878   6.740   2.313   1.739
    5CHTO   O44 1879   6.665   2.300   1.930
    5CHTO  H102 1880   6.670   2.344   2.013
    5CHTO   C63 1881   6.888   2.408   1.860
    5CHTO  H120 1882   6.937   2.432   1.765
    5CHTO   N11 1883   6.972   2.294   1.909
    5CHTO  H108 1884   7.075   2.323   1.912
    5CHTO  H109 1885   6.940   2.265   2.007
    5CHTO   C61 1886   6.896   2.539   1.947
    5CHTO  H118 1887   7.003   2.565   1.953
    5CHTO   O40 1888   6.829   2.652   1.885
    5CHTO   C68 1889   6.737   2.628   1.774
    5CHTO  H125 1890   6.796   2.616   1.681
    5CHTO   C72 1891   6.649   2.753   1.756
    5CHTO   O48 1892   6.726   2.869   1.721
    5CHTO  H105 1893   6.669   2.943   1.712
    5CHTO   O38 1894   6.847   2.515   2.081
    5CHTO   C55 1895   6.800   2.625   2.163
    5CHTO  H112 1896   6.734   2.690   2.103
    5CHTO   C56 1897   6.920   2.706   2.229
    5CHTO  H113 1898   6.985   2.633   2.280
    5CHTO   O42 1899   7.001   2.766   2.126
    5CHTO  H100 1900   6.950   2.827   2.075
    5CHTO   C57 1901   6.863   2.813   2.331
    5CHTO  H114 1902   6.806   2.886   2.273
    5CHTO   N10 1903   6.969   2.888   2.403
    5CHTO  H106 1904   6.998   2.975   2.346
    5CHTO  H107 1905   6.935   2.919   2.500
    5CHTO   C58 1906   6.767   2.742   2.430
    5CHTO  H115 1907   6.825   2.668   2.490
    5CHTO   O37 1908   6.663   2.672   2.360
    5CHTO   C59 1909   6.709   2.567   2.274
    5CHTO  H116 1910   6.764   2.493   2.333
    5CHTO   C70 1911   6.588   2.494   2.215
    5CHTO   O46 1912   6.501   2.578   2.138
    5CHTO  H103 1913   6.458   2.640   2.193
    5CHTO   O39 1914   6.697   2.850   2.534
    5CHTO   C60 1915   6.574   2.911   2.490
    5CHTO  H117 1916   6.570   2.911   2.381
    5CHTO   C62 1917   6.451   2.833   2.545
    5CHTO  H119 1918   6.453   2.732   2.498
    5CHTO   O43 1919   6.467   2.818   2.688
    5CHTO  H101 1920   6.398   2.765   2.722
    5CHTO   C66 1921   6.313   2.908   2.504
    5CHTO  H123 1922   6.306   2.908   2.395
    5CHTO   N12 1923   6.192   2.837   2.552
    5CHTO  H110 1924   6.136   2.898   2.622
    5CHTO  H111 1925   6.216   2.741   2.594
    5CHTO   C69 1926   6.320   3.056   2.550
    5CHTO  H126 1927   6.327   3.061   2.661
    5CHTO   O41 1928   6.445   3.121   2.487
    5CHTO   C64 1929   6.569   3.059   2.536
    5CHTO  H121 1930   6.572   3.063   2.647
    5CHTO   C71 1931   6.690   3.140   2.483
    5CHTO   O47 1932   6.689   3.273   2.536
    5CHTO  H104 1933   6.761   3.322   2.502
    5CHTO   O34 1934   6.193   3.139   2.505
    5CHTO   C49 1935   6.152   3.292   2.498
    5CHTO   H91 1936   6.190   3.329   2.403
    5CHTO   C47 1937   6.216   3.370   2.615
    5CHTO   H89 1938   6.187   3.477   2.601
    5CHTO   O33 1939   6.360   3.361   2.604
    5CHTO   H70 1940   6.400   3.414   2.670
    5CHTO   C45 1941   6.155   3.314   2.752
    5CHTO   H87 1942   6.165   3.204   2.751
    5CHTO    N8 1943   6.225   3.365   0.006
    5CHTO   H75 1944   6.330   3.341   0.000
    5CHTO   H76 1945   6.213   3.472   0.013
    5CHTO   C43 1946   5.996   3.341   2.753
    5CHTO   H85 1947   5.958   3.291   2.843
    5CHTO   O29 1948   5.936   3.288   2.633
    5CHTO   C50 1949   5.998   3.310   2.504
    5CHTO   H92 1950   5.954   3.236   2.435
    5CHTO   C54 1951   5.952   3.446   2.443
    5CHTO   O36 1952   5.992   3.460   2.306
    5CHTO   H72 1953   6.086   3.466   2.301
    5CHTO   O27 1954   5.962   3.480   2.770
    5CHTO   C37 1955   5.856   3.575   2.797
    5CHTO   H79 1956   5.861   3.656   2.723
    5CHTO   C38 1957   5.714   3.511   2.784
    5CHTO   H80 1958   5.709   3.424   2.850
    5CHTO   O31 1959   5.699   3.465   2.648
    5CHTO   H68 1960   5.702   3.537   2.588
    5CHTO   C39 1961   5.599   3.613   2.822
    5CHTO   H81 1962   5.602   3.694   2.749
    5CHTO    N7 1963   5.461   3.554   2.819
    5CHTO   H73 1964   5.464   3.450   2.789
    5CHTO   H74 1965   5.398   3.610   2.751
    5CHTO   C40 1966   5.630   3.677   0.097
    5CHTO   H82 1967   5.620   3.599   0.173
    5CHTO   O26 1968   5.762   3.733   0.095
    5CHTO   C41 1969   5.869   3.637   0.073
    5CHTO   H83 1970   5.863   3.557   0.149
    5CHTO   C52 1971   5.999   3.716   0.097
    5CHTO   O35 1972   6.105   3.638   0.118
    5CHTO   H71 1973   6.181   3.692   0.133
    5CHTO   O28 1974   5.544   3.787   0.132
    5CHTO   C42 1975   5.528   3.846   0.266
    5CHTO   H84 1976   5.462   3.930   0.245
    5CHTO   C44 1977   5.657   3.907   0.334
    5CHTO   H86 1978   5.732   3.924   0.256
    5CHTO   O32 1979   5.626   4.037   0.387
    5CHTO   H69 1980   5.604   4.096   0.317
    5CHTO   C48 1981   5.721   3.819   0.450
    5CHTO   H90 1982   5.675   3.848   0.544
    5CHTO    N9 1983   5.868   3.849   0.467
    5CHTO   H77 1984   5.881   3.953   0.492
    5CHTO   H78 1985   5.909   3.787   0.545
    5CHTO   C51 1986   5.690   3.666   0.428
    5CHTO   H93 1987   5.740   3.636   0.337
    5CHTO   O30 1988   5.548   3.642   0.422
    5CHTO   C46 1989   5.452   3.752   0.365
    5CHTO   H88 1990   5.374   3.700   0.309
    5CHTO   C53 1991   5.387   3.827   0.485
    5CHTO   O72 1992   5.295   3.928   0.443
    5CHTO  H199 1993   5.221   3.889   0.401
    5CHTO   O22 1994   5.736   3.584   0.538
    5CHTO   C31 1995   5.757   3.438   0.521
    5CHTO   H59 1996   5.788   3.400   0.621
    5CHTO   C29 1997   5.631   3.359   0.480
    5CHTO   H57 1998   5.593   3.404   0.386
    5CHTO   O21 1999   5.531   3.383   0.581
    5CHTO   H37 2000   5.448   3.350   0.552
    5CHTO   C27 2001   5.658   3.206   0.455
    5CHTO   H55 2002   5.686   3.159   0.550
    5CHTO    N5 2003   5.539   3.135   0.401
    5CHTO   H43 2004   5.511   3.176   0.305
    5CHTO   H44 2005   5.559   3.029   0.392
    5CHTO   C25 2006   5.781   3.193   0.359
    5CHTO   H53 2007   5.756   3.239   0.262
    5CHTO   O17 2008   5.896   3.263   0.415
    5CHTO   C32 2009   5.877   3.404   0.426
    5CHTO   H60 2010   5.855   3.444   0.327
    5CHTO   C36 2011   6.009   3.468   0.476
    5CHTO   O25 2012   6.114   3.451   0.381
    5CHTO   H40 2013   6.098   3.505   0.306
    5CHTO   O15 2014   5.821   3.044   0.334
    5CHTO   C19 2015   5.929   2.957   0.377
    5CHTO   H47 2016   5.986   3.018   0.449
    5CHTO   C20 2017   5.880   2.827   0.447
    5CHTO   H48 2018   5.814   2.768   0.382
    5CHTO   O19 2019   5.804   2.869   0.562
    5CHTO   H35 2020   5.764   2.794   0.603
    5CHTO   C21 2021   6.002   2.735   0.490
    5CHTO   H49 2022   6.058   2.785   0.569
    5CHTO    N4 2023   5.958   2.604   0.546
    5CHTO   H41 2024   5.901   2.549   0.472
    5CHTO   H42 2025   6.043   2.546   0.576
    5CHTO   C22 2026   6.099   2.717   0.370
    5CHTO   H50 2027   6.050   2.656   0.293
    5CHTO   O14 2028   6.136   2.844   0.315
    5CHTO   C23 2029   6.028   2.922   0.262
    5CHTO   H51 2030   5.979   2.862   0.183
    5CHTO   C34 2031   6.086   3.048   0.197
    5CHTO   O23 2032   6.164   3.017   0.082
    5CHTO   H38 2033   6.109   2.987   0.012
    5CHTO   O16 2034   6.224   2.658   0.410
    5CHTO   C24 2035   6.298   2.570   0.296
    5CHTO   H52 2036   6.239   2.564   0.204
    5CHTO   C26 2037   6.320   2.427   0.351
    5CHTO   H54 2038   6.368   2.435   0.451
    5CHTO   O20 2039   6.190   2.367   0.370
    5CHTO   H36 2040   6.199   2.282   0.409
    5CHTO   C30 2041   6.413   2.343   0.257
    5CHTO   H58 2042   6.365   2.328   0.160
    5CHTO    N6 2043   6.440   2.208   0.313
    5CHTO   H45 2044   6.485   2.216   0.411
    5CHTO   H46 2045   6.348   2.152   0.321
    5CHTO   C33 2046   6.544   2.424   0.231
    5CHTO   H61 2047   6.592   2.446   0.328
    5CHTO   O18 2048   6.506   2.550   0.171
    5CHTO   C28 2049   6.434   2.636   0.259
    5CHTO   H56 2050   6.490   2.655   0.350
    5CHTO   C35 2051   6.415   2.771   0.186
    5CHTO   O24 2052   6.333   2.761   0.068
    5CHTO   H39 2053   6.325   2.845   0.028
    5CHTO    O9 2054   6.645   2.356   0.154
    5CHTO   C13 2055   6.627   2.342   2.856
    5CHTO   H26 2056   6.520   2.323   2.835
    5CHTO   C11 2057   6.718   2.221   2.810
    5CHTO   H24 2058   6.675   2.129   2.851
    5CHTO    O8 2059   6.850   2.235   0.000
    5CHTO    H3 2060   6.847   2.230   0.094
    5CHTO    C9 2061   6.717   2.212   2.655
    5CHTO   H22 2062   6.611   2.204   2.627
    5CHTO    N2 2063   6.780   2.088   2.603
    5CHTO   H10 2064   6.706   2.026   2.554
    5CHTO   H11 2065   6.860   2.112   2.534
    5CHTO    C7 2066   6.774   2.346   2.595
    5CHTO   H20 2067   6.760   2.335   2.486
    5CHTO    O4 2068   6.700   2.461   2.640
    5CHTO   C14 2069   6.664   2.477   2.779
    5CHTO   H27 2070   6.573   2.540   2.778
    5CHTO   C18 2071   6.775   2.559   2.851
    5CHTO   O13 2072   6.776   2.694   2.804
    5CHTO    H7 2073   6.843   2.742   2.848
    5CHTO    O2 2074   6.935   2.368   2.629
    5CHTO    C1 2075   7.013   2.419   2.518
    5CHTO   H14 2076   6.950   2.488   2.458
    5CHTO    C2 2077   7.070   2.306   2.422
    5CHTO   H15 2078   7.118   2.232   2.488
    5CHTO    O6 2079   6.961   2.243   2.352
    5CHTO    H1 2080   6.907   2.195   2.412
    5CHTO    C3 2081   7.177   2.364   2.317
    5CHTO   H16 2082   7.121   2.420   2.240
    5CHTO    N1 2083   7.250   2.253   2.246
    5CHTO    H8 2084   7.236   2.261   2.139
    5CHTO    H9 2085   7.355   2.254   2.270
    5CHTO    C4 2086   7.275   2.468   2.384
    5CHTO   H17 2087   7.347   2.414   2.445
    5CHTO    O1 2088   7.203   2.563   2.463
    5CHTO    C5 2089   7.131   2.504   2.573
    5CHTO   H18 2090   7.196   2.437   2.629
    5CHTO   C16 2091   7.085   2.619   2.666
    5CHTO   O11 2092   7.197   2.686   2.725
    5CHTO    H5 2093   7.239   2.629   2.788
    5CHTO    O3 2094   7.344   2.545   2.284
    5CHTO    C6 2095   7.458   2.624   2.332
    5CHTO   H19 2096   7.458   2.636   2.440
    5CHTO    C8 2097   7.592   2.557   2.290
    5CHTO   H21 2098   7.590   2.541   2.182
    5CHTO    O7 2099   7.601   2.431   2.358
    5CHTO    H2 2100   7.537   2.371   2.324
    5CHTO   C12 2101   7.715   2.652   2.324
    5CHTO   H25 2102   7.719   2.658   2.435
    5CHTO    N3 2103   7.845   2.593   2.279
    5CHTO   H12 2104   7.926   2.660   2.304
    5CHTO   H13 2105   7.860   2.497   2.326
    5CHTO   C15 2106   7.689   2.796   2.267
    5CHTO   H28 2107   7.692   2.798   2.158
    5CHTO   O10 2108   7.788   2.902   2.324
    5CHTO    H4 2109   7.775   2.985   2.281
    5CHTO    O5 2110   7.562   2.847   2.312
    5CHTO   C10 2111   7.450   2.767   2.271
    5CHTO   H23 2112   7.449   2.760   2.162
    5CHTO   C17 2113   7.322   2.840   2.314
    5CHTO   O12 2114   7.304   2.962   2.243
    5CHTO    H6 2115   7.224   3.003   2.270
    6CHTO  H203 2116   6.581   4.849   0.125
    6CHTO   O82 2117   6.592   4.859   0.218
    6CHTO  C123 2118   6.525   4.978   0.264
    6CHTO  H227 2119   6.550   5.061   0.196
    6CHTO   O77 2120   6.383   4.944   0.250
    6CHTO  C118 2121   6.294   5.051   0.285
    6CHTO  H222 2122   6.316   5.140   0.224
    6CHTO  C125 2123   6.147   5.004   0.254
    6CHTO   O84 2124   6.127   4.989   0.113
    6CHTO  H205 2125   6.127   5.073   0.072
    6CHTO  C114 2126   6.310   5.085   0.434
    6CHTO  H218 2127   6.285   4.997   0.493
    6CHTO  C116 2128   6.458   5.124   0.466
    6CHTO  H220 2129   6.481   5.222   0.417
    6CHTO   O79 2130   6.470   5.146   0.608
    6CHTO  H201 2131   6.556   5.177   0.629
    6CHTO  C120 2132   6.558   5.012   0.414
    6CHTO  H224 2133   6.542   4.923   0.478
    6CHTO   N21 2134   6.701   5.053   0.431
    6CHTO  H211 2135   6.712   5.117   0.517
    6CHTO  H212 2136   6.763   4.965   0.441
    6CHTO   O75 2137   6.217   5.192   0.458
    6CHTO  C112 2138   6.138   5.180   0.599
    6CHTO  H216 2139   6.203   5.132   0.674
    6CHTO   O73 2140   6.018   5.103   0.575
    6CHTO  C113 2141   5.931   5.087   0.688
    6CHTO  H217 2142   5.987   5.037   0.771
    6CHTO  C124 2143   5.820   4.991   0.643
    6CHTO   O83 2144   5.735   4.946   0.750
    6CHTO  H204 2145   5.669   4.889   0.715
    6CHTO  C109 2146   5.879   5.226   0.735
    6CHTO  H213 2147   5.828   5.270   0.648
    6CHTO  C110 2148   6.002   5.316   0.770
    6CHTO  H214 2149   6.054   5.272   0.856
    6CHTO   O78 2150   5.954   5.446   0.808
    6CHTO  H200 2151   6.024   5.498   0.841
    6CHTO  C111 2152   6.099   5.325   0.649
    6CHTO  H215 2153   6.048   5.376   0.567
    6CHTO   N19 2154   6.223   5.403   0.678
    6CHTO  H207 2155   6.196   5.505   0.703
    6CHTO  H208 2156   6.277   5.359   0.760
    6CHTO   O74 2157   5.780   5.208   0.842
    6CHTO  C115 2158   5.805   5.259   0.996
    6CHTO  H219 2159   5.901   5.309   1.008
    6CHTO   O76 2160   5.699   5.366   1.039
    6CHTO  C122 2161   5.565   5.318   1.017
    6CHTO  H226 2162   5.548   5.316   0.909
    6CHTO  C126 2163   5.466   5.423   1.074
    6CHTO   O85 2164   5.329   5.391   1.047
    6CHTO  H206 2165   5.273   5.456   1.084
    6CHTO  C121 2166   5.541   5.173   1.080
    6CHTO  H225 2167   5.450   5.175   1.143
    6CHTO   O81 2168   5.519   5.078   0.975
    6CHTO  H202 2169   5.440   5.099   0.929
    6CHTO  C119 2170   5.662   5.130   1.170
    6CHTO  H223 2171   5.668   5.205   1.249
    6CHTO  C117 2172   5.797   5.131   1.089
    6CHTO  H221 2173   5.810   5.047   1.021
    6CHTO   N20 2174   5.915   5.123   1.181
    6CHTO  H209 2175   5.919   5.210   1.245
    6CHTO  H210 2176   6.006   5.114   1.125
    6CHTO   O80 2177   5.636   4.999   1.253
    6CHTO  C103 2178   5.577   5.009   1.399
    6CHTO  H190 2179   5.632   5.082   1.459
    6CHTO  C101 2180   5.422   5.042   1.409
    6CHTO  H188 2181   5.371   4.992   1.326
    6CHTO   O68 2182   5.404   5.195   1.392
    6CHTO  H168 2183   5.434   5.221   1.307
    6CHTO   C99 2184   5.355   4.991   1.547
    6CHTO  H186 2185   5.395   5.052   1.631
    6CHTO   N17 2186   5.205   5.006   1.550
    6CHTO  H174 2187   5.157   4.912   1.572
    6CHTO  H175 2188   5.177   5.082   1.621
    6CHTO   C97 2189   5.402   4.846   1.575
    6CHTO  H184 2190   5.367   4.781   1.493
    6CHTO   O64 2191   5.545   4.848   1.585
    6CHTO  C104 2192   5.609   4.866   1.458
    6CHTO  H191 2193   5.578   4.790   1.387
    6CHTO  C108 2194   5.760   4.848   1.476
    6CHTO   O71 2195   5.792   4.715   1.515
    6CHTO  H171 2196   5.885   4.707   1.529
    6CHTO   O62 2197   5.357   4.792   1.703
    6CHTO   C91 2198   5.347   4.648   1.717
    6CHTO  H178 2199   5.331   4.630   1.823
    6CHTO   C92 2200   5.480   4.573   1.681
    6CHTO  H179 2201   5.510   4.601   1.579
    6CHTO   O66 2202   5.584   4.624   1.768
    6CHTO  H166 2203   5.603   4.713   1.748
    6CHTO   C93 2204   5.470   4.416   1.694
    6CHTO  H180 2205   5.472   4.393   1.802
    6CHTO   N16 2206   5.588   4.347   1.636
    6CHTO  H172 2207   5.579   4.240   1.650
    6CHTO  H173 2208   5.597   4.371   1.531
    6CHTO   C94 2209   5.336   4.361   1.633
    6CHTO  H181 2210   5.337   4.363   1.524
    6CHTO   O61 2211   5.223   4.438   1.675
    6CHTO   C95 2212   5.229   4.577   1.639
    6CHTO  H182 2213   5.247   4.585   1.532
    6CHTO  C106 2214   5.089   4.644   1.667
    6CHTO   O69 2215   5.050   4.636   1.804
    6CHTO  H169 2216   5.107   4.689   1.857
    6CHTO   O63 2217   5.311   4.210   1.687
    6CHTO   C96 2218   5.268   4.108   1.575
    6CHTO  H183 2219   5.322   4.133   1.484
    6CHTO   C98 2220   5.116   4.104   1.544
    6CHTO  H185 2221   5.061   4.078   1.636
    6CHTO   O67 2222   5.071   4.235   1.508
    6CHTO  H167 2223   4.978   4.235   1.496
    6CHTO  C102 2224   5.081   3.999   1.426
    6CHTO  H189 2225   5.089   4.057   1.333
    6CHTO   N18 2226   4.942   3.948   1.429
    6CHTO  H176 2227   4.872   4.030   1.420
    6CHTO  H177 2228   4.927   3.879   1.347
    6CHTO  C105 2229   5.188   3.886   1.419
    6CHTO  H192 2230   5.142   3.794   1.382
    6CHTO   O65 2231   5.248   3.855   1.547
    6CHTO  C100 2232   5.312   3.961   1.620
    6CHTO  H187 2233   5.282   3.949   1.725
    6CHTO  C107 2234   5.465   3.939   1.613
    6CHTO   O70 2235   5.535   4.023   1.704
    6CHTO  H170 2236   5.627   4.008   1.696
    6CHTO   O57 2237   5.293   3.939   1.311
    6CHTO   C85 2238   5.355   3.848   1.218
    6CHTO  H157 2239   5.298   3.753   1.223
    6CHTO   C83 2240   5.499   3.813   1.267
    6CHTO  H155 2241   5.491   3.758   1.361
    6CHTO   O56 2242   5.572   3.934   1.296
    6CHTO  H135 2243   5.533   3.979   1.369
    6CHTO   C81 2244   5.569   3.721   1.162
    6CHTO  H153 2245   5.506   3.633   1.148
    6CHTO   N14 2246   5.699   3.667   1.210
    6CHTO  H141 2247   5.778   3.689   1.141
    6CHTO  H142 2248   5.693   3.561   1.223
    6CHTO   C79 2249   5.578   3.797   1.025
    6CHTO  H151 2250   5.622   3.728   0.953
    6CHTO   O52 2251   5.443   3.828   0.977
    6CHTO   C86 2252   5.361   3.906   1.071
    6CHTO  H158 2253   5.406   4.008   1.069
    6CHTO   C90 2254   5.217   3.921   1.016
    6CHTO   O60 2255   5.216   3.987   0.889
    6CHTO  H138 2256   5.241   4.077   0.899
    6CHTO   O50 2257   5.658   3.917   1.029
    6CHTO   C73 2258   5.766   3.972   0.953
    6CHTO  H145 2259   5.778   3.917   0.858
    6CHTO   C74 2260   5.899   3.960   1.033
    6CHTO  H146 2261   5.915   3.854   1.057
    6CHTO   O54 2262   6.008   3.999   0.947
    6CHTO  H133 2263   6.020   3.936   0.879
    6CHTO   C75 2264   5.888   4.048   1.164
    6CHTO  H147 2265   5.806   4.009   1.225
    6CHTO   N13 2266   6.007   4.042   1.252
    6CHTO  H139 2267   6.023   3.941   1.285
    6CHTO  H140 2268   6.095   4.075   1.198
    6CHTO   C76 2269   5.851   4.198   1.125
    6CHTO  H148 2270   5.936   4.242   1.072
    6CHTO   O49 2271   5.731   4.202   1.040
    6CHTO   C77 2272   5.737   4.122   0.921
    6CHTO  H149 2273   5.816   4.160   0.856
    6CHTO   C88 2274   5.606   4.141   0.844
    6CHTO   O58 2275   5.605   4.065   0.715
    6CHTO  H136 2276   5.670   4.100   0.657
    6CHTO   O51 2277   5.809   4.283   1.260
    6CHTO   C78 2278   5.858   4.439   1.266
    6CHTO  H150 2279   5.799   4.493   1.344
    6CHTO   C80 2280   5.839   4.512   1.131
    6CHTO  H152 2281   5.897   4.459   1.053
    6CHTO   O55 2282   5.699   4.503   1.100
    6CHTO  H134 2283   5.676   4.415   1.075
    6CHTO   C84 2284   5.887   4.662   1.140
    6CHTO  H156 2285   5.823   4.712   1.212
    6CHTO   N15 2286   5.874   4.737   1.010
    6CHTO  H143 2287   5.834   4.674   0.933
    6CHTO  H144 2288   5.809   4.821   1.023
    6CHTO   C87 2289   6.033   4.666   1.193
    6CHTO  H159 2290   6.102   4.627   1.117
    6CHTO   O53 2291   6.045   4.584   1.324
    6CHTO   C82 2292   6.005   4.447   1.310
    6CHTO  H154 2293   6.069   4.397   1.238
    6CHTO   C89 2294   6.028   4.376   1.447
    6CHTO   O59 2295   5.954   4.436   1.554
    6CHTO  H137 2296   5.987   4.522   1.571
    6CHTO   O45 2297   6.075   4.818   1.232
    6CHTO   C67 2298   6.217   4.840   1.230
    6CHTO  H124 2299   6.268   4.751   1.266
    6CHTO   C65 2300   6.267   4.873   1.085
    6CHTO  H122 2301   6.180   4.862   1.019
    6CHTO   O44 2302   6.364   4.774   1.047
    6CHTO  H102 2303   6.444   4.787   1.096
    6CHTO   C63 2304   6.311   5.023   1.071
    6CHTO  H120 2305   6.226   5.087   1.097
    6CHTO   N11 2306   6.342   5.070   0.931
    6CHTO  H108 2307   6.437   5.117   0.927
    6CHTO  H109 2308   6.266   5.137   0.896
    6CHTO   C61 2309   6.423   5.052   1.177
    6CHTO  H118 2310   6.433   5.162   1.184
    6CHTO   O40 2311   6.390   5.005   1.311
    6CHTO   C68 2312   6.254   4.955   1.333
    6CHTO  H125 2313   6.183   5.041   1.323
    6CHTO   C72 2314   6.246   4.907   1.481
    6CHTO   O48 2315   6.115   4.867   1.520
    6CHTO  H105 2316   6.057   4.941   1.521
    6CHTO   O38 2317   6.550   4.991   1.143
    6CHTO   C55 2318   6.668   5.063   1.185
    6CHTO  H112 2319   6.642   5.136   1.263
    6CHTO   C56 2320   6.734   5.133   1.059
    6CHTO  H113 2321   6.751   5.054   0.983
    6CHTO   O42 2322   6.642   5.226   1.000
    6CHTO  H100 2323   6.621   5.295   1.060
    6CHTO   C57 2324   6.871   5.202   1.097
    6CHTO  H114 2325   6.847   5.288   1.159
    6CHTO   N10 2326   6.946   5.255   0.980
    6CHTO  H106 2327   6.878   5.288   0.903
    6CHTO  H107 2328   7.011   5.179   0.939
    6CHTO   C58 2329   6.959   5.104   1.180
    6CHTO  H115 2330   6.998   5.023   1.114
    6CHTO   O37 2331   6.886   5.046   1.289
    6CHTO   C59 2332   6.772   4.968   1.250
    6CHTO  H116 2333   6.803   4.890   1.180
    6CHTO   C70 2334   6.718   4.901   1.377
    6CHTO   O46 2335   6.620   4.801   1.350
    6CHTO  H103 2336   6.589   4.765   1.431
    6CHTO   O39 2337   7.082   5.185   1.250
    6CHTO   C60 2338   7.205   5.110   1.258
    6CHTO  H117 2339   7.182   5.006   1.283
    6CHTO   C62 2340   7.282   5.112   1.123
    6CHTO  H119 2341   7.217   5.060   1.049
    6CHTO   O43 2342   7.301   5.249   1.080
    6CHTO  H101 2343   7.342   5.250   0.996
    6CHTO   C66 2344   7.420   5.031   1.139
    6CHTO  H123 2345   7.398   4.932   1.178
    6CHTO   N12 2346   7.487   5.011   1.008
    6CHTO  H110 2347   7.579   4.957   1.022
    6CHTO  H111 2348   7.421   4.957   0.941
    6CHTO   C69 2349   7.509   5.104   1.243
    6CHTO  H126 2350   7.526   5.209   1.212
    6CHTO   O41 2351   7.432   5.101   1.380
    6CHTO   C64 2352   7.291   5.167   1.374
    6CHTO  H121 2353   7.303   5.276   1.359
    6CHTO   C71 2354   7.221   5.147   1.511
    6CHTO   O47 2355   7.208   5.008   1.546
    6CHTO  H104 2356   7.164   5.001   1.628
    6CHTO   O34 2357   7.652   5.035   1.265
    6CHTO   C49 2358   7.785   5.039   1.185
    6CHTO   H91 2359   7.764   4.997   1.087
    6CHTO   C47 2360   7.888   4.949   1.257
    6CHTO   H89 2361   7.977   4.948   1.189
    6CHTO   O33 2362   7.836   4.815   1.265
    6CHTO   H70 2363   7.901   4.758   1.300
    6CHTO   C45 2364   7.927   5.011   1.401
    6CHTO   H87 2365   7.846   4.985   1.472
    6CHTO    N8 2366   8.052   4.945   1.448
    6CHTO   H75 2367   8.073   4.975   1.550
    6CHTO   H76 2368   8.134   4.972   1.384
    6CHTO   C43 2369   7.929   5.173   1.395
    6CHTO   H85 2370   7.830   5.205   1.430
    6CHTO   O29 2371   7.953   5.216   1.260
    6CHTO   C50 2372   7.846   5.182   1.170
    6CHTO   H92 2373   7.765   5.256   1.183
    6CHTO   C54 2374   7.897   5.210   1.026
    6CHTO   O36 2375   7.791   5.205   0.930
    6CHTO   H72 2376   7.757   5.117   0.923
    6CHTO   O27 2377   8.022   5.236   1.485
    6CHTO   C37 2378   8.102   5.345   1.531
    6CHTO   H79 2379   8.208   5.316   1.531
    6CHTO   C38 2380   8.089   5.470   1.439
    6CHTO   H80 2381   7.982   5.492   1.426
    6CHTO   O31 2382   8.144   5.434   1.311
    6CHTO   H68 2383   8.133   5.505   1.250
    6CHTO   C39 2384   8.162   5.596   1.500
    6CHTO   H81 2385   8.269   5.575   1.497
    6CHTO    N7 2386   8.140   5.721   1.420
    6CHTO   H73 2387   8.035   5.746   1.418
    6CHTO   H74 2388   8.197   5.803   1.462
    6CHTO   C40 2389   8.123   5.616   1.651
    6CHTO   H82 2390   8.020   5.652   1.659
    6CHTO   O26 2391   8.142   5.494   1.724
    6CHTO   C41 2392   8.061   5.382   1.676
    6CHTO   H83 2393   7.954   5.410   1.678
    6CHTO   C52 2394   8.082   5.262   1.771
    6CHTO   O35 2395   8.031   5.289   1.901
    6CHTO   H71 2396   8.046   5.214   1.956
    6CHTO   O28 2397   8.211   5.711   1.715
    6CHTO   C42 2398   8.183   5.773   1.845
    6CHTO   H84 2399   8.271   5.836   1.862
    6CHTO   C44 2400   8.173   5.678   1.968
    6CHTO   H86 2401   8.087   5.612   1.955
    6CHTO   O32 2402   8.293   5.598   1.970
    6CHTO   H69 2403   8.368   5.652   1.986
    6CHTO   C48 2404   8.152   5.760   2.103
    6CHTO   H90 2405   8.241   5.820   2.119
    6CHTO    N9 2406   8.141   5.670   2.223
    6CHTO   H77 2407   8.231   5.613   2.235
    6CHTO   H78 2408   8.056   5.604   2.213
    6CHTO   C51 2409   8.029   5.857   2.088
    6CHTO   H93 2410   7.938   5.796   2.077
    6CHTO   O30 2411   8.049   5.943   1.975
    6CHTO   C46 2412   8.059   5.869   1.842
    6CHTO   H88 2413   7.969   5.810   1.828
    6CHTO   C53 2414   8.070   5.975   1.729
    6CHTO   O72 2415   8.183   6.060   1.746
    6CHTO  H199 2416   8.187   6.122   1.675
    6CHTO   O22 2417   8.018   5.946   2.200
    6CHTO   C31 2418   7.890   6.011   2.240
    6CHTO   H59 2419   7.916   6.080   2.322
    6CHTO   C29 2420   7.823   6.095   2.130
    6CHTO   H57 2421   7.802   6.028   2.045
    6CHTO   O21 2422   7.918   6.193   2.084
    6CHTO   H37 2423   7.885   6.237   2.008
    6CHTO   C27 2424   7.687   6.160   2.178
    6CHTO   H55 2425   7.710   6.237   2.254
    6CHTO    N5 2426   7.613   6.225   2.067
    6CHTO   H43 2427   7.587   6.152   1.992
    6CHTO   H44 2428   7.674   6.304   2.024
    6CHTO   C25 2429   7.597   6.053   2.250
    6CHTO   H53 2430   7.560   5.980   2.176
    6CHTO   O17 2431   7.673   5.981   2.351
    6CHTO   C32 2432   7.787   5.910   2.300
    6CHTO   H60 2433   7.755   5.842   2.222
    6CHTO   C36 2434   7.847   5.826   2.416
    6CHTO   O25 2435   7.893   5.906   2.525
    6CHTO   H40 2436   7.821   5.948   2.567
    6CHTO   O15 2437   7.475   6.119   2.323
    6CHTO   C19 2438   7.358   6.203   2.346
    6CHTO   H47 2439   7.335   6.189   2.452
    6CHTO   C20 2440   7.383   6.355   2.319
    6CHTO   H48 2441   7.415   6.373   2.216
    6CHTO   O19 2442   7.491   6.396   2.406
    6CHTO   H35 2443   7.466   6.389   2.496
    6CHTO   C21 2444   7.254   6.441   2.345
    6CHTO   H49 2445   7.232   6.442   2.452
    6CHTO    N4 2446   7.271   6.583   2.304
    6CHTO   H41 2447   7.353   6.627   2.359
    6CHTO   H42 2448   7.181   6.639   2.324
    6CHTO   C22 2449   7.132   6.376   2.274
    6CHTO   H50 2450   7.143   6.387   2.166
    6CHTO   O14 2451   7.119   6.237   2.307
    6CHTO   C23 2452   7.232   6.157   2.267
    6CHTO   H51 2453   7.244   6.170   2.158
    6CHTO   C34 2454   7.197   6.009   2.290
    6CHTO   O23 2455   7.171   5.980   2.428
    6CHTO   H38 2456   7.152   5.888   2.438
    6CHTO   O16 2457   7.008   6.433   2.320
    6CHTO   C24 2458   6.894   6.435   2.210
    6CHTO   H52 2459   6.913   6.362   2.131
    6CHTO   C26 2460   6.888   6.577   2.151
    6CHTO   H54 2461   6.887   6.650   2.235
    6CHTO   O20 2462   7.009   6.598   2.075
    6CHTO   H36 2463   7.013   6.687   2.045
    6CHTO   C30 2464   6.761   6.599   2.063
    6CHTO   H58 2465   6.768   6.540   1.970
    6CHTO    N6 2466   6.749   6.742   2.021
    6CHTO   H45 2467   6.836   6.771   1.963
    6CHTO   H46 2468   6.661   6.755   1.960
    6CHTO   C33 2469   6.634   6.549   2.138
    6CHTO   H61 2470   6.618   6.611   2.228
    6CHTO   O18 2471   6.655   6.413   2.179
    6CHTO   C28 2472   6.759   6.395   2.276
    6CHTO   H56 2473   6.742   6.457   2.364
    6CHTO   C35 2474   6.756   6.245   2.318
    6CHTO   O24 2475   6.845   6.214   2.426
    6CHTO   H39 2476   6.839   6.123   2.446
    6CHTO    O9 2477   6.514   6.562   2.060
    6CHTO   C13 2478   6.381   6.594   2.146
    6CHTO   H26 2479   6.398   6.691   2.197
    6CHTO   C11 2480   6.352   6.478   2.250
    6CHTO   H24 2481   6.433   6.480   2.325
    6CHTO    O8 2482   6.359   6.349   2.184
    6CHTO    H3 2483   6.350   6.281   2.248
    6CHTO    C9 2484   6.218   6.508   2.320
    6CHTO   H22 2485   6.227   6.610   2.359
    6CHTO    N2 2486   6.192   6.425   2.440
    6CHTO   H10 2487   6.178   6.322   2.412
    6CHTO   H11 2488   6.105   6.462   2.493
    6CHTO    C7 2489   6.103   6.506   2.212
    6CHTO   H20 2490   6.010   6.531   2.268
    6CHTO    O4 2491   6.127   6.608   2.114
    6CHTO   C14 2492   6.256   6.621   2.049
    6CHTO   H27 2493   6.262   6.726   2.015
    6CHTO   C18 2494   6.254   6.533   1.921
    6CHTO   O13 2495   6.358   6.566   1.830
    6CHTO    H7 2496   6.353   6.511   1.754
    6CHTO    O2 2497   6.084   6.359   2.135
    6CHTO    C1 2498   5.949   6.319   2.102
    6CHTO   H14 2499   5.958   6.230   2.037
    6CHTO    C2 2500   5.862   6.427   2.027
    6CHTO   H15 2501   5.860   6.518   2.089
    6CHTO    O6 2502   5.926   6.457   1.901
    6CHTO    H1 2503   5.928   6.380   1.846
    6CHTO    C3 2504   5.712   6.373   2.005
    6CHTO   H16 2505   5.716   6.283   1.942
    6CHTO    N1 2506   5.623   6.471   1.935
    6CHTO    H8 2507   5.664   6.495   1.838
    6CHTO    H9 2508   5.524   6.429   1.923
    6CHTO    C4 2509   5.654   6.326   2.143
    6CHTO   H17 2510   5.641   6.414   2.208
    6CHTO    O1 2511   5.740   6.230   2.205
    6CHTO    C5 2512   5.876   6.269   2.231
    6CHTO   H18 2513   5.878   6.348   2.306
    6CHTO   C16 2514   5.939   6.141   2.291
    6CHTO   O11 2515   6.078   6.150   2.324
    6CHTO    H5 2516   6.129   6.161   2.245
    6CHTO    O3 2517   5.529   6.256   2.127
    6CHTO    C6 2518   5.437   6.259   2.241
    6CHTO   H19 2519   5.485   6.295   2.332
    6CHTO    C8 2520   5.316   6.354   2.210
    6CHTO   H21 2521   5.277   6.328   2.111
    6CHTO    O7 2522   5.369   6.488   2.206
    6CHTO    H2 2523   5.303   6.548   2.179
    6CHTO   C12 2524   5.201   6.338   2.317
    6CHTO   H25 2525   5.242   6.377   2.413
    6CHTO    N3 2526   5.082   6.423   2.282
    6CHTO   H12 2527   4.994   6.362   2.267
    6CHTO   H13 2528   5.064   6.496   2.360
    6CHTO   C15 2529   5.168   6.186   2.337
    6CHTO   H28 2530   5.122   6.143   2.248
    6CHTO   O10 2531   5.077   6.160   2.459
    6CHTO    H4 2532   4.993   6.199   2.445
    6CHTO    O5 2533   5.286   6.114   2.372
    6CHTO   C10 2534   5.387   6.115   2.270
    6CHTO   H23 2535   5.345   6.072   2.179
    6CHTO   C17 2536   5.502   6.024   2.315
    6CHTO   O12 2537   5.458   5.889   2.335
    6CHTO    H6 2538   5.403   5.884   2.411
    7CHTO  H203 2539   4.889   2.398   2.518
    7CHTO   O82 2540   4.943   2.380   2.443
    7CHTO  C123 2541   5.053   2.473   2.438
    7CHTO  H227 2542   5.015   2.575   2.458
    7CHTO   O77 2543   5.139   2.430   2.549
    7CHTO  C118 2544   5.256   2.512   2.567
    7CHTO  H222 2545   5.226   2.617   2.579
    7CHTO  C125 2546   5.328   2.465   2.700
    7CHTO   O84 2547   5.371   2.328   2.693
    7CHTO  H205 2548   5.297   2.272   2.689
    7CHTO  C114 2549   5.346   2.498   2.443
    7CHTO  H218 2550   5.372   2.393   2.430
    7CHTO  C116 2551   5.269   2.544   2.315
    7CHTO  H220 2552   5.250   2.653   2.322
    7CHTO   O79 2553   5.355   2.524   2.201
    7CHTO  H201 2554   5.316   2.560   2.124
    7CHTO  C120 2555   5.132   2.466   2.301
    7CHTO  H224 2556   5.157   2.360   2.278
    7CHTO   N21 2557   5.051   2.519   2.188
    7CHTO  H211 2558   5.077   2.466   2.097
    7CHTO  H212 2559   4.946   2.509   2.207
    7CHTO   O75 2560   5.463   2.577   2.471
    7CHTO  C112 2561   5.603   2.501   2.426
    7CHTO  H216 2562   5.587   2.452   2.328
    7CHTO   O73 2563   5.634   2.405   2.528
    7CHTO  C113 2564   5.752   2.328   2.503
    7CHTO  H217 2565   5.740   2.274   2.406
    7CHTO  C124 2566   5.765   2.223   2.613
    7CHTO   O83 2567   5.666   2.121   2.601
    7CHTO  H204 2568   5.678   2.057   2.668
    7CHTO  C109 2569   5.878   2.419   2.497
    7CHTO  H213 2570   5.888   2.465   2.596
    7CHTO  C110 2571   5.855   2.529   2.389
    7CHTO  H214 2572   5.853   2.481   2.291
    7CHTO   O78 2573   5.967   2.620   2.390
    7CHTO  H200 2574   6.045   2.576   2.361
    7CHTO  C111 2575   5.721   2.604   2.413
    7CHTO  H215 2576   5.728   2.659   2.509
    7CHTO   N19 2577   5.687   2.705   2.309
    7CHTO  H207 2578   5.763   2.709   2.232
    7CHTO  H208 2579   5.675   2.803   2.354
    7CHTO   O74 2580   5.996   2.336   2.470
    7CHTO  C115 2581   6.129   2.391   2.538
    7CHTO  H219 2582   6.154   2.491   2.502
    7CHTO   O76 2583   6.114   2.405   2.699
    7CHTO  C122 2584   6.104   2.280   2.769
    7CHTO  H226 2585   6.014   2.229   2.736
    7CHTO  C126 2586   6.083   2.314   0.054
    7CHTO   O85 2587   6.054   2.199   0.135
    7CHTO  H206 2588   5.971   2.163   0.110
    7CHTO  C121 2589   6.232   2.192   2.740
    7CHTO  H225 2590   6.322   2.249   2.771
    7CHTO   O81 2591   6.231   2.070   2.815
    7CHTO  H202 2592   6.157   2.018   2.793
    7CHTO  C119 2593   6.240   2.164   2.587
    7CHTO  H223 2594   6.332   2.107   2.572
    7CHTO  C117 2595   6.248   2.294   2.499
    7CHTO  H221 2596   6.236   2.278   2.392
    7CHTO   N20 2597   6.380   2.365   2.512
    7CHTO  H209 2598   6.384   2.450   2.445
    7CHTO  H210 2599   6.396   2.396   2.614
    7CHTO   O80 2600   6.133   2.062   2.538
    7CHTO  C103 2601   6.161   1.969   2.407
    7CHTO  H190 2602   6.145   2.026   2.316
    7CHTO  C101 2603   6.301   1.895   2.398
    7CHTO  H188 2604   6.324   1.850   2.495
    7CHTO   O68 2605   6.412   1.999   2.366
    7CHTO  H168 2606   6.417   2.063   2.434
    7CHTO   C99 2607   6.300   1.778   2.288
    7CHTO  H186 2608   6.290   1.824   2.188
    7CHTO   N17 2609   6.425   1.694   2.284
    7CHTO  H174 2610   6.478   1.710   2.191
    7CHTO  H175 2611   6.487   1.714   2.369
    7CHTO   C97 2612   6.175   1.689   2.305
    7CHTO  H184 2613   6.187   1.631   2.399
    7CHTO   O64 2614   6.055   1.769   2.306
    7CHTO  C104 2615   6.047   1.861   2.416
    7CHTO  H191 2616   6.054   1.809   2.512
    7CHTO  C108 2617   5.908   1.926   2.413
    7CHTO   O71 2618   5.804   1.830   2.433
    7CHTO  H171 2619   5.806   1.798   2.521
    7CHTO   O62 2620   6.148   1.603   2.192
    7CHTO   C91 2621   6.106   1.466   2.211
    7CHTO  H178 2622   6.197   1.406   2.204
    7CHTO   C92 2623   6.017   1.426   2.088
    7CHTO  H179 2624   6.065   1.458   1.995
    7CHTO   O66 2625   6.013   1.282   2.080
    7CHTO  H166 2626   6.097   1.248   2.058
    7CHTO   C93 2627   5.867   1.476   2.099
    7CHTO  H180 2628   5.806   1.410   2.036
    7CHTO   N16 2629   5.847   1.611   2.042
    7CHTO  H172 2630   5.907   1.684   2.095
    7CHTO  H173 2631   5.743   1.639   2.046
    7CHTO   C94 2632   5.814   1.468   2.248
    7CHTO  H181 2633   5.818   1.565   2.298
    7CHTO   O61 2634   5.895   1.378   2.325
    7CHTO   C95 2635   6.028   1.427   2.347
    7CHTO  H182 2636   6.022   1.514   2.413
    7CHTO  C106 2637   6.108   1.319   2.430
    7CHTO   O69 2638   6.113   1.193   2.362
    7CHTO  H169 2639   6.164   1.200   2.284
    7CHTO   O63 2640   5.666   1.412   2.251
    7CHTO   C96 2641   5.574   1.482   2.362
    7CHTO  H183 2642   5.573   1.589   2.338
    7CHTO   C98 2643   5.622   1.469   2.510
    7CHTO  H185 2644   5.726   1.503   2.520
    7CHTO   O67 2645   5.545   1.560   2.590
    7CHTO  H167 2646   5.453   1.538   2.587
    7CHTO  C102 2647   5.602   1.320   2.569
    7CHTO  H189 2648   5.590   1.333   2.678
    7CHTO   N18 2649   5.718   1.230   2.552
    7CHTO  H176 2650   5.742   1.219   2.447
    7CHTO  H177 2651   5.804   1.271   2.604
    7CHTO  C105 2652   5.471   1.256   2.514
    7CHTO  H192 2653   5.494   1.188   2.432
    7CHTO   O65 2654   5.377   1.353   2.462
    7CHTO  C100 2655   5.426   1.425   2.346
    7CHTO  H187 2656   5.424   1.355   2.262
    7CHTO  C107 2657   5.326   1.538   2.312
    7CHTO   O70 2658   5.202   1.486   2.265
    7CHTO  H170 2659   5.213   1.447   2.180
    7CHTO   O57 2660   5.409   1.173   2.643
    7CHTO   C85 2661   5.376   1.033   2.630
    7CHTO  H157 2662   5.413   1.001   2.531
    7CHTO   C83 2663   5.221   1.016   2.627
    7CHTO  H155 2664   5.183   1.073   2.542
    7CHTO   O56 2665   5.163   1.075   2.745
    7CHTO  H135 2666   5.177   1.167   2.746
    7CHTO   C81 2667   5.186   0.866   2.607
    7CHTO  H153 2668   5.232   0.833   2.513
    7CHTO   N14 2669   5.041   0.840   2.587
    7CHTO  H141 2670   5.022   0.807   2.487
    7CHTO  H142 2671   4.983   0.928   2.607
    7CHTO   C79 2672   5.247   0.777   2.723
    7CHTO  H151 2673   5.237   0.673   2.692
    7CHTO   O52 2674   5.391   0.801   2.734
    7CHTO   C86 2675   5.432   0.941   2.746
    7CHTO  H158 2676   5.392   0.973   2.845
    7CHTO   C90 2677   5.586   0.948   2.757
    7CHTO   O60 2678   5.633   0.882   0.009
    7CHTO  H138 2679   5.727   0.889   0.013
    7CHTO   O50 2680   5.184   0.792   2.852
    7CHTO   C73 2681   5.198   0.689   0.085
    7CHTO  H145 2682   5.297   0.642   0.078
    7CHTO   C74 2683   5.091   0.577   0.064
    7CHTO  H146 2684   5.102   0.539   2.827
    7CHTO   O54 2685   5.123   0.466   0.151
    7CHTO  H133 2686   5.114   0.491   0.241
    7CHTO   C75 2687   4.947   0.636   0.089
    7CHTO  H147 2688   4.931   0.720   0.019
    7CHTO   N13 2689   4.837   0.539   0.063
    7CHTO  H139 2690   4.772   0.576   2.851
    7CHTO  H140 2691   4.779   0.521   0.152
    7CHTO   C76 2692   4.943   0.697   0.237
    7CHTO  H148 2693   4.961   0.615   0.308
    7CHTO   O49 2694   5.048   0.798   0.252
    7CHTO   C77 2695   5.181   0.750   0.229
    7CHTO  H149 2696   5.205   0.673   0.303
    7CHTO   C88 2697   5.279   0.865   0.256
    7CHTO   O58 2698   5.420   0.822   0.242
    7CHTO  H136 2699   5.476   0.895   0.257
    7CHTO   O51 2700   4.808   0.772   0.265
    7CHTO   C78 2701   4.774   0.786   0.418
    7CHTO  H150 2702   4.863   0.763   0.481
    7CHTO   C80 2703   4.660   0.690   0.456
    7CHTO  H152 2704   4.576   0.704   0.383
    7CHTO   O55 2705   4.711   0.556   0.440
    7CHTO  H134 2706   4.642   0.494   0.454
    7CHTO   C84 2707   4.606   0.717   0.603
    7CHTO  H156 2708   4.687   0.694   0.672
    7CHTO   N15 2709   4.491   0.628   0.639
    7CHTO  H143 2710   4.408   0.645   0.573
    7CHTO  H144 2711   4.460   0.648   0.740
    7CHTO   C87 2712   4.570   0.867   0.617
    7CHTO  H159 2713   4.489   0.892   0.549
    7CHTO   O53 2714   4.698   0.949   0.582
    7CHTO   C82 2715   4.735   0.933   0.445
    7CHTO  H154 2716   4.652   0.962   0.381
    7CHTO   C89 2717   4.852   1.031   0.414
    7CHTO   O59 2718   4.967   1.007   0.495
    7CHTO  H137 2719   5.035   1.068   0.472
    7CHTO   O45 2720   4.517   0.902   0.775
    7CHTO   C67 2721   4.581   1.013   0.841
    7CHTO  H124 2722   4.686   1.015   0.814
    7CHTO   C65 2723   4.516   1.150   0.799
    7CHTO  H122 2724   4.410   1.128   0.780
    7CHTO   O44 2725   4.577   1.189   0.675
    7CHTO  H102 2726   4.665   1.219   0.690
    7CHTO   C63 2727   4.515   1.255   0.917
    7CHTO  H120 2728   4.432   1.231   0.984
    7CHTO   N11 2729   4.482   1.396   0.879
    7CHTO  H108 2730   4.560   1.437   0.818
    7CHTO  H109 2731   4.470   1.456   0.966
    7CHTO   C61 2732   4.646   1.239   1.002
    7CHTO  H118 2733   4.639   1.309   1.086
    7CHTO   O40 2734   4.658   1.105   1.060
    7CHTO   C68 2735   4.579   0.997   0.998
    7CHTO  H125 2736   4.474   1.003   1.037
    7CHTO   C72 2737   4.638   0.863   1.048
    7CHTO   O48 2738   4.555   0.751   1.014
    7CHTO  H105 2739   4.595   0.672   1.046
    7CHTO   O38 2740   4.763   1.268   0.923
    7CHTO   C55 2741   4.890   1.278   0.991
    7CHTO  H112 2742   4.886   1.223   1.087
    7CHTO   C56 2743   4.929   1.431   1.012
    7CHTO  H113 2744   4.912   1.481   0.916
    7CHTO   O42 2745   4.837   1.491   1.106
    7CHTO  H100 2746   4.751   1.494   1.070
    7CHTO   C57 2747   5.079   1.449   1.058
    7CHTO  H114 2748   5.087   1.412   1.161
    7CHTO   N10 2749   5.123   1.591   1.058
    7CHTO  H106 2750   5.102   1.636   1.153
    7CHTO  H107 2751   5.229   1.598   1.038
    7CHTO   C58 2752   5.170   1.362   0.968
    7CHTO  H115 2753   5.165   1.401   0.863
    7CHTO   O37 2754   5.126   1.225   0.969
    7CHTO   C59 2755   4.999   1.207   0.906
    7CHTO  H116 2756   5.001   1.247   0.805
    7CHTO   C70 2757   4.971   1.056   0.896
    7CHTO   O46 2758   5.063   0.988   0.810
    7CHTO  H103 2759   5.048   1.014   0.721
    7CHTO   O39 2760   5.329   1.362   1.020
    7CHTO   C60 2761   5.414   1.270   0.949
    7CHTO  H117 2762   5.378   1.168   0.966
    7CHTO   C62 2763   5.418   1.296   0.796
    7CHTO  H119 2764   5.313   1.288   0.760
    7CHTO   O43 2765   5.464   1.431   0.772
    7CHTO  H101 2766   5.461   1.449   0.680
    7CHTO   C66 2767   5.505   1.184   0.724
    7CHTO  H123 2768   5.469   1.086   0.755
    7CHTO   N12 2769   5.487   1.189   0.577
    7CHTO  H110 2770   5.521   1.284   0.538
    7CHTO  H111 2771   5.540   1.107   0.530
    7CHTO   C69 2772   5.653   1.196   0.770
    7CHTO  H126 2773   5.693   1.296   0.742
    7CHTO   O41 2774   5.656   1.180   0.930
    7CHTO   C64 2775   5.558   1.276   1.007
    7CHTO  H121 2776   5.594   1.381   0.999
    7CHTO   C71 2777   5.557   1.238   1.157
    7CHTO   O47 2778   5.685   1.261   1.217
    7CHTO  H104 2779   5.682   1.236   1.307
    7CHTO   O34 2780   5.748   1.084   0.706
    7CHTO   C49 2781   5.802   0.993   0.590
    7CHTO   H91 2782   5.884   0.937   0.635
    7CHTO   C47 2783   5.861   1.078   0.474
    7CHTO   H89 2784   5.968   1.095   0.501
    7CHTO   O33 2785   5.796   1.206   0.464
    7CHTO   H70 2786   5.840   1.260   0.401
    7CHTO   C45 2787   5.848   1.002   0.332
    7CHTO   H87 2788   5.748   1.024   0.291
    7CHTO    N8 2789   5.949   1.054   0.236
    7CHTO   H75 2790   5.930   1.013   0.138
    7CHTO   H76 2791   6.048   1.027   0.269
    7CHTO   C43 2792   5.849   0.842   0.350
    7CHTO   H85 2793   5.843   0.799   0.251
    7CHTO   O29 2794   5.736   0.804   0.431
    7CHTO   C50 2795   5.696   0.891   0.539
    7CHTO   H92 2796   5.608   0.946   0.505
    7CHTO   C54 2797   5.643   0.805   0.655
    7CHTO   O36 2798   5.745   0.723   0.712
    7CHTO   H72 2799   5.809   0.776   0.755
    7CHTO   O27 2800   5.971   0.794   0.410
    7CHTO   C37 2801   6.029   0.685   0.482
    7CHTO   H79 2802   6.009   0.696   0.589
    7CHTO   C38 2803   5.970   0.546   0.439
    7CHTO   H80 2804   5.972   0.540   0.329
    7CHTO   O31 2805   5.832   0.543   0.482
    7CHTO   H68 2806   5.826   0.548   0.575
    7CHTO   C39 2807   6.050   0.425   0.500
    7CHTO   H81 2808   6.038   0.430   0.609
    7CHTO    N7 2809   5.999   0.290   0.457
    7CHTO   H73 2810   5.913   0.300   0.392
    7CHTO   H74 2811   6.076   0.233   0.408
    7CHTO   C40 2812   6.204   0.444   0.470
    7CHTO   H82 2813   6.221   0.436   0.362
    7CHTO   O26 2814   6.247   0.571   0.522
    7CHTO   C41 2815   6.183   0.687   0.460
    7CHTO   H83 2816   6.205   0.688   0.352
    7CHTO   C52 2817   6.245   0.814   0.523
    7CHTO   O35 2818   6.391   0.823   0.505
    7CHTO   H71 2819   6.412   0.833   0.414
    7CHTO   O28 2820   6.287   0.348   0.539
    7CHTO   C42 2821   6.410   0.296   0.480
    7CHTO   H84 2822   6.460   0.248   0.565
    7CHTO   C44 2823   6.513   0.401   0.425
    7CHTO   H86 2824   6.464   0.459   0.347
    7CHTO   O32 2825   6.543   0.489   0.535
    7CHTO   H69 2826   6.600   0.558   0.506
    7CHTO   C48 2827   6.641   0.332   0.364
    7CHTO   H90 2828   6.694   0.279   0.443
    7CHTO    N9 2829   6.739   0.433   0.309
    7CHTO   H77 2830   6.771   0.499   0.388
    7CHTO   H78 2831   6.824   0.382   0.266
    7CHTO   C51 2832   6.595   0.228   0.255
    7CHTO   H93 2833   6.542   0.282   0.178
    7CHTO   O30 2834   6.513   0.130   0.319
    7CHTO   C46 2835   6.383   0.185   0.374
    7CHTO   H88 2836   6.326   0.228   0.291
    7CHTO   C53 2837   6.305   0.065   0.434
    7CHTO   O72 2838   6.378   0.000   0.538
    7CHTO  H199 2839   6.384   0.057   0.613
    7CHTO   O22 2840   6.702   0.151   0.197
    7CHTO   C31 2841   6.695   0.109   0.055
    7CHTO   H59 2842   6.775   0.033   0.042
    7CHTO   C29 2843   6.562   0.040   0.014
    7CHTO   H57 2844   6.480   0.109   0.042
    7CHTO   O21 2845   6.545   9.922   0.095
    7CHTO   H37 2846   6.608   9.857   0.071
    7CHTO   C27 2847   6.553   0.011   2.725
    7CHTO   H55 2848   6.629   9.935   2.699
    7CHTO    N5 2849   6.420   9.959   2.683
    7CHTO   H43 2850   6.420   9.938   2.577
    7CHTO   H44 2851   6.396   9.869   2.738
    7CHTO   C25 2852   6.589   0.142   2.647
    7CHTO   H53 2853   6.516   0.221   2.675
    7CHTO   O17 2854   6.722   0.185   2.687
    7CHTO   C32 2855   6.731   0.226   2.824
    7CHTO   H60 2856   6.662   0.309   2.842
    7CHTO   C36 2857   6.876   0.275   2.849
    7CHTO   O25 2858   6.906   0.391   2.770
    7CHTO   H40 2859   6.913   0.367   2.680
    7CHTO   O15 2860   6.588   0.124   2.487
    7CHTO   C19 2861   6.572   0.237   2.395
    7CHTO   H47 2862   6.575   0.190   2.296
    7CHTO   C20 2863   6.436   0.312   2.410
    7CHTO   H48 2864   6.421   0.348   2.513
    7CHTO   O19 2865   6.332   0.216   2.382
    7CHTO   H35 2866   6.337   0.186   2.294
    7CHTO   C21 2867   6.426   0.437   2.313
    7CHTO   H49 2868   6.423   0.401   2.210
    7CHTO    N4 2869   6.302   0.515   2.334
    7CHTO   H41 2870   6.299   0.599   2.266
    7CHTO   H42 2871   6.215   0.453   2.317
    7CHTO   C22 2872   6.554   0.524   2.327
    7CHTO   H50 2873   6.557   0.566   2.428
    7CHTO   O14 2874   6.671   0.444   2.304
    7CHTO   C23 2875   6.691   0.338   2.399
    7CHTO   H51 2876   6.702   0.385   2.498
    7CHTO   C34 2877   6.826   0.270   2.369
    7CHTO   O23 2878   6.830   0.215   2.237
    7CHTO   H38 2879   6.914   0.175   2.222
    7CHTO   O16 2880   6.563   0.627   2.227
    7CHTO   C24 2881   6.607   0.774   2.282
    7CHTO   H52 2882   6.621   0.775   2.390
    7CHTO   C26 2883   6.497   0.876   2.243
    7CHTO   H54 2884   6.480   0.869   2.133
    7CHTO   O20 2885   6.376   0.839   2.311
    7CHTO   H36 2886   6.305   0.892   2.280
    7CHTO   C30 2887   6.539   1.023   2.277
    7CHTO   H58 2888   6.542   1.036   2.386
    7CHTO    N6 2889   6.440   1.123   2.227
    7CHTO   H45 2890   6.357   1.075   2.178
    7CHTO   H46 2891   6.486   1.192   2.158
    7CHTO   C33 2892   6.684   1.052   2.227
    7CHTO   H61 2893   6.686   1.057   2.117
    7CHTO   O18 2894   6.773   0.948   2.269
    7CHTO   C28 2895   6.741   0.817   2.219
    7CHTO   H56 2896   6.731   0.819   2.110
    7CHTO   C35 2897   6.855   0.720   2.256
    7CHTO   O24 2898   6.979   0.756   2.193
    7CHTO   H39 2899   7.045   0.694   2.217
    7CHTO    O9 2900   6.730   1.182   2.271
    7CHTO   C13 2901   6.881   1.217   2.224
    7CHTO   H26 2902   6.902   1.159   2.132
    7CHTO   C11 2903   6.983   1.181   2.341
    7CHTO   H24 2904   6.996   1.071   2.341
    7CHTO    O8 2905   6.927   1.220   2.468
    7CHTO    H3 2906   6.983   1.190   2.538
    7CHTO    C9 2907   7.119   1.249   2.310
    7CHTO   H22 2908   7.144   1.220   2.207
    7CHTO    N2 2909   7.231   1.196   2.392
    7CHTO   H10 2910   7.238   1.089   2.381
    7CHTO   H11 2911   7.324   1.243   2.361
    7CHTO    C7 2912   7.099   1.406   2.315
    7CHTO   H20 2913   7.171   1.443   2.239
    7CHTO    O4 2914   6.966   1.448   2.280
    7CHTO   C14 2915   6.897   1.370   2.181
    7CHTO   H27 2916   6.956   1.374   2.086
    7CHTO   C18 2917   6.761   1.438   2.151
    7CHTO   O13 2918   6.780   1.567   2.093
    7CHTO    H7 2919   6.696   1.606   2.075
    7CHTO    O2 2920   7.136   1.473   2.460
    7CHTO    C1 2921   7.161   1.614   2.455
    7CHTO   H14 2922   7.108   1.659   2.368
    7CHTO    C2 2923   7.315   1.650   2.443
    7CHTO   H15 2924   7.365   1.595   2.525
    7CHTO    O6 2925   7.364   1.602   2.316
    7CHTO    H1 2926   7.456   1.614   2.311
    7CHTO    C3 2927   7.339   1.808   2.460
    7CHTO   H16 2928   7.295   1.860   2.374
    7CHTO    N1 2929   7.485   1.841   2.463
    7CHTO    H8 2930   7.510   1.910   2.383
    7CHTO    H9 2931   7.514   1.884   2.558
    7CHTO    C4 2932   7.261   1.861   2.587
    7CHTO   H17 2933   7.308   1.821   2.677
    7CHTO    O1 2934   7.123   1.822   2.581
    7CHTO    C5 2935   7.101   1.680   2.582
    7CHTO   H18 2936   7.151   1.637   2.669
    7CHTO   C16 2937   6.948   1.654   2.595
    7CHTO   O11 2938   6.874   1.709   2.486
    7CHTO    H5 2939   6.783   1.691   2.498
    7CHTO    O3 2940   7.254   2.006   2.592
    7CHTO    C6 2941   7.325   2.073   2.702
    7CHTO   H19 2942   7.401   2.010   2.749
    7CHTO    C8 2943   7.396   2.201   2.646
    7CHTO   H21 2944   7.322   2.261   2.594
    7CHTO    O7 2945   7.496   2.158   2.552
    7CHTO    H2 2946   7.563   2.108   2.595
    7CHTO   C12 2947   7.458   2.288   2.763
    7CHTO   H25 2948   7.541   2.228   2.806
    7CHTO    N3 2949   7.519   2.415   2.712
    7CHTO   H12 2950   7.564   2.470   2.793
    7CHTO   H13 2951   7.444   2.475   2.663
    7CHTO   C15 2952   7.350   2.311   0.009
    7CHTO   H28 2953   7.271   2.379   2.841
    7CHTO   O10 2954   7.412   2.367   0.141
    7CHTO    H4 2955   7.483   2.313   0.170
    7CHTO    O5 2956   7.294   2.187   0.052
    7CHTO   C10 2957   7.225   2.115   2.815
    7CHTO   H23 2958   7.147   2.179   2.773
    7CHTO   C17 2959   7.156   1.994   0.015
    7CHTO   O12 2960   7.057   2.035   0.110
    7CHTO    H6 2961   6.986   2.077   0.067
    8CHTO  H203 2962   6.831   8.392   1.298
    8CHTO   O82 2963   6.899   8.407   1.362
    8CHTO  C123 2964   6.842   8.434   1.491
    8CHTO  H227 2965   6.924   8.448   1.563
    8CHTO   O77 2966   6.771   8.560   1.472
    8CHTO  C118 2967   6.706   8.612   1.589
    8CHTO  H222 2968   6.779   8.623   1.671
    8CHTO  C125 2969   6.646   8.753   1.553
    8CHTO   O84 2970   6.750   8.847   1.523
    8CHTO  H205 2971   6.799   8.867   1.600
    8CHTO  C114 2972   6.596   8.512   1.632
    8CHTO  H218 2973   6.529   8.496   1.547
    8CHTO  C116 2974   6.662   8.375   1.665
    8CHTO  H220 2975   6.730   8.387   1.753
    8CHTO   O79 2976   6.557   8.285   1.707
    8CHTO  H201 2977   6.594   8.203   1.734
    8CHTO  C120 2978   6.742   8.321   1.540
    8CHTO  H224 2979   6.666   8.301   1.460
    8CHTO   N21 2980   6.811   8.192   1.567
    8CHTO  H211 2981   6.899   8.182   1.506
    8CHTO  H212 2982   6.838   8.185   1.672
    8CHTO   O75 2983   6.527   8.572   1.743
    8CHTO  C112 2984   6.362   8.572   1.722
    8CHTO  H216 2985   6.326   8.468   1.712
    8CHTO   O73 2986   6.335   8.649   1.603
    8CHTO  C113 2987   6.196   8.667   1.571
    8CHTO  H217 2988   6.149   8.567   1.562
    8CHTO  C124 2989   6.188   8.735   1.434
    8CHTO   O83 2990   6.244   8.655   1.330
    8CHTO  H204 2991   6.240   8.701   1.248
    8CHTO  C109 2992   6.129   8.750   1.683
    8CHTO  H213 2993   6.186   8.844   1.691
    8CHTO  C110 2994   6.143   8.672   1.818
    8CHTO  H214 2995   6.085   8.579   1.811
    8CHTO   O78 2996   6.085   8.752   1.922
    8CHTO  H200 2997   6.083   8.704   2.003
    8CHTO  C111 2998   6.292   8.640   1.847
    8CHTO  H215 2999   6.345   8.734   1.866
    8CHTO   N19 3000   6.313   8.555   1.967
    8CHTO  H207 3001   6.260   8.461   1.956
    8CHTO  H208 3002   6.276   8.606   2.055
    8CHTO   O74 3003   5.989   8.784   1.653
    8CHTO  C115 3004   5.885   8.666   1.620
    8CHTO  H219 3005   5.930   8.588   1.559
    8CHTO   O76 3006   5.833   8.593   1.753
    8CHTO  C122 3007   5.759   8.680   1.840
    8CHTO  H226 3008   5.825   8.759   1.876
    8CHTO  C126 3009   5.715   8.598   1.966
    8CHTO   O85 3010   5.827   8.551   2.042
    8CHTO  H206 3011   5.797   8.505   2.118
    8CHTO  C121 3012   5.635   8.744   1.765
    8CHTO  H225 3013   5.566   8.662   1.734
    8CHTO   O81 3014   5.563   8.832   1.852
    8CHTO  H202 3015   5.526   8.784   1.924
    8CHTO  C119 3016   5.684   8.820   1.638
    8CHTO  H223 3017   5.594   8.855   1.586
    8CHTO  C117 3018   5.767   8.731   1.538
    8CHTO  H221 3019   5.817   8.785   1.458
    8CHTO   N20 3020   5.684   8.627   1.468
    8CHTO  H209 3021   5.606   8.675   1.411
    8CHTO  H210 3022   5.641   8.559   1.540
    8CHTO   O80 3023   5.757   8.957   1.668
    8CHTO  C103 3024   5.675   9.092   1.671
    8CHTO  H190 3025   5.567   9.074   1.676
    8CHTO  C101 3026   5.716   9.191   1.787
    8CHTO  H188 3027   5.825   9.193   1.793
    8CHTO   O68 3028   5.662   9.134   1.921
    8CHTO  H168 3029   5.568   9.136   1.922
    8CHTO   C99 3030   5.666   9.341   1.761
    8CHTO  H186 3031   5.556   9.343   1.764
    8CHTO   N17 3032   5.714   9.440   1.864
    8CHTO  H174 3033   5.822   9.447   1.861
    8CHTO  H175 3034   5.679   9.411   1.962
    8CHTO   C97 3035   5.705   9.384   1.617
    8CHTO  H184 3036   5.815   9.388   1.610
    8CHTO   O64 3037   5.648   9.292   1.523
    8CHTO  C104 3038   5.703   9.160   1.530
    8CHTO  H191 3039   5.811   9.162   1.513
    8CHTO  C108 3040   5.644   9.080   1.413
    8CHTO   O71 3041   5.501   9.071   1.418
    8CHTO  H171 3042   5.474   9.019   1.491
    8CHTO   O62 3043   5.646   9.510   1.577
    8CHTO   C91 3044   5.721   9.590   1.483
    8CHTO  H178 3045   5.819   9.544   1.465
    8CHTO   C92 3046   5.751   9.728   1.549
    8CHTO  H179 3047   5.656   9.769   1.587
    8CHTO   O66 3048   5.832   9.706   1.666
    8CHTO  H166 3049   5.916   9.671   1.642
    8CHTO   C93 3050   5.819   9.831   1.450
    8CHTO  H180 3051   5.922   9.796   1.432
    8CHTO   N16 3052   5.832   9.968   1.507
    8CHTO  H172 3053   5.735   0.007   1.532
    8CHTO  H173 3054   5.895   9.965   1.595
    8CHTO   C94 3055   5.743   9.835   1.313
    8CHTO  H181 3056   5.641   9.874   1.324
    8CHTO   O61 3057   5.730   9.702   1.261
    8CHTO   C95 3058   5.652   9.614   1.343
    8CHTO  H182 3059   5.553   9.657   1.358
    8CHTO  C106 3060   5.630   9.481   1.263
    8CHTO   O69 3061   5.754   9.415   1.233
    8CHTO  H169 3062   5.803   9.466   1.172
    8CHTO   O63 3063   5.826   9.924   1.201
    8CHTO   C96 3064   5.754   9.928   1.058
    8CHTO  H183 3065   5.678   9.849   1.056
    8CHTO   C98 3066   5.848   9.905   0.937
    8CHTO  H185 3067   5.931   9.978   0.940
    8CHTO   O67 3068   5.910   9.777   0.952
    8CHTO  H167 3069   5.846   9.708   0.948
    8CHTO  C102 3070   5.770   9.915   0.796
    8CHTO  H189 3071   5.708   9.825   0.791
    8CHTO   N18 3072   5.858   9.910   0.676
    8CHTO  H176 3073   5.915   9.819   0.676
    8CHTO  H177 3074   5.798   9.914   0.586
    8CHTO  C105 3075   5.676   0.039   0.794
    8CHTO  H192 3076   5.735   0.129   0.775
    8CHTO   O65 3077   5.602   0.058   0.916
    8CHTO  C100 3078   5.681   0.065   1.036
    8CHTO  H187 3079   5.756   0.145   1.025
    8CHTO  C107 3080   5.589   0.102   1.155
    8CHTO   O70 3081   5.521   0.226   1.135
    8CHTO  H170 3082   5.459   0.218   1.065
    8CHTO   O57 3083   5.570   0.012   0.674
    8CHTO   C85 3084   5.517   0.121   0.596
    8CHTO  H157 3085   5.606   0.172   0.552
    8CHTO   C83 3086   5.448   0.227   0.688
    8CHTO  H155 3087   5.524   0.270   0.753
    8CHTO   O56 3088   5.353   0.161   0.774
    8CHTO  H135 3089   5.318   0.222   0.836
    8CHTO   C81 3090   5.388   0.340   0.600
    8CHTO  H153 3091   5.468   0.381   0.538
    8CHTO   N14 3092   5.338   0.456   0.678
    8CHTO  H141 3093   5.257   0.426   0.741
    8CHTO  H142 3094   5.417   0.495   0.740
    8CHTO   C79 3095   5.279   0.279   0.503
    8CHTO  H151 3096   5.243   0.360   0.439
    8CHTO   O52 3097   5.343   0.180   0.415
    8CHTO   C86 3098   5.415   0.073   0.485
    8CHTO  H158 3099   5.335   0.011   0.530
    8CHTO   C90 3100   5.486   9.982   0.382
    8CHTO   O60 3101   5.392   9.920   0.294
    8CHTO  H138 3102   5.437   9.864   0.234
    8CHTO   O50 3103   5.166   0.219   0.570
    8CHTO   C73 3104   5.027   0.189   0.559
    8CHTO  H145 3105   5.001   0.166   0.454
    8CHTO   C74 3106   4.940   0.309   0.606
    8CHTO  H146 3107   4.967   0.395   0.544
    8CHTO   O54 3108   4.802   0.280   0.576
    8CHTO  H133 3109   4.748   0.353   0.599
    8CHTO   C75 3110   4.967   0.336   0.760
    8CHTO  H147 3111   5.072   0.368   0.771
    8CHTO   N13 3112   4.888   0.449   0.817
    8CHTO  H139 3113   4.827   0.495   0.742
    8CHTO  H140 3114   4.824   0.414   0.897
    8CHTO   C76 3115   4.952   0.201   0.845
    8CHTO  H148 3116   4.846   0.176   0.854
    8CHTO   O49 3117   5.024   0.088   0.784
    8CHTO   C77 3118   4.992   0.064   0.646
    8CHTO  H149 3119   4.886   0.041   0.636
    8CHTO   C88 3120   5.067   9.938   0.602
    8CHTO   O58 3121   5.032   9.900   0.465
    8CHTO  H136 3122   5.079   9.823   0.440
    8CHTO   O51 3123   5.023   0.221   0.987
    8CHTO   C78 3124   4.990   0.111   1.095
    8CHTO  H150 3125   4.951   0.018   1.047
    8CHTO   C80 3126   4.885   0.165   1.193
    8CHTO  H152 3127   4.920   0.265   1.231
    8CHTO   O55 3128   4.764   0.187   1.118
    8CHTO  H134 3129   4.700   0.229   1.172
    8CHTO   C84 3130   4.862   0.067   1.316
    8CHTO  H156 3131   4.818   9.975   1.277
    8CHTO   N15 3132   4.767   0.123   1.418
    8CHTO  H143 3133   4.682   0.059   1.428
    8CHTO  H144 3134   4.734   0.221   1.391
    8CHTO   C87 3135   4.999   0.032   1.380
    8CHTO  H159 3136   5.044   0.122   1.422
    8CHTO   O53 3137   5.093   9.974   1.267
    8CHTO   C82 3138   5.120   0.075   1.169
    8CHTO  H154 3139   5.160   0.164   1.220
    8CHTO   C89 3140   5.230   0.027   1.072
    8CHTO   O59 3141   5.189   9.916   0.991
    8CHTO  H137 3142   5.123   9.944   0.930
    8CHTO   O45 3143   4.980   9.925   1.507
    8CHTO   C67 3144   5.056   9.803   1.506
    8CHTO  H124 3145   5.045   9.753   1.410
    8CHTO   C65 3146   5.210   9.826   1.534
    8CHTO  H122 3147   5.226   9.934   1.531
    8CHTO   O44 3148   5.286   9.764   1.430
    8CHTO  H102 3149   5.268   9.804   1.347
    8CHTO   C63 3150   5.249   9.782   1.680
    8CHTO  H120 3151   5.187   9.837   1.751
    8CHTO   N11 3152   5.387   9.821   1.726
    8CHTO  H108 3153   5.398   9.800   1.830
    8CHTO  H109 3154   5.460   9.767   1.670
    8CHTO   C61 3155   5.213   9.629   1.699
    8CHTO  H118 3156   5.208   9.612   1.808
    8CHTO   O40 3157   5.081   9.596   1.645
    8CHTO   C68 3158   4.991   9.705   1.613
    8CHTO  H125 3159   4.967   9.761   1.706
    8CHTO   C72 3160   4.859   9.641   1.564
    8CHTO   O48 3161   4.755   9.737   1.539
    8CHTO  H105 3162   4.677   9.693   1.513
    8CHTO   O38 3163   5.311   9.539   1.641
    8CHTO   C55 3164   5.286   9.397   1.622
    8CHTO  H112 3165   5.385   9.350   1.631
    8CHTO   C56 3166   5.222   9.375   1.478
    8CHTO  H113 3167   5.149   9.455   1.461
    8CHTO   O42 3168   5.326   9.397   1.380
    8CHTO  H100 3169   5.290   9.395   1.293
    8CHTO   C57 3170   5.155   9.234   1.458
    8CHTO  H114 3171   5.234   9.160   1.448
    8CHTO   N10 3172   5.072   9.226   1.334
    8CHTO  H106 3173   5.114   9.290   1.257
    8CHTO  H107 3174   4.971   9.259   1.354
    8CHTO   C58 3175   5.072   9.200   1.584
    8CHTO  H115 3176   4.993   9.278   1.598
    8CHTO   O37 3177   5.159   9.199   1.698
    8CHTO   C59 3178   5.200   9.331   1.737
    8CHTO  H116 3179   5.112   9.390   1.761
    8CHTO   C70 3180   5.283   9.318   1.865
    8CHTO   O46 3181   5.209   9.265   1.975
    8CHTO  H103 3182   5.144   9.327   2.003
    8CHTO   O39 3183   5.003   9.050   1.578
    8CHTO   C60 3184   4.861   9.052   1.603
    8CHTO  H117 3185   4.829   9.152   1.631
    8CHTO   C62 3186   4.782   9.011   1.476
    8CHTO  H119 3187   4.813   9.082   1.396
    8CHTO   O43 3188   4.822   8.879   1.435
    8CHTO  H101 3189   4.779   8.855   1.355
    8CHTO   C66 3190   4.625   9.028   1.502
    8CHTO  H123 3191   4.605   9.132   1.526
    8CHTO   N12 3192   4.542   8.997   1.382
    8CHTO  H110 3193   4.486   9.084   1.352
    8CHTO  H111 3194   4.603   8.960   1.301
    8CHTO   C69 3195   4.579   8.945   1.626
    8CHTO  H126 3196   4.576   8.837   1.601
    8CHTO   O41 3197   4.675   8.968   1.751
    8CHTO   C64 3198   4.824   8.959   1.722
    8CHTO  H121 3199   4.850   8.854   1.695
    8CHTO   C71 3200   4.903   8.994   1.851
    8CHTO   O47 3201   4.874   9.126   1.898
    8CHTO  H104 3202   4.786   9.130   1.931
    8CHTO   O34 3203   4.434   8.986   1.667
    8CHTO   C49 3204   4.347   9.078   1.754
    8CHTO   H91 3205   4.308   9.016   1.834
    8CHTO   C47 3206   4.230   9.130   1.668
    8CHTO   H89 3207   4.159   9.178   1.737
    8CHTO   O33 3208   4.164   9.017   1.607
    8CHTO   H70 3209   4.123   8.963   1.673
    8CHTO   C45 3210   4.283   9.237   1.561
    8CHTO   H87 3211   4.361   9.190   1.500
    8CHTO    N8 3212   4.176   9.285   1.470
    8CHTO   H75 3213   4.130   9.201   1.420
    8CHTO   H76 3214   4.217   9.352   1.396
    8CHTO   C43 3215   4.357   9.358   1.638
    8CHTO   H85 3216   4.398   9.423   1.561
    8CHTO   O29 3217   4.460   9.305   1.724
    8CHTO   C50 3218   4.427   9.197   1.815
    8CHTO   H92 3219   4.523   9.157   1.851
    8CHTO   C54 3220   4.363   9.254   1.945
    8CHTO   O36 3221   4.349   9.154   2.047
    8CHTO   H72 3222   4.433   9.130   2.080
    8CHTO   O27 3223   4.265   9.440   1.714
    8CHTO   C37 3224   4.244   9.574   1.759
    8CHTO   H79 3225   4.199   9.572   1.859
    8CHTO   C38 3226   4.379   9.654   1.772
    8CHTO   H80 3227   4.435   9.642   1.678
    8CHTO   O31 3228   4.453   9.593   1.879
    8CHTO   H68 3229   4.539   9.631   1.885
    8CHTO   C39 3230   4.355   9.808   1.799
    8CHTO   H81 3231   4.310   9.818   1.898
    8CHTO    N7 3232   4.482   9.889   1.801
    8CHTO   H73 3233   4.568   9.827   1.783
    8CHTO   H74 3234   4.479   9.969   1.727
    8CHTO   C40 3235   4.250   9.864   1.695
    8CHTO   H82 3236   4.292   9.860   1.595
    8CHTO   O26 3237   4.130   9.786   1.706
    8CHTO   C41 3238   4.147   9.649   1.663
    8CHTO   H83 3239   4.188   9.646   1.560
    8CHTO   C52 3240   4.007   9.584   1.660
    8CHTO   O35 3241   3.916   9.652   1.565
    8CHTO   H71 3242   3.833   9.609   1.566
    8CHTO   O28 3243   4.208  10.000   1.721
    8CHTO   C42 3244   4.151   0.082   1.612
    8CHTO   H84 3245   4.111   0.168   1.665
    8CHTO   C44 3246   4.031   0.019   1.533
    8CHTO   H86 3247   4.064   9.925   1.488
    8CHTO   O32 3248   3.928   9.991   1.629
    8CHTO   H69 3249   3.857   9.946   1.588
    8CHTO   C48 3250   3.979   0.114   1.416
    8CHTO   H90 3251   3.936   0.202   1.462
    8CHTO    N9 3252   3.869   0.049   1.337
    8CHTO   H77 3253   3.897   0.038   1.233
    8CHTO   H78 3254   3.778   0.107   1.344
    8CHTO   C51 3255   4.101   0.160   1.328
    8CHTO   H93 3256   4.144   0.071   1.279
    8CHTO   O30 3257   4.196   0.226   1.411
    8CHTO   C46 3258   4.260   0.135   1.514
    8CHTO   H88 3259   4.307   0.051   1.462
    8CHTO   C53 3260   4.366   0.218   1.589
    8CHTO   O72 3261   4.466   0.269   1.500
    8CHTO  H199 3262   4.519   0.199   1.467
    8CHTO   O22 3263   4.063   0.259   1.230
    8CHTO   C31 3264   4.142   0.284   1.107
    8CHTO   H59 3265   4.088   0.364   1.053
    8CHTO   C29 3266   4.286   0.335   1.131
    8CHTO   H57 3267   4.339   0.258   1.190
    8CHTO   O21 3268   4.278   0.452   1.214
    8CHTO   H37 3269   4.364   0.479   1.241
    8CHTO   C27 3270   4.364   0.359   0.996
    8CHTO   H55 3271   4.315   0.441   0.942
    8CHTO    N5 3272   4.506   0.395   1.018
    8CHTO   H43 3273   4.512   0.483   1.081
    8CHTO   H44 3274   4.554   0.415   0.923
    8CHTO   C25 3275   4.352   0.231   0.906
    8CHTO   H53 3276   4.402   0.147   0.957
    8CHTO   O17 3277   4.212   0.195   0.887
    8CHTO   C32 3278   4.144   0.161   1.010
    8CHTO   H60 3279   4.198   0.079   1.058
    8CHTO   C36 3280   4.002   0.111   0.974
    8CHTO   O25 3281   3.923   0.211   0.910
    8CHTO   H40 3282   3.958   0.230   0.825
    8CHTO   O15 3283   4.417   0.250   0.763
    8CHTO   C19 3284   4.430   0.173   0.639
    8CHTO   H47 3285   4.332   0.126   0.627
    8CHTO   C20 3286   4.459   0.263   0.515
    8CHTO   H48 3287   4.548   0.326   0.530
    8CHTO   O19 3288   4.346   0.351   0.499
    8CHTO   H35 3289   4.268   0.302   0.480
    8CHTO   C21 3290   4.482   0.179   0.382
    8CHTO   H49 3291   4.386   0.137   0.351
    8CHTO    N4 3292   4.531   0.263   0.268
    8CHTO   H41 3293   4.461   0.259   0.186
    8CHTO   H42 3294   4.545   0.366   0.298
    8CHTO   C22 3295   4.576   0.058   0.408
    8CHTO   H50 3296   4.678   0.093   0.422
    8CHTO   O14 3297   4.534   9.983   0.524
    8CHTO   C23 3298   4.535   0.058   0.647
    8CHTO   H51 3299   4.637   0.095   0.662
    8CHTO   C34 3300   4.507   9.959   0.761
    8CHTO   O23 3301   4.379   9.897   0.751
    8CHTO   H38 3302   4.366   9.839   0.824
    8CHTO   O16 3303   4.569   9.965   0.299
    8CHTO   C24 3304   4.688   9.857   0.289
    8CHTO   H52 3305   4.739   9.844   0.385
    8CHTO   C26 3306   4.788   9.905   0.183
    8CHTO   H54 3307   4.731   9.932   0.090
    8CHTO   O20 3308   4.852   0.025   0.232
    8CHTO   H36 3309   4.790   0.096   0.235
    8CHTO   C30 3310   4.892   9.795   0.145
    8CHTO   H58 3311   4.960   9.777   0.230
    8CHTO    N6 3312   4.979   9.839   0.032
    8CHTO   H45 3313   5.033   9.929   0.060
    8CHTO   H46 3314   5.050   9.761   0.008
    8CHTO   C33 3315   4.821   9.659   0.116
    8CHTO   H61 3316   4.758   9.669   0.026
    8CHTO   O18 3317   4.735   9.626   0.227
    8CHTO   C28 3318   4.628   9.719   0.251
    8CHTO   H56 3319   4.567   9.731   0.161
    8CHTO   C35 3320   4.540   9.662   0.364
    8CHTO   O24 3321   4.422   9.739   0.389
    8CHTO   H39 3322   4.363   9.731   0.316
    8CHTO    O9 3323   4.914   9.553   0.088
    8CHTO   C13 3324   4.853   9.426   2.865
    8CHTO   H26 3325   4.767   9.463   2.806
    8CHTO   C11 3326   4.812   9.304   0.095
    8CHTO   H24 3327   4.708   9.321   0.128
    8CHTO    O8 3328   4.896   9.302   0.211
    8CHTO    H3 3329   4.884   9.379   0.263
    8CHTO    C9 3330   4.820   9.171   0.016
    8CHTO   H22 3331   4.758   9.185   2.793
    8CHTO    N2 3332   4.757   9.056   0.086
    8CHTO   H10 3333   4.755   8.970   0.020
    8CHTO   H11 3334   4.812   9.032   0.176
    8CHTO    C7 3335   4.970   9.147   2.835
    8CHTO   H20 3336   4.960   9.089   2.741
    8CHTO    O4 3337   5.040   9.270   2.809
    8CHTO   C14 3338   4.961   9.377   2.757
    8CHTO   H27 3339   4.907   9.341   2.667
    8CHTO   C18 3340   5.056   9.489   2.709
    8CHTO   O13 3341   4.984   9.594   2.642
    8CHTO    H7 3342   4.932   9.641   2.704
    8CHTO    O2 3343   5.061   9.057   0.078
    8CHTO    C1 3344   5.195   9.029   0.034
    8CHTO   H14 3345   5.227   9.105   2.825
    8CHTO    C2 3346   5.212   8.885   2.835
    8CHTO   H15 3347   5.180   8.813   0.046
    8CHTO    O6 3348   5.125   8.875   2.721
    8CHTO    H1 3349   5.151   8.936   2.654
    8CHTO    C3 3350   5.366   8.860   2.796
    8CHTO   H16 3351   5.393   8.931   2.716
    8CHTO    N1 3352   5.392   8.722   2.741
    8CHTO    H8 3353   5.300   8.665   2.737
    8CHTO    H9 3354   5.465   8.670   2.800
    8CHTO    C4 3355   5.460   8.896   0.052
    8CHTO   H17 3356   5.449   8.819   0.129
    8CHTO    O1 3357   5.429   9.025   0.106
    8CHTO    C5 3358   5.295   9.043   0.153
    8CHTO   H18 3359   5.271   8.966   0.228
    8CHTO   C16 3360   5.291   9.182   0.222
    8CHTO   O11 3361   5.170   9.202   0.295
    8CHTO    H5 3362   5.172   9.287   0.335
    8CHTO    O3 3363   5.597   8.906   0.009
    8CHTO    C6 3364   5.699   8.877   0.111
    8CHTO   H19 3365   5.659   8.877   0.212
    8CHTO    C8 3366   5.763   8.737   0.082
    8CHTO   H21 3367   5.792   8.733   2.843
    8CHTO    O7 3368   5.661   8.639   0.107
    8CHTO    H2 3369   5.692   8.553   0.085
    8CHTO   C12 3370   5.891   8.713   0.172
    8CHTO   H25 3371   5.856   8.705   0.277
    8CHTO    N3 3372   5.959   8.583   0.138
    8CHTO   H12 3373   5.890   8.501   0.154
    8CHTO   H13 3374   6.047   8.571   0.198
    8CHTO   C15 3375   5.987   8.838   0.161
    8CHTO   H28 3376   6.032   8.846   0.062
    8CHTO   O10 3377   6.099   8.836   0.267
    8CHTO    H4 3378   6.156   8.763   0.252
    8CHTO    O5 3379   5.917   8.958   0.195
    8CHTO   C10 3380   5.808   8.988   0.106
    8CHTO   H23 3381   5.848   8.995   0.004
    8CHTO   C17 3382   5.753   9.127   0.141
    8CHTO   O12 3383   5.705   9.135   0.276
    8CHTO    H6 3384   5.777   9.128   0.336
    9CHTO  H203 3385   7.561   3.944   1.449
    9CHTO   O82 3386   7.592   4.029   1.425
    9CHTO  C123 3387   7.710   4.017   1.344
    9CHTO  H227 3388   7.686   3.959   1.254
    9CHTO   O77 3389   7.739   4.155   1.308
    9CHTO  C118 3390   7.850   4.174   1.219
    9CHTO  H222 3391   7.831   4.121   1.125
    9CHTO  C125 3392   7.861   4.328   1.189
    9CHTO   O84 3393   7.744   4.376   1.122
    9CHTO  H205 3394   7.752   4.468   1.105
    9CHTO  C114 3395   7.979   4.121   1.286
    9CHTO  H218 3396   7.996   4.177   1.378
    9CHTO  C116 3397   7.962   3.972   1.330
    9CHTO  H220 3398   7.953   3.907   1.240
    9CHTO   O79 3399   8.082   3.932   1.399
    9CHTO  H201 3400   8.154   3.927   1.338
    9CHTO  C120 3401   7.834   3.956   1.421
    9CHTO  H224 3402   7.853   4.015   1.513
    9CHTO   N21 3403   7.809   3.815   1.463
    9CHTO  H211 3404   7.903   3.762   1.472
    9CHTO  H212 3405   7.755   3.813   1.556
    9CHTO   O75 3406   8.088   4.149   1.195
    9CHTO  C112 3407   8.102   4.055   1.055
    9CHTO  H216 3408   8.002   4.041   1.011
    9CHTO   O73 3409   8.162   3.930   1.092
    9CHTO  C113 3410   8.174   3.837   0.983
    9CHTO  H217 3411   8.074   3.820   0.938
    9CHTO  C124 3412   8.223   3.703   1.039
    9CHTO   O83 3413   8.131   3.645   1.132
    9CHTO  H204 3414   8.164   3.562   1.162
    9CHTO  C109 3415   8.270   3.893   0.875
    9CHTO  H213 3416   8.370   3.898   0.921
    9CHTO  C110 3417   8.224   4.035   0.830
    9CHTO  H214 3418   8.133   4.024   0.769
    9CHTO   O78 3419   8.326   4.090   0.745
    9CHTO  H200 3420   8.331   4.042   0.664
    9CHTO  C111 3421   8.196   4.128   0.951
    9CHTO  H215 3422   8.291   4.149   1.002
    9CHTO   N19 3423   8.138   4.260   0.912
    9CHTO  H207 3424   8.124   4.321   1.000
    9CHTO  H208 3425   8.043   4.245   0.862
    9CHTO   O74 3426   8.273   3.803   0.760
    9CHTO  C115 3427   8.415   3.737   0.728
    9CHTO  H219 3428   8.495   3.782   0.788
    9CHTO   O76 3429   8.417   3.580   0.765
    9CHTO  C122 3430   8.325   3.503   0.685
    9CHTO  H226 3431   8.225   3.540   0.704
    9CHTO  C126 3432   8.327   3.354   0.734
    9CHTO   O85 3433   8.277   3.341   0.867
    9CHTO  H206 3434   8.279   3.250   0.893
    9CHTO  C121 3435   8.360   3.518   0.532
    9CHTO  H225 3436   8.464   3.483   0.515
    9CHTO   O81 3437   8.273   3.437   0.451
    9CHTO  H202 3438   8.301   3.438   0.362
    9CHTO  C119 3439   8.350   3.669   0.493
    9CHTO  H223 3440   8.378   3.676   0.387
    9CHTO  C117 3441   8.446   3.762   0.576
    9CHTO  H221 3442   8.430   3.869   0.563
    9CHTO   N20 3443   8.591   3.740   0.543
    9CHTO  H209 3444   8.648   3.714   0.631
    9CHTO  H210 3445   8.633   3.828   0.496
    9CHTO   O80 3446   8.201   3.721   0.489
    9CHTO  C103 3447   8.155   3.827   0.378
    9CHTO  H190 3448   8.062   3.874   0.409
    9CHTO  C101 3449   8.257   3.942   0.342
    9CHTO  H188 3450   8.354   3.898   0.320
    9CHTO   O68 3451   8.272   4.035   0.465
    9CHTO  H168 3452   8.190   4.077   0.484
    9CHTO   C99 3453   8.209   4.025   0.214
    9CHTO  H186 3454   8.117   4.080   0.242
    9CHTO   N17 3455   8.308   4.127   0.167
    9CHTO  H174 3456   8.398   4.078   0.132
    9CHTO  H175 3457   8.330   4.197   0.247
    9CHTO   C97 3458   8.167   3.929   0.099
    9CHTO  H184 3459   8.257   3.883   0.056
    9CHTO   O64 3460   8.073   3.829   0.145
    9CHTO  C104 3461   8.124   3.743   0.249
    9CHTO  H191 3462   8.214   3.691   0.217
    9CHTO  C108 3463   8.019   3.635   0.279
    9CHTO   O71 3464   8.005   3.546   0.167
    9CHTO  H171 3465   7.943   3.479   0.188
    9CHTO   O62 3466   8.093   4.001   2.864
    9CHTO   C91 3467   8.089   3.945   2.732
    9CHTO  H178 3468   8.152   3.856   2.729
    9CHTO   C92 3469   8.154   4.048   2.633
    9CHTO  H179 3470   8.254   4.075   2.670
    9CHTO   O66 3471   8.175   3.983   2.507
    9CHTO  H166 3472   8.224   4.038   2.449
    9CHTO   C93 3473   8.062   4.175   2.609
    9CHTO  H180 3474   8.087   4.214   2.509
    9CHTO   N16 3475   8.091   4.288   2.701
    9CHTO  H172 3476   8.172   4.264   2.769
    9CHTO  H173 3477   8.004   4.317   2.757
    9CHTO   C94 3478   7.909   4.135   2.612
    9CHTO  H181 3479   7.864   4.150   2.711
    9CHTO   O61 3480   7.891   3.995   2.581
    9CHTO   C95 3481   7.942   3.908   2.684
    9CHTO  H182 3482   7.876   3.914   2.771
    9CHTO  C106 3483   7.931   3.759   2.634
    9CHTO   O69 3484   8.004   3.736   2.513
    9CHTO  H169 3485   7.963   3.782   2.442
    9CHTO   O63 3486   7.833   4.219   2.505
    9CHTO   C96 3487   7.690   4.263   2.553
    9CHTO  H183 3488   7.690   4.268   2.662
    9CHTO   C98 3489   7.574   4.170   2.509
    9CHTO  H185 3490   7.578   4.154   2.400
    9CHTO   O67 3491   7.596   4.040   2.568
    9CHTO  H167 3492   7.672   4.000   2.530
    9CHTO  C102 3493   7.430   4.227   2.552
    9CHTO  H189 3494   7.425   4.216   2.662
    9CHTO   N18 3495   7.314   4.150   2.499
    9CHTO  H176 3496   7.254   4.211   2.433
    9CHTO  H177 3497   7.254   4.112   2.579
    9CHTO  C105 3498   7.420   4.379   2.520
    9CHTO  H192 3499   7.404   4.393   2.413
    9CHTO   O65 3500   7.537   4.454   2.557
    9CHTO  C100 3501   7.660   4.408   2.500
    9CHTO  H187 3502   7.648   4.404   2.390
    9CHTO  C107 3503   7.772   4.510   2.531
    9CHTO   O70 3504   7.792   4.529   2.672
    9CHTO  H170 3505   7.828   4.451   2.709
    9CHTO   O57 3506   7.294   4.435   2.605
    9CHTO   C85 3507   7.233   4.560   2.566
    9CHTO  H157 3508   7.229   4.559   2.455
    9CHTO   C83 3509   7.325   4.680   2.604
    9CHTO  H155 3510   7.418   4.671   2.547
    9CHTO   O56 3511   7.363   4.671   2.743
    9CHTO  H135 3512   7.287   4.681   2.798
    9CHTO   C81 3513   7.255   4.813   2.565
    9CHTO  H153 3514   7.232   4.809   2.458
    9CHTO   N14 3515   7.344   4.931   2.576
    9CHTO  H141 3516   7.295   5.019   2.539
    9CHTO  H142 3517   7.370   4.948   2.679
    9CHTO   C79 3518   7.120   4.827   2.644
    9CHTO  H151 3519   7.070   4.918   2.608
    9CHTO   O52 3520   7.032   4.715   2.610
    9CHTO   C86 3521   7.090   4.581   2.630
    9CHTO  H158 3522   7.094   4.569   2.741
    9CHTO   C90 3523   6.992   4.473   2.578
    9CHTO   O60 3524   6.868   4.475   2.650
    9CHTO  H138 3525   6.821   4.554   2.630
    9CHTO   O50 3526   7.135   4.837   2.786
    9CHTO   C73 3527   7.077   4.883   0.044
    9CHTO  H145 3528   6.969   4.862   0.046
    9CHTO   C74 3529   7.098   5.037   0.061
    9CHTO  H146 3530   7.048   5.086   2.842
    9CHTO   O54 3531   7.026   5.079   0.179
    9CHTO  H133 3532   7.033   5.172   0.189
    9CHTO   C75 3533   7.253   5.068   0.065
    9CHTO  H147 3534   7.295   5.043   2.832
    9CHTO   N13 3535   7.286   5.211   0.085
    9CHTO  H139 3536   7.393   5.224   0.085
    9CHTO  H140 3537   7.244   5.270   0.005
    9CHTO   C76 3538   7.327   4.973   0.171
    9CHTO  H148 3539   7.306   5.010   0.272
    9CHTO   O49 3540   7.287   4.833   0.161
    9CHTO   C77 3541   7.145   4.810   0.163
    9CHTO  H149 3542   7.102   4.847   0.256
    9CHTO   C88 3543   7.117   4.659   0.160
    9CHTO   O58 3544   7.167   4.595   0.283
    9CHTO  H136 3545   7.146   4.504   0.281
    9CHTO   O51 3546   7.483   4.970   0.137
    9CHTO   C78 3547   7.570   4.917   0.256
    9CHTO  H150 3548   7.507   4.875   0.337
    9CHTO   C80 3549   7.654   5.033   0.313
    9CHTO  H152 3550   7.712   5.080   0.230
    9CHTO   O55 3551   7.561   5.130   0.364
    9CHTO  H134 3552   7.607   5.207   0.393
    9CHTO   C84 3553   7.754   4.983   0.426
    9CHTO  H156 3554   7.694   4.952   0.511
    9CHTO   N15 3555   7.844   5.093   0.475
    9CHTO  H143 3556   7.908   5.056   0.552
    9CHTO  H144 3557   7.905   5.129   0.394
    9CHTO   C87 3558   7.835   4.860   0.378
    9CHTO  H159 3559   7.909   4.889   0.303
    9CHTO   O53 3560   7.737   4.754   0.317
    9CHTO   C82 3561   7.663   4.805   0.206
    9CHTO  H154 3562   7.731   4.843   0.130
    9CHTO   C89 3563   7.585   4.687   0.142
    9CHTO   O59 3564   7.495   4.625   0.235
    9CHTO  H137 3565   7.450   4.555   0.193
    9CHTO   O45 3566   7.912   4.791   0.506
    9CHTO   C67 3567   7.951   4.654   0.492
    9CHTO  H124 3568   7.874   4.600   0.436
    9CHTO   C65 3569   8.088   4.639   0.416
    9CHTO  H122 3570   8.142   4.732   0.435
    9CHTO   O44 3571   8.057   4.632   0.276
    9CHTO  H102 3572   8.021   4.548   0.255
    9CHTO   C63 3573   8.180   4.526   0.478
    9CHTO  H120 3574   8.224   4.564   0.571
    9CHTO   N11 3575   8.304   4.492   0.400
    9CHTO  H108 3576   8.366   4.427   0.457
    9CHTO  H109 3577   8.358   4.581   0.377
    9CHTO   C61 3578   8.091   4.403   0.519
    9CHTO  H118 3579   8.158   4.332   0.570
    9CHTO   O40 3580   7.989   4.441   0.617
    9CHTO   C68 3581   7.956   4.583   0.632
    9CHTO  H125 3582   8.033   4.631   0.696
    9CHTO   C72 3583   7.821   4.595   0.707
    9CHTO   O48 3584   7.828   4.544   0.841
    9CHTO  H105 3585   7.882   4.600   0.893
    9CHTO   O38 3586   8.035   4.337   0.403
    9CHTO   C55 3587   7.909   4.266   0.410
    9CHTO  H112 3588   7.832   4.334   0.452
    9CHTO   C56 3589   7.919   4.131   0.493
    9CHTO  H113 3590   8.004   4.075   0.451
    9CHTO   O42 3591   7.952   4.159   0.630
    9CHTO  H100 3592   7.969   4.079   0.676
    9CHTO   C57 3593   7.786   4.047   0.482
    9CHTO  H114 3594   7.708   4.103   0.534
    9CHTO   N10 3595   7.795   3.914   0.548
    9CHTO  H106 3596   7.862   3.917   0.632
    9CHTO  H107 3597   7.697   3.883   0.582
    9CHTO   C58 3598   7.745   4.032   0.333
    9CHTO  H115 3599   7.819   3.968   0.280
    9CHTO   O37 3600   7.738   4.162   0.271
    9CHTO   C59 3601   7.861   4.234   0.266
    9CHTO  H116 3602   7.936   4.176   0.212
    9CHTO   C70 3603   7.839   4.364   0.187
    9CHTO   O46 3604   7.802   4.339   0.051
    9CHTO  H103 3605   7.790   4.421   0.006
    9CHTO   O39 3606   7.591   3.972   0.315
    9CHTO   C60 3607   7.580   3.832   0.288
    9CHTO  H117 3608   7.679   3.784   0.294
    9CHTO   C62 3609   7.486   3.765   0.392
    9CHTO  H119 3610   7.530   3.788   0.492
    9CHTO   O43 3611   7.355   3.825   0.387
    9CHTO  H101 3612   7.359   3.915   0.414
    9CHTO   C66 3613   7.485   3.607   0.370
    9CHTO  H123 3614   7.588   3.571   0.373
    9CHTO   N12 3615   7.413   3.535   0.479
    9CHTO  H110 3616   7.329   3.480   0.440
    9CHTO  H111 3617   7.481   3.470   0.532
    9CHTO   C69 3618   7.429   3.574   0.229
    9CHTO  H126 3619   7.322   3.601   0.223
    9CHTO   O41 3620   7.510   3.656   0.119
    9CHTO   C64 3621   7.528   3.805   0.143
    9CHTO  H121 3622   7.431   3.858   0.129
    9CHTO   C71 3623   7.626   3.853   0.034
    9CHTO   O47 3624   7.640   3.996   0.028
    9CHTO  H104 3625   7.683   4.027   0.105
    9CHTO   O34 3626   7.444   3.417   0.196
    9CHTO   C49 3627   7.542   3.353   0.091
    9CHTO   H91 3628   7.510   3.390   2.859
    9CHTO   C47 3629   7.529   3.199   0.096
    9CHTO   H89 3630   7.593   3.164   0.011
    9CHTO   O33 3631   7.394   3.158   0.070
    9CHTO   H70 3632   7.336   3.189   0.137
    9CHTO   C45 3633   7.580   3.141   0.237
    9CHTO   H87 3634   7.494   3.134   0.305
    9CHTO    N8 3635   7.633   3.003   0.215
    9CHTO   H75 3636   7.657   2.958   0.310
    9CHTO   H76 3637   7.721   3.007   0.153
    9CHTO   C43 3638   7.681   3.245   0.308
    9CHTO   H85 3639   7.616   3.318   0.357
    9CHTO   O29 3640   7.765   3.306   0.209
    9CHTO   C50 3641   7.693   3.389   0.115
    9CHTO   H92 3642   7.699   3.493   0.150
    9CHTO   C54 3643   7.774   3.390   2.849
    9CHTO   O36 3644   7.722   3.485   2.755
    9CHTO   H72 3645   7.772   3.482   2.676
    9CHTO   O27 3646   7.756   3.187   0.416
    9CHTO   C37 3647   7.785   3.231   0.550
    9CHTO   H79 3648   7.852   3.158   0.599
    9CHTO   C38 3649   7.861   3.367   0.548
    9CHTO   H80 3650   7.804   3.437   0.485
    9CHTO   O31 3651   7.989   3.343   0.488
    9CHTO   H68 3652   8.035   3.424   0.476
    9CHTO   C39 3653   7.875   3.427   0.693
    9CHTO   H81 3654   7.941   3.362   0.750
    9CHTO    N7 3655   7.937   3.564   0.694
    9CHTO   H73 3656   7.947   3.600   0.795
    9CHTO   H74 3657   7.876   3.633   0.637
    9CHTO   C40 3658   7.735   3.427   0.765
    9CHTO   H82 3659   7.669   3.498   0.714
    9CHTO   O26 3660   7.680   3.294   0.765
    9CHTO   C41 3661   7.653   3.242   0.632
    9CHTO   H83 3662   7.584   3.310   0.580
    9CHTO   C52 3663   7.582   3.106   0.647
    9CHTO   O35 3664   7.662   3.005   0.724
    9CHTO   H71 3665   7.739   2.983   0.676
    9CHTO   O28 3666   7.741   3.457   0.905
    9CHTO   C42 3667   7.639   3.541   0.967
    9CHTO   H84 3668   7.651   3.520   1.074
    9CHTO   C44 3669   7.489   3.506   0.933
    9CHTO   H86 3670   7.479   3.501   0.825
    9CHTO   O32 3671   7.462   3.375   0.985
    9CHTO   H69 3672   7.468   3.375   1.079
    9CHTO   C48 3673   7.386   3.614   0.985
    9CHTO   H90 3674   7.380   3.607   1.094
    9CHTO    N9 3675   7.247   3.589   0.935
    9CHTO   H77 3676   7.246   3.590   0.827
    9CHTO   H78 3677   7.211   3.494   0.972
    9CHTO   C51 3678   7.439   3.757   0.948
    9CHTO   H93 3679   7.446   3.763   0.839
    9CHTO   O30 3680   7.566   3.775   1.011
    9CHTO   C46 3681   7.670   3.693   0.947
    9CHTO   H88 3682   7.671   3.715   0.841
    9CHTO   C53 3683   7.806   3.733   1.009
    9CHTO   O72 3684   7.815   3.701   1.149
    9CHTO  H199 3685   7.819   3.608   1.160
    9CHTO   O22 3686   7.358   3.866   0.998
    9CHTO   C31 3687   7.357   3.995   0.927
    9CHTO   H59 3688   7.294   4.063   0.988
    9CHTO   C29 3689   7.495   4.063   0.913
    9CHTO   H57 3690   7.562   3.992   0.861
    9CHTO   O21 3691   7.549   4.081   1.046
    9CHTO   H37 3692   7.638   4.109   1.041
    9CHTO   C27 3693   7.490   4.198   0.830
    9CHTO   H55 3694   7.435   4.272   0.889
    9CHTO    N5 3695   7.626   4.252   0.802
    9CHTO   H43 3696   7.618   4.347   0.752
    9CHTO   H44 3697   7.681   4.182   0.741
    9CHTO   C25 3698   7.410   4.176   0.697
    9CHTO   H53 3699   7.466   4.108   0.631
    9CHTO   O17 3700   7.280   4.116   0.726
    9CHTO   C32 3701   7.287   3.987   0.788
    9CHTO   H60 3702   7.344   3.919   0.724
    9CHTO   C36 3703   7.142   3.933   0.801
    9CHTO   O25 3704   7.086   3.907   0.672
    9CHTO   H40 3705   6.998   3.876   0.682
    9CHTO   O15 3706   7.383   4.314   0.621
    9CHTO   C19 3707   7.331   4.334   0.486
    9CHTO   H47 3708   7.321   4.443   0.479
    9CHTO   C20 3709   7.428   4.285   0.375
    9CHTO   H48 3710   7.454   4.179   0.387
    9CHTO   O19 3711   7.549   4.361   0.390
    9CHTO   H35 3712   7.534   4.452   0.373
    9CHTO   C21 3713   7.365   4.303   0.231
    9CHTO   H49 3714   7.347   4.409   0.213
    9CHTO    N4 3715   7.453   4.256   0.120
    9CHTO   H41 3716   7.473   4.151   0.131
    9CHTO   H42 3717   7.405   4.274   0.025
    9CHTO   C22 3718   7.226   4.233   0.231
    9CHTO   H50 3719   7.241   4.127   0.251
    9CHTO   O14 3720   7.142   4.292   0.331
    9CHTO   C23 3721   7.186   4.276   0.467
    9CHTO   H51 3722   7.182   4.169   0.490
    9CHTO   C34 3723   7.082   4.350   0.552
    9CHTO   O23 3724   7.107   4.339   0.693
    9CHTO   H38 3725   7.185   4.387   0.715
    9CHTO   O16 3726   7.155   4.253   0.107
    9CHTO   C24 3727   7.046   4.144   0.078
    9CHTO   H52 3728   7.018   4.088   0.168
    9CHTO   C26 3729   7.099   4.046   2.837
    9CHTO   H54 3730   7.142   4.105   2.753
    9CHTO   O20 3731   7.207   3.970   0.030
    9CHTO   H36 3732   7.248   3.916   2.832
    9CHTO   C30 3733   6.986   3.953   2.780
    9CHTO   H58 3734   6.952   3.884   2.858
    9CHTO    N6 3735   7.035   3.869   2.668
    9CHTO   H45 3736   7.115   3.804   2.702
    9CHTO   H46 3737   7.073   3.931   2.587
    9CHTO   C33 3738   6.863   4.040   2.740
    9CHTO   H61 3739   6.892   4.110   2.659
    9CHTO   O18 3740   6.823   4.116   2.855
    9CHTO   C28 3741   6.918   4.216   0.028
    9CHTO   H56 3742   6.944   4.280   2.810
    9CHTO   C35 3743   6.857   4.303   0.140
    9CHTO   O24 3744   6.739   4.372   0.097
    9CHTO   H39 3745   6.706   4.424   0.168
    9CHTO    O9 3746   6.753   3.963   2.687
    9CHTO   C13 3747   6.645   4.056   2.599
    9CHTO   H26 3748   6.703   4.108   2.520
    9CHTO   C11 3749   6.570   4.158   2.694
    9CHTO   H24 3750   6.637   4.244   2.711
    9CHTO    O8 3751   6.545   4.095   2.821
    9CHTO    H3 3752   6.509   4.157   0.016
    9CHTO    C9 3753   6.440   4.205   2.625
    9CHTO   H22 3754   6.469   4.236   2.524
    9CHTO    N2 3755   6.380   4.327   2.686
    9CHTO   H10 3756   6.453   4.407   2.688
    9CHTO   H11 3757   6.293   4.357   2.630
    9CHTO    C7 3758   6.342   4.081   2.616
    9CHTO   H20 3759   6.273   4.108   2.534
    9CHTO    O4 3760   6.411   3.958   2.584
    9CHTO   C14 3761   6.539   3.965   2.519
    9CHTO   H27 3762   6.523   4.010   2.418
    9CHTO   C18 3763   6.589   3.820   2.495
    9CHTO   O13 3764   6.710   3.818   2.419
    9CHTO    H7 3765   6.693   3.849   2.332
    9CHTO    O2 3766   6.262   4.058   2.759
    9CHTO    C1 3767   6.123   4.022   2.763
    9CHTO   H14 3768   6.114   3.937   2.832
    9CHTO    C2 3769   6.050   3.984   2.627
    9CHTO   H15 3770   6.062   4.070   2.559
    9CHTO    O6 3771   6.114   3.868   2.572
    9CHTO    H1 3772   6.202   3.888   2.546
    9CHTO    C3 3773   5.894   3.957   2.653
    9CHTO   H16 3774   5.885   3.865   2.713
    9CHTO    N1 3775   5.818   3.934   2.526
    9CHTO    H8 3776   5.714   3.915   2.548
    9CHTO    H9 3777   5.859   3.849   2.473
    9CHTO    C4 3778   5.829   4.070   2.741
    9CHTO   H17 3779   5.816   4.160   2.680
    9CHTO    O1 3780   5.909   4.099   2.857
    9CHTO    C5 3781   6.045   4.139   2.831
    9CHTO   H18 3782   6.045   4.224   2.763
    9CHTO   C16 3783   6.107   4.184   0.101
    9CHTO   O11 3784   6.108   4.078   0.197
    9CHTO    H5 3785   6.146   4.109   0.277
    9CHTO    O3 3786   5.705   4.026   2.800
    9CHTO    C6 3787   5.589   4.118   2.797
    9CHTO   H19 3788   5.605   4.204   2.732
    9CHTO    C8 3789   5.465   4.038   2.744
    9CHTO   H21 3790   5.461   3.943   2.797
    9CHTO    O7 3791   5.486   4.014   2.604
    9CHTO    H2 3792   5.486   4.095   2.556
    9CHTO   C12 3793   5.329   4.115   2.772
    9CHTO   H25 3794   5.331   4.207   2.709
    9CHTO    N3 3795   5.210   4.035   2.729
    9CHTO   H12 3796   5.216   4.014   2.623
    9CHTO   H13 3797   5.119   4.089   2.752
    9CHTO   C15 3798   5.325   4.158   0.057
    9CHTO   H28 3799   5.324   4.072   0.123
    9CHTO   O10 3800   5.207   4.251   0.091
    9CHTO    H4 3801   5.126   4.204   0.081
    9CHTO    O5 3802   5.438   4.242   0.086
    9CHTO   C10 3803   5.564   4.174   0.075
    9CHTO   H23 3804   5.566   4.092   0.146
    9CHTO   C17 3805   5.674   4.273   0.118
    9CHTO   O12 3806   5.658   4.315   0.254
    9CHTO    H6 3807   5.726   4.375   0.276
   10CHTO  H203 3808   4.862   6.225   2.722
   10CHTO   O82 3809   4.795   6.184   2.773
   10CHTO  C123 3810   4.666   6.213   2.717
   10CHTO  H227 3811   4.661   6.173   2.615
   10CHTO   O77 3812   4.575   6.138   2.804
   10CHTO  C118 3813   4.436   6.150   2.772
   10CHTO  H222 3814   4.418   6.118   2.668
   10CHTO  C125 3815   4.355   6.055   0.002
   10CHTO   O84 3816   4.386   5.918   2.843
   10CHTO  H205 3817   4.338   5.864   0.037
   10CHTO  C114 3818   4.393   6.298   2.788
   10CHTO  H218 3819   4.414   6.329   0.024
   10CHTO  C116 3820   4.477   6.387   2.692
   10CHTO  H220 3821   4.454   6.361   2.586
   10CHTO   O79 3822   4.435   6.524   2.710
   10CHTO  H201 3823   4.480   6.580   2.649
   10CHTO  C120 3824   4.632   6.368   2.720
   10CHTO  H224 3825   4.651   6.409   2.822
   10CHTO   N21 3826   4.717   6.446   2.626
   10CHTO  H211 3827   4.670   6.455   2.529
   10CHTO  H212 3828   4.815   6.402   2.617
   10CHTO   O75 3829   4.251   6.303   2.761
   10CHTO  C112 3830   4.167   6.380   0.016
   10CHTO  H216 3831   4.225   6.468   0.049
   10CHTO   O73 3832   4.150   6.285   0.122
   10CHTO  C113 3833   4.086   6.339   0.239
   10CHTO  H217 3834   4.148   6.423   0.277
   10CHTO  C124 3835   4.088   6.230   0.348
   10CHTO   O83 3836   4.033   6.105   0.307
   10CHTO  H204 3837   4.087   6.066   0.241
   10CHTO  C109 3838   3.943   6.390   0.208
   10CHTO  H213 3839   3.882   6.302   0.184
   10CHTO  C110 3840   3.945   6.488   0.087
   10CHTO  H214 3841   3.991   6.582   0.120
   10CHTO   O78 3842   3.809   6.518   0.052
   10CHTO  H200 3843   3.806   6.585   2.851
   10CHTO  C111 3844   4.025   6.429   2.833
   10CHTO  H215 3845   3.971   6.341   2.795
   10CHTO   N19 3846   4.039   6.523   2.719
   10CHTO  H207 3847   3.942   6.549   2.680
   10CHTO  H208 3848   4.091   6.612   2.751
   10CHTO   O74 3849   3.890   6.454   0.329
   10CHTO  C115 3850   3.728   6.451   0.359
   10CHTO  H219 3851   3.676   6.533   0.309
   10CHTO   O76 3852   3.660   6.322   0.304
   10CHTO  C122 3853   3.701   6.205   0.376
   10CHTO  H226 3854   3.809   6.200   0.371
   10CHTO  C126 3855   3.649   6.078   0.301
   10CHTO   O85 3856   3.705   6.063   0.170
   10CHTO  H206 3857   3.797   6.044   0.177
   10CHTO  C121 3858   3.657   6.208   0.528
   10CHTO  H225 3859   3.567   6.143   0.540
   10CHTO   O81 3860   3.765   6.153   0.605
   10CHTO  H202 3861   3.775   6.061   0.586
   10CHTO  C119 3862   3.623   6.351   0.580
   10CHTO  H223 3863   3.520   6.369   0.551
   10CHTO  C117 3864   3.713   6.465   0.517
   10CHTO  H221 3865   3.815   6.465   0.554
   10CHTO   N20 3866   3.660   6.602   0.554
   10CHTO  H209 3867   3.564   6.595   0.603
   10CHTO  H210 3868   3.654   6.667   0.468
   10CHTO   O80 3869   3.613   6.360   0.744
   10CHTO  C103 3870   3.492   6.295   0.821
   10CHTO  H190 3871   3.402   6.292   0.759
   10CHTO  C101 3872   3.518   6.153   0.885
   10CHTO  H188 3873   3.617   6.154   0.931
   10CHTO   O68 3874   3.518   6.047   0.772
   10CHTO  H168 3875   3.543   5.963   0.807
   10CHTO   C99 3876   3.411   6.118   1.000
   10CHTO  H186 3877   3.310   6.108   0.952
   10CHTO   N17 3878   3.438   5.988   1.070
   10CHTO  H174 3879   3.444   6.001   1.177
   10CHTO  H175 3880   3.363   5.914   1.044
   10CHTO   C97 3881   3.398   6.237   1.099
   10CHTO  H184 3882   3.494   6.249   1.153
   10CHTO   O64 3883   3.363   6.356   1.026
   10CHTO  C104 3884   3.464   6.401   0.936
   10CHTO  H191 3885   3.558   6.421   0.989
   10CHTO  C108 3886   3.420   6.536   0.877
   10CHTO   O71 3887   3.411   6.637   0.978
   10CHTO  H171 3888   3.496   6.659   1.009
   10CHTO   O62 3889   3.287   6.224   1.190
   10CHTO   C91 3890   3.317   6.212   1.331
   10CHTO  H178 3891   3.400   6.142   1.341
   10CHTO   C92 3892   3.193   6.145   1.399
   10CHTO  H179 3893   3.160   6.058   1.339
   10CHTO   O66 3894   3.237   6.090   1.525
   10CHTO  H166 3895   3.168   6.040   1.564
   10CHTO   C93 3896   3.075   6.246   1.427
   10CHTO  H180 3897   3.006   6.196   1.497
   10CHTO   N16 3898   2.991   6.274   1.308
   10CHTO  H172 3899   2.912   6.343   1.334
   10CHTO  H173 3900   2.949   6.182   1.269
   10CHTO   C94 3901   3.129   6.378   1.495
   10CHTO  H181 3902   3.115   6.466   1.430
   10CHTO   O61 3903   3.270   6.374   1.522
   10CHTO   C95 3904   3.352   6.349   1.405
   10CHTO  H182 3905   3.339   6.432   1.335
   10CHTO  C106 3906   3.502   6.352   1.450
   10CHTO   O69 3907   3.538   6.481   1.501
   10CHTO  H169 3908   3.628   6.482   1.526
   10CHTO   O63 3909   3.046   6.404   1.633
   10CHTO   C96 3910   3.095   6.321   1.764
   10CHTO  H183 3911   3.186   6.267   1.740
   10CHTO   C98 3912   2.990   6.220   1.818
   10CHTO  H185 3913   2.890   6.267   1.821
   10CHTO   O67 3914   2.979   6.114   1.721
   10CHTO  H167 3915   2.911   6.054   1.746
   10CHTO  C102 3916   3.027   6.160   1.963
   10CHTO  H189 3917   3.116   6.097   1.948
   10CHTO   N18 3918   2.924   6.071   2.022
   10CHTO  H176 3919   2.957   6.034   2.118
   10CHTO  H177 3920   2.831   6.125   2.035
   10CHTO  C105 3921   3.066   6.277   2.058
   10CHTO  H192 3922   2.978   6.338   2.078
   10CHTO   O65 3923   3.168   6.360   2.000
   10CHTO  C100 3924   3.129   6.426   1.878
   10CHTO  H187 3925   3.040   6.487   1.898
   10CHTO  C107 3926   3.242   6.523   1.837
   10CHTO   O70 3927   3.364   6.453   1.809
   10CHTO  H170 3928   3.355   6.402   1.731
   10CHTO   O57 3929   3.125   6.213   2.197
   10CHTO   C85 3930   3.074   6.263   2.321
   10CHTO  H157 3931   2.963   6.262   2.311
   10CHTO   C83 3932   3.113   6.413   2.341
   10CHTO  H155 3933   3.067   6.471   2.260
   10CHTO   O56 3934   3.256   6.429   2.324
   10CHTO  H135 3935   3.302   6.384   2.393
   10CHTO   C81 3936   3.057   6.463   2.477
   10CHTO  H153 3937   2.950   6.445   2.478
   10CHTO   N14 3938   3.070   6.610   2.495
   10CHTO  H141 3939   3.173   6.638   2.497
   10CHTO  H142 3940   3.021   6.661   2.414
   10CHTO   C79 3941   3.121   6.379   2.594
   10CHTO  H151 3942   3.073   6.412   2.687
   10CHTO   O52 3943   3.087   6.238   2.578
   10CHTO   C86 3944   3.122   6.180   2.448
   10CHTO  H158 3945   3.233   6.175   2.450
   10CHTO   C90 3946   3.072   6.034   2.440
   10CHTO   O60 3947   2.930   6.026   2.454
   10CHTO  H138 3948   2.903   5.936   2.449
   10CHTO   O50 3949   3.264   6.394   2.608
   10CHTO   C73 3950   3.355   6.380   2.718
   10CHTO  H145 3951   3.339   6.283   2.768
   10CHTO   C74 3952   3.334   6.494   2.822
   10CHTO  H146 3953   3.229   6.488   2.856
   10CHTO   O54 3954   3.416   6.466   0.072
   10CHTO  H133 3955   3.402   6.531   0.137
   10CHTO   C75 3956   3.366   6.632   2.753
   10CHTO  H147 3957   3.296   6.646   2.670
   10CHTO   N13 3958   3.345   6.749   2.842
   10CHTO  H139 3959   3.369   6.840   2.788
   10CHTO  H140 3960   3.242   6.754   0.007
   10CHTO   C76 3961   3.513   6.628   2.690
   10CHTO  H148 3962   3.585   6.622   2.772
   10CHTO   O49 3963   3.530   6.512   2.603
   10CHTO   C77 3964   3.502   6.386   2.666
   10CHTO  H149 3965   3.570   6.370   2.750
   10CHTO   C88 3966   3.531   6.272   2.567
   10CHTO   O58 3967   3.674   6.268   2.531
   10CHTO  H136 3968   3.690   6.195   2.474
   10CHTO   O51 3969   3.536   6.751   2.595
   10CHTO   C78 3970   3.681   6.809   2.601
   10CHTO  H150 3971   3.755   6.730   2.624
   10CHTO   C80 3972   3.688   6.919   2.710
   10CHTO  H152 3973   3.602   6.988   2.696
   10CHTO   O55 3974   3.673   6.854   2.837
   10CHTO  H134 3975   3.667   6.918   0.039
   10CHTO   C84 3976   3.824   7.000   2.703
   10CHTO  H156 3977   3.905   6.932   2.730
   10CHTO   N15 3978   3.827   7.114   2.802
   10CHTO  H143 3979   3.818   7.076   0.035
   10CHTO  H144 3980   3.747   7.181   2.782
   10CHTO   C87 3981   3.848   7.049   2.559
   10CHTO  H159 3982   3.772   7.122   2.530
   10CHTO   O53 3983   3.844   6.927   2.463
   10CHTO   C82 3984   3.714   6.865   2.461
   10CHTO  H154 3985   3.639   6.937   2.430
   10CHTO   C89 3986   3.714   6.751   2.356
   10CHTO   O59 3987   3.733   6.803   2.224
   10CHTO  H137 3988   3.733   6.732   2.162
   10CHTO   O45 3989   3.993   7.116   2.546
   10CHTO   C67 3990   4.025   7.169   2.417
   10CHTO  H124 3991   3.991   7.101   2.338
   10CHTO   C65 3992   3.961   7.309   2.394
   10CHTO  H122 3993   3.855   7.299   2.421
   10CHTO   O44 3994   3.970   7.347   2.256
   10CHTO  H102 3995   4.059   7.362   2.232
   10CHTO   C63 3996   4.021   7.410   2.498
   10CHTO  H120 3997   4.004   7.371   2.598
   10CHTO   N11 3998   3.953   7.544   2.506
   10CHTO  H108 3999   3.991   7.600   2.588
   10CHTO  H109 4000   3.847   7.530   2.518
   10CHTO   C61 4001   4.178   7.419   2.479
   10CHTO  H118 4002   4.214   7.469   2.570
   10CHTO   O40 4003   4.242   7.288   2.477
   10CHTO   C68 4004   4.182   7.174   2.405
   10CHTO  H125 4005   4.222   7.083   2.455
   10CHTO   C72 4006   4.232   7.169   2.259
   10CHTO   O48 4007   4.193   7.050   2.191
   10CHTO  H105 4008   4.100   7.049   2.177
   10CHTO   O38 4009   4.219   7.489   2.360
   10CHTO   C55 4010   4.303   7.608   2.358
   10CHTO  H112 4011   4.390   7.580   2.297
   10CHTO   C56 4012   4.345   7.670   2.498
   10CHTO  H113 4013   4.254   7.680   2.559
   10CHTO   O42 4014   4.431   7.577   2.568
   10CHTO  H100 4015   4.384   7.500   2.590
   10CHTO   C57 4016   4.417   7.810   2.484
   10CHTO  H114 4017   4.517   7.791   2.443
   10CHTO   N10 4018   4.436   7.881   2.613
   10CHTO  H106 4019   4.356   7.857   2.682
   10CHTO  H107 4020   4.530   7.853   2.657
   10CHTO   C58 4021   4.341   7.902   2.384
   10CHTO  H115 4022   4.244   7.934   2.430
   10CHTO   O37 4023   4.315   7.833   2.261
   10CHTO   C59 4024   4.230   7.717   2.273
   10CHTO  H116 4025   4.136   7.746   2.321
   10CHTO   C70 4026   4.196   7.667   2.132
   10CHTO   O46 4027   4.310   7.627   2.055
   10CHTO  H103 4028   4.350   7.551   2.094
   10CHTO   O39 4029   4.434   8.035   2.342
   10CHTO   C60 4030   4.363   8.160   2.332
   10CHTO  H117 4031   4.258   8.146   2.358
   10CHTO   C62 4032   4.424   8.266   2.429
   10CHTO  H119 4033   4.410   8.225   2.532
   10CHTO   O43 4034   4.565   8.279   2.403
   10CHTO  H101 4035   4.604   8.338   2.465
   10CHTO   C66 4036   4.344   8.405   2.416
   10CHTO  H123 4037   4.238   8.387   2.434
   10CHTO   N12 4038   4.387   8.504   2.518
   10CHTO  H110 4039   4.492   8.525   2.508
   10CHTO  H111 4040   4.364   8.468   2.617
   10CHTO   C69 4041   4.359   8.459   2.271
   10CHTO  H126 4042   4.467   8.474   2.247
   10CHTO   O41 4043   4.299   8.353   2.173
   10CHTO   C64 4044   4.366   8.212   2.185
   10CHTO  H121 4045   4.472   8.218   2.151
   10CHTO   C71 4046   4.291   8.115   2.091
   10CHTO   O47 4047   4.302   8.157   1.955
   10CHTO  H104 4048   4.255   8.097   1.900
   10CHTO   O34 4049   4.284   8.599   2.250
   10CHTO   C49 4050   4.158   8.673   2.201
   10CHTO   H91 4051   4.171   8.776   2.237
   10CHTO   C47 4052   4.031   8.614   2.267
   10CHTO   H89 4053   4.037   8.647   2.373
   10CHTO   O33 4054   4.032   8.470   2.263
   10CHTO   H70 4055   4.033   8.439   2.175
   10CHTO   C45 4056   3.895   8.665   2.194
   10CHTO   H87 4057   3.858   8.582   2.132
   10CHTO    N8 4058   3.790   8.696   2.294
   10CHTO   H75 4059   3.697   8.718   2.244
   10CHTO   H76 4060   3.776   8.612   2.361
   10CHTO   C43 4061   3.923   8.782   2.089
   10CHTO   H85 4062   3.827   8.803   2.040
   10CHTO   O29 4063   4.022   8.735   1.994
   10CHTO   C50 4064   4.143   8.677   2.046
   10CHTO   H92 4065   4.152   8.574   2.009
   10CHTO   C54 4066   4.263   8.750   1.982
   10CHTO   O36 4067   4.264   8.735   1.840
   10CHTO   H72 4068   4.337   8.782   1.803
   10CHTO   O27 4069   3.964   8.906   2.149
   10CHTO   C37 4070   4.008   9.034   2.101
   10CHTO   H79 4071   4.112   9.028   2.068
   10CHTO   C38 4072   3.923   9.080   1.979
   10CHTO   H80 4073   3.816   9.068   2.003
   10CHTO   O31 4074   3.956   8.993   1.869
   10CHTO   H68 4075   3.899   9.009   1.796
   10CHTO   C39 4076   3.951   9.230   1.939
   10CHTO   H81 4077   4.051   9.234   1.898
   10CHTO    N7 4078   3.858   9.281   1.832
   10CHTO   H73 4079   3.869   9.222   1.742
   10CHTO   H74 4080   3.756   9.276   1.867
   10CHTO   C40 4081   3.952   9.325   2.064
   10CHTO   H82 4082   3.850   9.339   2.101
   10CHTO   O26 4083   4.038   9.271   2.166
   10CHTO   C41 4084   3.997   9.140   2.215
   10CHTO   H83 4085   3.893   9.145   2.251
   10CHTO   C52 4086   4.086   9.103   2.335
   10CHTO   O35 4087   4.072   9.198   2.446
   10CHTO   H71 4088   4.128   9.172   2.517
   10CHTO   O28 4089   4.012   9.452   2.032
   10CHTO   C42 4090   3.971   9.576   2.096
   10CHTO   H84 4091   3.945   9.548   2.199
   10CHTO   C44 4092   3.845   9.647   2.037
   10CHTO   H86 4093   3.862   9.665   1.930
   10CHTO   O32 4094   3.734   9.555   2.048
   10CHTO   H69 4095   3.658   9.590   2.007
   10CHTO   C48 4096   3.815   9.786   2.106
   10CHTO   H90 4097   3.786   9.766   2.209
   10CHTO    N9 4098   3.698   9.857   2.044
   10CHTO   H77 4099   3.609   9.798   2.054
   10CHTO   H78 4100   3.719   9.878   1.940
   10CHTO   C51 4101   3.946   9.873   2.107
   10CHTO   H93 4102   3.976   9.891   2.004
   10CHTO   O30 4103   4.046   9.799   2.179
   10CHTO   C46 4104   4.089   9.677   2.105
   10CHTO   H88 4105   4.119   9.707   2.004
   10CHTO   C53 4106   4.211   9.616   2.179
   10CHTO   O72 4107   4.323   9.704   2.173
   10CHTO  H199 4108   4.396   9.665   2.217
   10CHTO   O22 4109   3.930   9.999   2.177
   10CHTO   C31 4110   4.033   0.105   2.179
   10CHTO   H59 4111   3.985   0.192   2.230
   10CHTO   C29 4112   4.159   0.069   2.262
   10CHTO   H57 4113   4.205   9.980   2.216
   10CHTO   O21 4114   4.115   0.030   2.394
   10CHTO   H37 4115   4.186   9.995   2.443
   10CHTO   C27 4116   4.265   0.186   2.265
   10CHTO   H55 4117   4.220   0.272   2.317
   10CHTO    N5 4118   4.391   0.149   2.337
   10CHTO   H43 4119   4.477   0.161   2.274
   10CHTO   H44 4120   4.386   0.048   2.375
   10CHTO   C25 4121   4.293   0.231   2.118
   10CHTO   H53 4122   4.341   0.148   2.063
   10CHTO   O17 4123   4.168   0.266   2.052
   10CHTO   C32 4124   4.076   0.157   2.037
   10CHTO   H60 4125   4.123   0.075   1.982
   10CHTO   C36 4126   3.959   0.214   1.954
   10CHTO   O25 4127   3.871   0.113   1.905
   10CHTO   H40 4128   3.915   0.061   1.841
   10CHTO   O15 4129   4.388   0.358   2.112
   10CHTO   C19 4130   4.409   0.448   2.000
   10CHTO   H47 4131   4.337   0.415   1.924
   10CHTO   C20 4132   4.381   0.598   2.035
   10CHTO   H48 4133   4.447   0.634   2.115
   10CHTO   O19 4134   4.245   0.604   2.081
   10CHTO   H35 4135   4.227   0.690   2.114
   10CHTO   C21 4136   4.402   0.692   1.909
   10CHTO   H49 4137   4.324   0.669   1.835
   10CHTO    N4 4138   4.388   0.837   1.941
   10CHTO   H41 4139   4.364   0.852   2.045
   10CHTO   H42 4140   4.478   0.891   1.917
   10CHTO   C22 4141   4.538   0.659   1.841
   10CHTO   H50 4142   4.619   0.694   1.905
   10CHTO   O14 4143   4.553   0.518   1.817
   10CHTO   C23 4144   4.550   0.436   1.935
   10CHTO   H51 4145   4.630   0.471   2.003
   10CHTO   C34 4146   4.586   0.293   1.893
   10CHTO   O23 4147   4.612   0.209   2.006
   10CHTO   H38 4148   4.633   0.123   1.976
   10CHTO   O16 4149   4.547   0.718   1.710
   10CHTO   C24 4150   4.698   0.750   1.668
   10CHTO   H52 4151   4.770   0.701   1.734
   10CHTO   C26 4152   4.721   0.902   1.671
   10CHTO   H54 4153   4.642   0.950   1.609
   10CHTO   O20 4154   4.705   0.948   1.807
   10CHTO   H36 4155   4.615   0.940   1.834
   10CHTO   C30 4156   4.860   0.942   1.615
   10CHTO   H58 4157   4.938   0.916   1.689
   10CHTO    N6 4158   4.871   1.089   1.595
   10CHTO   H45 4159   4.798   1.123   1.523
   10CHTO   H46 4160   4.970   1.115   1.560
   10CHTO   C33 4161   4.898   0.864   1.485
   10CHTO   H61 4162   4.844   0.906   1.398
   10CHTO   O18 4163   4.864   0.724   1.496
   10CHTO   C28 4164   4.726   0.697   1.525
   10CHTO   H56 4165   4.660   0.748   1.455
   10CHTO   C35 4166   4.701   0.545   1.515
   10CHTO   O24 4167   4.720   0.494   1.383
   10CHTO   H39 4168   4.652   0.525   1.327
   10CHTO    O9 4169   5.038   0.881   1.456
   10CHTO   C13 4170   5.085   0.838   1.306
   10CHTO   H26 4171   5.013   0.881   1.234
   10CHTO   C11 4172   5.092   0.679   1.294
   10CHTO   H24 4173   4.988   0.642   1.285
   10CHTO    O8 4174   5.148   0.622   1.414
   10CHTO    H3 4175   5.236   0.652   1.427
   10CHTO    C9 4176   5.172   0.643   1.166
   10CHTO   H22 4177   5.124   0.700   1.085
   10CHTO    N2 4178   5.157   0.501   1.125
   10CHTO   H10 4179   5.052   0.476   1.116
   10CHTO   H11 4180   5.208   0.484   1.032
   10CHTO    C7 4181   5.321   0.694   1.183
   10CHTO   H20 4182   5.349   0.727   1.080
   10CHTO    O4 4183   5.333   0.806   1.273
   10CHTO   C14 4184   5.227   0.902   1.268
   10CHTO   H27 4185   5.221   0.942   1.164
   10CHTO   C18 4186   5.268   1.021   1.359
   10CHTO   O13 4187   5.175   1.129   1.347
   10CHTO    H7 4188   5.200   1.199   1.405
   10CHTO    O2 4189   5.424   0.577   1.233
   10CHTO    C1 4190   5.562   0.592   1.198
   10CHTO   H14 4191   5.591   0.699   1.209
   10CHTO    C2 4192   5.595   0.546   1.049
   10CHTO   H15 4193   5.537   0.454   1.034
   10CHTO    O6 4194   5.548   0.645   0.956
   10CHTO    H1 4195   5.591   0.727   0.970
   10CHTO    C3 4196   5.752   0.517   1.025
   10CHTO   H16 4197   5.805   0.613   1.019
   10CHTO    N1 4198   5.777   0.444   0.896
   10CHTO    H8 4199   5.684   0.427   0.842
   10CHTO    H9 4200   5.844   0.501   0.833
   10CHTO    C4 4201   5.814   0.442   1.148
   10CHTO   H17 4202   5.770   0.342   1.155
   10CHTO    O1 4203   5.785   0.516   1.267
   10CHTO    C5 4204   5.646   0.512   1.302
   10CHTO   H18 4205   5.611   0.409   1.302
   10CHTO   C16 4206   5.634   0.569   1.446
   10CHTO   O11 4207   5.505   0.542   1.502
   10CHTO    H5 4208   5.440   0.592   1.457
   10CHTO    O3 4209   5.959   0.433   1.146
   10CHTO    C6 4210   6.016   0.299   1.163
   10CHTO   H19 4211   5.941   0.219   1.156
   10CHTO    C8 4212   6.123   0.272   1.052
   10CHTO   H21 4213   6.198   0.351   1.057
   10CHTO    O7 4214   6.056   0.276   0.925
   10CHTO    H2 4215   6.118   0.272   0.855
   10CHTO   C12 4216   6.194   0.132   1.076
   10CHTO   H25 4217   6.116   0.054   1.059
   10CHTO    N3 4218   6.302   0.107   0.975
   10CHTO   H12 4219   6.261   0.107   0.876
   10CHTO   H13 4220   6.379   0.182   0.984
   10CHTO   C15 4221   6.243   0.120   1.225
   10CHTO   H28 4222   6.330   0.184   1.243
   10CHTO   O10 4223   6.276   9.975   1.265
   10CHTO    H4 4224   6.348   9.943   1.213
   10CHTO    O5 4225   6.139   0.152   1.317
   10CHTO   C10 4226   6.084   0.284   1.302
   10CHTO   H23 4227   6.164   0.357   1.312
   10CHTO   C17 4228   5.987   0.307   1.419
   10CHTO   O12 4229   6.055   0.308   1.545
   10CHTO    H6 4230   6.086   0.222   1.566
   11CHTO  H203 4231   7.114   5.118   0.492
   11CHTO   O82 4232   7.185   5.161   0.449
   11CHTO  C123 4233   7.198   5.297   0.494
   11CHTO  H227 4234   7.285   5.343   0.444
   11CHTO   O77 4235   7.075   5.360   0.446
   11CHTO  C118 4236   7.064   5.500   0.476
   11CHTO  H222 4237   7.152   5.553   0.436
   11CHTO  C125 4238   6.935   5.556   0.403
   11CHTO   O84 4239   6.815   5.489   0.444
   11CHTO  H205 4240   6.796   5.511   0.534
   11CHTO  C114 4241   7.058   5.519   0.628
   11CHTO  H218 4242   6.974   5.463   0.668
   11CHTO  C116 4243   7.188   5.461   0.694
   11CHTO  H220 4244   7.275   5.521   0.660
   11CHTO   O79 4245   7.179   5.478   0.837
   11CHTO  H201 4246   7.108   5.428   0.872
   11CHTO  C120 4247   7.208   5.310   0.651
   11CHTO  H224 4248   7.126   5.252   0.699
   11CHTO   N21 4249   7.336   5.254   0.702
   11CHTO  H211 4250   7.326   5.147   0.717
   11CHTO  H212 4251   7.364   5.302   0.795
   11CHTO   O75 4252   7.041   5.660   0.650
   11CHTO  C112 4253   6.923   5.698   0.762
   11CHTO  H216 4254   6.951   5.654   0.860
   11CHTO   O73 4255   6.799   5.643   0.714
   11CHTO  C113 4256   6.683   5.675   0.793
   11CHTO  H217 4257   6.701   5.642   0.898
   11CHTO  C124 4258   6.563   5.595   0.739
   11CHTO   O83 4259   6.581   5.454   0.752
   11CHTO  H204 4260   6.577   5.429   0.842
   11CHTO  C109 4261   6.659   5.828   0.788
   11CHTO  H213 4262   6.649   5.855   0.682
   11CHTO  C110 4263   6.783   5.898   0.849
   11CHTO  H214 4264   6.790   5.871   0.955
   11CHTO   O78 4265   6.764   6.041   0.844
   11CHTO  H200 4266   6.757   6.070   0.755
   11CHTO  C111 4267   6.913   5.855   0.775
   11CHTO  H215 4268   6.910   5.896   0.673
   11CHTO   N19 4269   7.037   5.909   0.837
   11CHTO  H207 4270   7.045   5.874   0.940
   11CHTO  H208 4271   7.036   6.017   0.835
   11CHTO   O74 4272   6.537   5.865   0.859
   11CHTO  C115 4273   6.440   5.960   0.770
   11CHTO  H219 4274   6.489   5.992   0.677
   11CHTO   O76 4275   6.311   5.882   0.721
   11CHTO  C122 4276   6.224   5.842   0.827
   11CHTO  H226 4277   6.271   5.757   0.878
   11CHTO  C126 4278   6.094   5.785   0.760
   11CHTO   O85 4279   5.998   5.737   0.856
   11CHTO  H206 4280   5.963   5.808   0.905
   11CHTO  C121 4281   6.192   5.959   0.929
   11CHTO  H225 4282   6.081   5.967   0.941
   11CHTO   O81 4283   6.244   5.925   1.059
   11CHTO  H202 4284   6.214   5.987   1.123
   11CHTO  C119 4285   6.246   6.095   0.878
   11CHTO  H223 4286   6.202   6.107   0.779
   11CHTO  C117 4287   6.402   6.088   0.857
   11CHTO  H221 4288   6.461   6.079   0.948
   11CHTO   N20 4289   6.452   6.214   0.792
   11CHTO  H209 4290   6.427   6.300   0.853
   11CHTO  H210 4291   6.559   6.209   0.779
   11CHTO   O80 4292   6.185   6.223   0.954
   11CHTO  C103 4293   6.213   6.247   1.107
   11CHTO  H190 4294   6.246   6.155   1.157
   11CHTO  C101 4295   6.317   6.362   1.138
   11CHTO  H188 4296   6.302   6.442   1.065
   11CHTO   O68 4297   6.461   6.306   1.118
   11CHTO  H168 4298   6.480   6.240   1.182
   11CHTO   C99 4299   6.299   6.424   1.285
   11CHTO  H186 4300   6.324   6.347   1.360
   11CHTO   N17 4301   6.385   6.544   1.312
   11CHTO  H174 4302   6.440   6.573   1.223
   11CHTO  H175 4303   6.453   6.523   1.394
   11CHTO   C97 4304   6.149   6.456   1.307
   11CHTO  H184 4305   6.117   6.529   1.230
   11CHTO   O64 4306   6.075   6.334   1.297
   11CHTO  C104 4307   6.069   6.282   1.163
   11CHTO  H191 4308   6.021   6.353   1.096
   11CHTO  C108 4309   5.980   6.157   1.164
   11CHTO   O71 4310   5.846   6.186   1.204
   11CHTO  H171 4311   5.843   6.207   1.295
   11CHTO   O62 4312   6.117   6.505   1.439
   11CHTO   C91 4313   6.003   6.593   1.450
   11CHTO  H178 4314   5.940   6.580   1.362
   11CHTO   C92 4315   6.053   6.742   1.448
   11CHTO  H179 4316   6.143   6.750   1.512
   11CHTO   O66 4317   6.099   6.769   1.314
   11CHTO  H166 4318   6.137   6.855   1.310
   11CHTO   C93 4319   5.942   6.843   1.494
   11CHTO  H180 4320   5.859   6.836   1.423
   11CHTO   N16 4321   5.984   6.986   1.493
   11CHTO  H172 4322   5.902   7.049   1.525
   11CHTO  H173 4323   6.016   7.014   1.394
   11CHTO   C94 4324   5.893   6.797   1.635
   11CHTO  H181 4325   5.977   6.781   1.704
   11CHTO   O61 4326   5.828   6.670   1.618
   11CHTO   C95 4327   5.913   6.562   1.578
   11CHTO  H182 4328   5.977   6.534   1.661
   11CHTO  C106 4329   5.817   6.440   1.551
   11CHTO   O69 4330   5.890   6.321   1.519
   11CHTO  H169 4331   5.830   6.251   1.504
   11CHTO   O63 4332   5.784   6.898   1.701
   11CHTO   C96 4333   5.822   6.935   1.845
   11CHTO  H183 4334   5.926   6.968   1.843
   11CHTO   C98 4335   5.810   6.816   1.946
   11CHTO  H185 4336   5.759   6.731   1.897
   11CHTO   O67 4337   5.943   6.769   1.973
   11CHTO  H167 4338   5.981   6.730   1.896
   11CHTO  C102 4339   5.740   6.850   2.087
   11CHTO  H189 4340   5.784   6.781   2.160
   11CHTO   N18 4341   5.593   6.825   2.093
   11CHTO  H176 4342   5.573   6.720   2.077
   11CHTO  H177 4343   5.543   6.884   2.018
   11CHTO  C105 4344   5.775   6.995   2.130
   11CHTO  H192 4345   5.708   7.027   2.210
   11CHTO   O65 4346   5.771   7.097   2.027
   11CHTO  C100 4347   5.738   7.060   1.892
   11CHTO  H187 4348   5.631   7.034   1.888
   11CHTO  C107 4349   5.762   7.181   1.799
   11CHTO   O70 4350   5.673   7.289   1.831
   11CHTO  H170 4351   5.689   7.361   1.773
   11CHTO   O57 4352   5.920   6.980   2.189
   11CHTO   C85 4353   5.954   7.056   2.306
   11CHTO  H157 4354   5.866   7.051   2.372
   11CHTO   C83 4355   5.970   7.207   2.268
   11CHTO  H155 4356   5.873   7.243   2.232
   11CHTO   O56 4357   6.061   7.221   2.157
   11CHTO  H135 4358   6.028   7.178   2.081
   11CHTO   C81 4359   6.010   7.287   2.394
   11CHTO  H153 4360   5.936   7.267   2.472
   11CHTO   N14 4361   6.002   7.434   2.377
   11CHTO  H141 4362   6.094   7.482   2.404
   11CHTO  H142 4363   5.978   7.460   2.276
   11CHTO   C79 4364   6.150   7.236   2.446
   11CHTO  H151 4365   6.171   7.290   2.538
   11CHTO   O52 4366   6.139   7.095   2.482
   11CHTO   C86 4367   6.085   7.005   2.379
   11CHTO  H158 4368   6.169   6.993   2.308
   11CHTO   C90 4369   6.065   6.867   2.446
   11CHTO   O60 4370   6.009   6.770   2.358
   11CHTO  H138 4371   5.920   6.792   2.338
   11CHTO   O50 4372   6.260   7.257   2.355
   11CHTO   C73 4373   6.398   7.225   2.381
   11CHTO  H145 4374   6.404   7.135   2.443
   11CHTO   C74 4375   6.468   7.342   2.457
   11CHTO  H146 4376   6.409   7.362   2.548
   11CHTO   O54 4377   6.596   7.295   2.502
   11CHTO  H133 4378   6.639   7.361   2.552
   11CHTO   C75 4379   6.477   7.470   2.363
   11CHTO  H147 4380   6.374   7.502   2.339
   11CHTO   N13 4381   6.541   7.588   2.425
   11CHTO  H139 4382   6.570   7.567   2.527
   11CHTO  H140 4383   6.628   7.619   2.370
   11CHTO   C76 4384   6.546   7.428   2.224
   11CHTO  H148 4385   6.649   7.398   2.246
   11CHTO   O49 4386   6.474   7.316   2.164
   11CHTO   C77 4387   6.473   7.198   2.246
   11CHTO  H149 4388   6.575   7.167   2.268
   11CHTO   C88 4389   6.411   7.084   2.164
   11CHTO   O58 4390   6.420   6.955   2.235
   11CHTO  H136 4391   6.510   6.927   2.240
   11CHTO   O51 4392   6.536   7.543   2.117
   11CHTO   C78 4393   6.672   7.568   2.038
   11CHTO  H150 4394   6.757   7.516   2.085
   11CHTO   C80 4395   6.701   7.720   2.038
   11CHTO  H152 4396   6.609   7.774   2.008
   11CHTO   O55 4397   6.731   7.759   2.173
   11CHTO  H134 4398   6.811   7.719   2.202
   11CHTO   C84 4399   6.817   7.759   1.937
   11CHTO  H156 4400   6.910   7.712   1.971
   11CHTO   N15 4401   6.841   7.907   1.930
   11CHTO  H143 4402   6.921   7.928   1.861
   11CHTO  H144 4403   6.868   7.944   2.026
   11CHTO   C87 4404   6.780   7.700   1.799
   11CHTO  H159 4405   6.684   7.742   1.769
   11CHTO   O53 4406   6.770   7.550   1.814
   11CHTO   C82 4407   6.657   7.513   1.894
   11CHTO  H154 4408   6.566   7.551   1.848
   11CHTO   C89 4409   6.646   7.358   1.891
   11CHTO   O59 4410   6.760   7.293   1.950
   11CHTO  H137 4411   6.749   7.200   1.946
   11CHTO   O45 4412   6.892   7.730   1.680
   11CHTO   C67 4413   6.844   7.687   1.550
   11CHTO  H124 4414   6.819   7.581   1.557
   11CHTO   C65 4415   6.715   7.766   1.507
   11CHTO  H122 4416   6.711   7.856   1.570
   11CHTO   O44 4417   6.604   7.682   1.539
   11CHTO  H102 4418   6.597   7.670   1.632
   11CHTO   C63 4419   6.721   7.821   1.360
   11CHTO  H120 4420   6.793   7.903   1.356
   11CHTO   N11 4421   6.596   7.889   1.311
   11CHTO  H108 4422   6.518   7.818   1.301
   11CHTO  H109 4423   6.615   7.936   1.216
   11CHTO   C61 4424   6.776   7.709   1.265
   11CHTO  H118 4425   6.795   7.758   1.168
   11CHTO   O40 4426   6.904   7.654   1.309
   11CHTO   C68 4427   6.956   7.697   1.439
   11CHTO  H125 4428   6.991   7.802   1.430
   11CHTO   C72 4429   7.081   7.611   1.474
   11CHTO   O48 4430   7.052   7.471   1.483
   11CHTO  H105 4431   6.999   7.454   1.558
   11CHTO   O38 4432   6.682   7.600   1.251
   11CHTO   C55 4433   6.697   7.516   1.134
   11CHTO  H112 4434   6.804   7.508   1.108
   11CHTO   C56 4435   6.610   7.572   1.014
   11CHTO  H113 4436   6.508   7.588   1.051
   11CHTO   O42 4437   6.660   7.701   0.974
   11CHTO  H100 4438   6.648   7.763   1.043
   11CHTO   C57 4439   6.611   7.472   0.891
   11CHTO  H114 4440   6.711   7.473   0.850
   11CHTO   N10 4441   6.519   7.512   0.781
   11CHTO  H106 4442   6.433   7.565   0.820
   11CHTO  H107 4443   6.486   7.427   0.724
   11CHTO   C58 4444   6.579   7.328   0.941
   11CHTO  H115 4445   6.472   7.322   0.971
   11CHTO   O37 4446   6.664   7.289   1.051
   11CHTO   C59 4447   6.650   7.372   1.167
   11CHTO  H116 4448   6.546   7.372   1.200
   11CHTO   C70 4449   6.733   7.310   1.281
   11CHTO   O46 4450   6.873   7.299   1.252
   11CHTO  H103 4451   6.912   7.384   1.246
   11CHTO   O39 4452   6.612   7.221   0.824
   11CHTO   C60 4453   6.516   7.115   0.810
   11CHTO  H117 4454   6.468   7.096   0.907
   11CHTO   C62 4455   6.406   7.151   0.706
   11CHTO  H119 4456   6.354   7.241   0.747
   11CHTO   O43 4457   6.468   7.186   0.581
   11CHTO  H101 4458   6.403   7.214   0.520
   11CHTO   C66 4459   6.301   7.030   0.694
   11CHTO  H123 4460   6.259   7.010   0.793
   11CHTO   N12 4461   6.185   7.064   0.608
   11CHTO  H110 4462   6.115   6.981   0.605
   11CHTO  H111 4463   6.219   7.090   0.509
   11CHTO   C69 4464   6.375   6.902   0.648
   11CHTO  H126 4465   6.420   6.919   0.547
   11CHTO   O41 4466   6.489   6.869   0.752
   11CHTO   C64 4467   6.589   6.984   0.770
   11CHTO  H121 4468   6.644   7.002   0.675
   11CHTO   C71 4469   6.693   6.945   0.878
   11CHTO   O47 4470   6.770   6.832   0.836
   11CHTO  H104 4471   6.831   6.809   0.904
   11CHTO   O34 4472   6.277   6.775   0.637
   11CHTO   C49 4473   6.226   6.684   0.750
   11CHTO   H91 4474   6.307   6.675   0.822
   11CHTO   C47 4475   6.193   6.545   0.691
   11CHTO   H89 4476   6.170   6.478   0.777
   11CHTO   O33 4477   6.311   6.495   0.625
   11CHTO   H70 4478   6.297   6.408   0.595
   11CHTO   C45 4479   6.065   6.556   0.593
   11CHTO   H87 4480   6.089   6.631   0.516
   11CHTO    N8 4481   6.033   6.428   0.525
   11CHTO   H75 4482   6.094   6.348   0.563
   11CHTO   H76 4483   6.047   6.438   0.418
   11CHTO   C43 4484   5.940   6.617   0.674
   11CHTO   H85 4485   5.862   6.634   0.601
   11CHTO   O29 4486   5.978   6.740   0.741
   11CHTO   C50 4487   6.099   6.743   0.819
   11CHTO   H92 4488   6.120   6.849   0.840
   11CHTO   C54 4489   6.075   6.684   0.961
   11CHTO   O36 4490   6.191   6.701   1.044
   11CHTO   H72 4491   6.173   6.665   1.129
   11CHTO   O27 4492   5.885   6.525   0.770
   11CHTO   C37 4493   5.767   6.498   0.848
   11CHTO   H79 4494   5.793   6.493   0.955
   11CHTO   C38 4495   5.658   6.609   0.833
   11CHTO   H80 4496   5.638   6.623   0.726
   11CHTO   O31 4497   5.712   6.731   0.887
   11CHTO   H68 4498   5.782   6.763   0.832
   11CHTO   C39 4499   5.524   6.570   0.907
   11CHTO   H81 4500   5.545   6.572   1.014
   11CHTO    N7 4501   5.412   6.668   0.883
   11CHTO   H73 4502   5.324   6.638   0.938
   11CHTO   H74 4503   5.389   6.673   0.777
   11CHTO   C40 4504   5.479   6.423   0.870
   11CHTO   H82 4505   5.437   6.420   0.769
   11CHTO   O26 4506   5.589   6.331   0.885
   11CHTO   C41 4507   5.707   6.362   0.805
   11CHTO   H83 4508   5.679   6.367   0.699
   11CHTO   C52 4509   5.808   6.246   0.823
   11CHTO   O35 4510   5.755   6.117   0.773
   11CHTO   H71 4511   5.818   6.050   0.790
   11CHTO   O28 4512   5.382   6.375   0.964
   11CHTO   C42 4513   5.290   6.265   0.934
   11CHTO   H84 4514   5.325   6.222   0.840
   11CHTO   C44 4515   5.142   6.308   0.910
   11CHTO   H86 4516   5.107   6.363   0.997
   11CHTO   O32 4517   5.140   6.400   0.799
   11CHTO   H69 4518   5.167   6.356   0.720
   11CHTO   C48 4519   5.043   6.186   0.888
   11CHTO   H90 4520   5.065   6.143   0.790
   11CHTO    N9 4521   4.898   6.227   0.882
   11CHTO   H77 4522   4.887   6.334   0.895
   11CHTO   H78 4523   4.853   6.196   0.789
   11CHTO   C51 4524   5.068   6.073   0.995
   11CHTO   H93 4525   5.031   6.108   1.091
   11CHTO   O30 4526   5.207   6.041   0.999
   11CHTO   C46 4527   5.295   6.152   1.040
   11CHTO   H88 4528   5.258   6.191   1.135
   11CHTO   C53 4529   5.438   6.095   1.060
   11CHTO   O72 4530   5.490   6.035   0.941
   11CHTO  H199 4531   5.505   6.101   0.876
   11CHTO   O22 4532   5.004   5.949   0.958
   11CHTO   C31 4533   4.966   5.849   1.061
   11CHTO   H59 4534   4.999   5.892   1.159
   11CHTO   C29 4535   4.814   5.825   1.070
   11CHTO   H57 4536   4.781   5.784   0.974
   11CHTO   O21 4537   4.748   5.952   1.087
   11CHTO   H37 4538   4.655   5.942   1.079
   11CHTO   C27 4539   4.776   5.723   1.186
   11CHTO   H55 4540   4.796   5.771   1.283
   11CHTO    N5 4541   4.633   5.682   1.183
   11CHTO   H43 4542   4.611   5.631   1.090
   11CHTO   H44 4543   4.570   5.769   1.194
   11CHTO   C25 4544   4.869   5.596   1.179
   11CHTO   H53 4545   4.842   5.534   1.093
   11CHTO   O17 4546   5.009   5.634   1.165
   11CHTO   C32 4547   5.038   5.711   1.047
   11CHTO   H60 4548   5.000   5.660   0.959
   11CHTO   C36 4549   5.192   5.720   1.038
   11CHTO   O25 4550   5.235   5.770   0.911
   11CHTO   H40 4551   5.328   5.775   0.909
   11CHTO   O15 4552   4.857   5.510   1.311
   11CHTO   C19 4553   4.844   5.371   1.350
   11CHTO   H47 4554   4.906   5.364   1.441
   11CHTO   C20 4555   4.698   5.330   1.387
   11CHTO   H48 4556   4.628   5.352   1.305
   11CHTO   O19 4557   4.663   5.411   1.500
   11CHTO   H35 4558   4.572   5.399   1.521
   11CHTO   C21 4559   4.687   5.175   1.421
   11CHTO   H49 4560   4.742   5.156   1.513
   11CHTO    N4 4561   4.547   5.132   1.446
   11CHTO   H41 4562   4.487   5.148   1.357
   11CHTO   H42 4563   4.544   5.027   1.471
   11CHTO   C22 4564   4.755   5.094   1.308
   11CHTO   H50 4565   4.701   5.113   1.216
   11CHTO   O14 4566   4.892   5.136   1.293
   11CHTO   C23 4567   4.906   5.271   1.247
   11CHTO   H51 4568   4.857   5.278   1.149
   11CHTO   C34 4569   5.055   5.298   1.223
   11CHTO   O23 4570   5.132   5.290   1.344
   11CHTO   H38 4571   5.223   5.307   1.325
   11CHTO   O16 4572   4.761   4.952   1.335
   11CHTO   C24 4573   4.758   4.867   1.199
   11CHTO   H52 4574   4.785   4.928   1.113
   11CHTO   C26 4575   4.617   4.807   1.178
   11CHTO   H54 4576   4.594   4.740   1.264
   11CHTO   O20 4577   4.520   4.914   1.175
   11CHTO   H36 4578   4.513   4.953   1.260
   11CHTO   C30 4579   4.612   4.725   1.046
   11CHTO   H58 4580   4.610   4.797   0.962
   11CHTO    N6 4581   4.485   4.648   1.032
   11CHTO   H45 4582   4.401   4.715   1.034
   11CHTO   H46 4583   4.485   4.594   0.938
   11CHTO   C33 4584   4.738   4.634   1.024
   11CHTO   H61 4585   4.721   4.537   1.075
   11CHTO   O18 4586   4.860   4.690   1.076
   11CHTO   C28 4587   4.858   4.750   1.206
   11CHTO   H56 4588   4.826   4.679   1.281
   11CHTO   C35 4589   5.001   4.800   1.241
   11CHTO   O24 4590   5.095   4.693   1.254
   11CHTO   H39 4591   5.074   4.641   1.329
   11CHTO    O9 4592   4.750   4.601   0.884
   11CHTO   C13 4593   4.795   4.734   0.793
   11CHTO   H26 4594   4.804   4.822   0.861
   11CHTO   C11 4595   4.688   4.759   0.680
   11CHTO   H24 4596   4.590   4.772   0.728
   11CHTO    O8 4597   4.680   4.641   0.597
   11CHTO    H3 4598   4.612   4.652   0.532
   11CHTO    C9 4599   4.725   4.892   0.607
   11CHTO   H22 4600   4.705   4.971   0.681
   11CHTO    N2 4601   4.632   4.924   0.496
   11CHTO   H10 4602   4.647   4.855   0.415
   11CHTO   H11 4603   4.649   5.026   0.463
   11CHTO    C7 4604   4.881   4.897   0.575
   11CHTO   H20 4605   4.920   4.967   0.652
   11CHTO    O4 4606   4.946   4.769   0.592
   11CHTO   C14 4607   4.940   4.719   0.727
   11CHTO   H27 4608   5.011   4.779   0.787
   11CHTO   C18 4609   4.993   4.573   0.730
   11CHTO   O13 4610   4.920   4.487   0.642
   11CHTO    H7 4611   4.955   4.400   0.647
   11CHTO    O2 4612   4.921   4.957   0.427
   11CHTO    C1 4613   4.985   5.086   0.432
   11CHTO   H14 4614   5.059   5.087   0.514
   11CHTO    C2 4615   4.885   5.208   0.452
   11CHTO   H15 4616   4.806   5.195   0.376
   11CHTO    O6 4617   4.827   5.201   0.583
   11CHTO    H1 4618   4.771   5.125   0.590
   11CHTO    C3 4619   4.959   5.349   0.431
   11CHTO   H16 4620   5.028   5.365   0.515
   11CHTO    N1 4621   4.863   5.464   0.432
   11CHTO    H8 4622   4.811   5.468   0.527
   11CHTO    H9 4623   4.790   5.452   0.353
   11CHTO    C4 4624   5.048   5.346   0.301
   11CHTO   H17 4625   4.983   5.344   0.213
   11CHTO    O1 4626   5.135   5.232   0.302
   11CHTO    C5 4627   5.067   5.105   0.301
   11CHTO   H18 4628   4.998   5.101   0.216
   11CHTO   C16 4629   5.173   4.994   0.283
   11CHTO   O11 4630   5.241   5.004   0.157
   11CHTO    H5 4631   5.182   4.982   0.088
   11CHTO    O3 4632   5.137   5.459   0.296
   11CHTO    C6 4633   5.176   5.504   0.162
   11CHTO   H19 4634   5.155   5.430   0.085
   11CHTO    C8 4635   5.100   5.636   0.127
   11CHTO   H21 4636   5.113   5.707   0.209
   11CHTO    O7 4637   4.960   5.603   0.114
   11CHTO    H2 4638   4.924   5.580   0.197
   11CHTO   C12 4639   5.156   5.701   2.860
   11CHTO   H25 4640   5.126   5.634   2.777
   11CHTO    N3 4641   5.091   5.835   2.833
   11CHTO   H12 4642   4.984   5.822   2.823
   11CHTO   H13 4643   5.132   5.878   2.743
   11CHTO   C15 4644   5.312   5.709   2.865
   11CHTO   H28 4645   5.347   5.783   0.071
   11CHTO   O10 4646   5.375   5.740   2.725
   11CHTO    H4 4647   5.345   5.678   2.661
   11CHTO    O5 4648   5.369   5.580   0.031
   11CHTO   C10 4649   5.329   5.530   0.159
   11CHTO   H23 4650   5.356   5.603   0.236
   11CHTO   C17 4651   5.409   5.402   0.188
   11CHTO   O12 4652   5.549   5.430   0.199
   11CHTO    H6 4653   5.595   5.350   0.217
   12CHTO  H203 4654   5.236   2.065   2.399
   12CHTO   O82 4655   5.233   2.121   2.475
   12CHTO  C123 4656   5.189   2.047   2.590
   12CHTO  H227 4657   5.193   2.113   2.678
   12CHTO   O77 4658   5.050   2.014   2.559
   12CHTO  C118 4659   4.979   1.947   2.664
   12CHTO  H222 4660   4.976   2.010   2.755
   12CHTO  C125 4661   4.831   1.923   2.615
   12CHTO   O84 4662   4.763   2.047   2.592
   12CHTO  H205 4663   4.745   2.089   2.673
   12CHTO  C114 4664   5.047   1.813   2.697
   12CHTO  H218 4665   5.042   1.749   2.609
   12CHTO  C116 4666   5.198   1.833   2.731
   12CHTO  H220 4667   5.207   1.888   2.828
   12CHTO   O79 4668   5.257   1.703   2.752
   12CHTO  H201 4669   5.345   1.712   2.781
   12CHTO  C120 4670   5.269   1.914   2.615
   12CHTO  H224 4671   5.267   1.849   2.525
   12CHTO   N21 4672   5.413   1.938   2.646
   12CHTO  H211 4673   5.447   2.029   2.598
   12CHTO  H212 4674   5.428   1.946   2.753
   12CHTO   O75 4675   4.973   1.757   2.806
   12CHTO  C112 4676   4.942   1.599   2.785
   12CHTO  H216 4677   5.025   1.553   2.729
   12CHTO   O73 4678   4.818   1.590   2.714
   12CHTO  C113 4679   4.774   1.457   2.687
   12CHTO  H217 4680   4.854   1.402   2.632
   12CHTO  C124 4681   4.653   1.467   2.592
   12CHTO   O83 4682   4.609   1.341   2.540
   12CHTO  H204 4683   4.574   1.288   2.609
   12CHTO  C109 4684   4.743   1.387   2.822
   12CHTO  H213 4685   4.666   1.448   0.006
   12CHTO  C110 4686   4.874   1.384   0.041
   12CHTO  H214 4687   4.947   1.321   2.856
   12CHTO   O78 4688   4.847   1.322   0.169
   12CHTO  H200 4689   4.927   1.309   0.216
   12CHTO  C111 4690   4.930   1.528   0.060
   12CHTO  H215 4691   4.858   1.585   0.120
   12CHTO   N19 4692   5.060   1.534   0.131
   12CHTO  H207 4693   5.051   1.590   0.223
   12CHTO  H208 4694   5.098   1.435   0.153
   12CHTO   O74 4695   4.689   1.253   2.799
   12CHTO  C115 4696   4.586   1.206   0.050
   12CHTO  H219 4697   4.628   1.222   0.149
   12CHTO   O76 4698   4.451   1.291   0.047
   12CHTO  C122 4699   4.356   1.256   0.148
   12CHTO  H226 4700   4.263   1.307   0.123
   12CHTO  C126 4701   4.399   1.314   0.289
   12CHTO   O85 4702   4.405   1.457   0.290
   12CHTO  H206 4703   4.434   1.486   0.374
   12CHTO  C121 4704   4.327   1.101   0.155
   12CHTO  H225 4705   4.269   1.081   0.247
   12CHTO   O81 4706   4.244   1.066   0.043
   12CHTO  H202 4707   4.214   0.978   0.052
   12CHTO  C119 4708   4.459   1.017   0.160
   12CHTO  H223 4709   4.511   1.052   0.249
   12CHTO  C117 4710   4.552   1.053   0.038
   12CHTO  H221 4711   4.510   1.041   2.804
   12CHTO   N20 4712   4.678   0.972   0.038
   12CHTO  H209 4713   4.732   0.986   0.130
   12CHTO  H210 4714   4.654   0.867   0.024
   12CHTO   O80 4715   4.438   0.859   0.197
   12CHTO  C103 4716   4.338   0.771   0.116
   12CHTO  H190 4717   4.249   0.828   0.089
   12CHTO  C101 4718   4.394   0.700   2.853
   12CHTO  H188 4719   4.490   0.654   0.011
   12CHTO   O68 4720   4.416   0.806   2.742
   12CHTO  H168 4721   4.482   0.868   2.770
   12CHTO   C99 4722   4.294   0.585   2.802
   12CHTO  H186 4723   4.200   0.632   2.767
   12CHTO   N17 4724   4.348   0.505   2.686
   12CHTO  H174 4725   4.273   0.436   2.651
   12CHTO  H175 4726   4.380   0.572   2.607
   12CHTO   C97 4727   4.254   0.493   0.054
   12CHTO  H184 4728   4.343   0.436   0.087
   12CHTO   O64 4729   4.198   0.572   0.161
   12CHTO  C104 4730   4.292   0.663   0.221
   12CHTO  H191 4731   4.379   0.610   0.260
   12CHTO  C108 4732   4.224   0.729   0.342
   12CHTO   O71 4733   4.192   0.632   0.442
   12CHTO  H171 4734   4.149   0.675   0.514
   12CHTO   O62 4735   4.147   0.402   0.019
   12CHTO   C91 4736   4.129   0.287   0.103
   12CHTO  H178 4737   4.190   0.298   0.193
   12CHTO   C92 4738   4.182   0.160   0.029
   12CHTO  H179 4739   4.136   0.156   2.795
   12CHTO   O66 4740   4.323   0.178   0.007
   12CHTO  H166 4741   4.357   0.107   2.821
   12CHTO   C93 4742   4.153   0.026   0.109
   12CHTO  H180 4743   4.213   0.029   0.201
   12CHTO   N16 4744   4.193   9.903   0.036
   12CHTO  H172 4745   4.236   9.927   2.806
   12CHTO  H173 4746   4.263   9.845   0.095
   12CHTO   C94 4747   4.000   0.021   0.148
   12CHTO  H181 4748   3.936   0.021   0.060
   12CHTO   O61 4749   3.966   0.140   0.222
   12CHTO   C95 4750   3.980   0.262   0.148
   12CHTO  H182 4751   3.916   0.258   0.060
   12CHTO  C106 4752   3.925   0.380   0.237
   12CHTO   O69 4753   3.997   0.393   0.360
   12CHTO  H169 4754   3.961   0.463   0.410
   12CHTO   O63 4755   3.958   9.890   0.245
   12CHTO   C96 4756   4.059   9.833   0.361
   12CHTO  H183 4757   4.161   9.866   0.340
   12CHTO   C98 4758   4.056   9.677   0.364
   12CHTO  H185 4759   3.952   9.644   0.356
   12CHTO   O67 4760   4.120   9.630   0.244
   12CHTO  H167 4761   4.070   9.652   0.169
   12CHTO  C102 4762   4.125   9.610   0.493
   12CHTO  H189 4763   4.233   9.614   0.475
   12CHTO   N18 4764   4.094   9.465   0.509
   12CHTO  H176 4765   4.126   9.411   0.421
   12CHTO  H177 4766   4.145   9.426   0.596
   12CHTO  C105 4767   4.096   9.691   0.622
   12CHTO  H192 4768   3.997   9.665   0.660
   12CHTO   O65 4769   4.103   9.833   0.604
   12CHTO  C100 4770   4.018   9.888   0.502
   12CHTO  H187 4771   3.914   9.859   0.523
   12CHTO  C107 4772   4.028   0.042   0.511
   12CHTO   O70 4773   3.970   0.092   0.632
   12CHTO  H170 4774   3.877   0.080   0.629
   12CHTO   O57 4775   4.212   9.650   0.726
   12CHTO   C85 4776   4.181   9.573   0.843
   12CHTO  H157 4777   4.105   9.498   0.812
   12CHTO   C83 4778   4.111   9.661   0.951
   12CHTO  H155 4779   4.019   9.700   0.909
   12CHTO   O56 4780   4.194   9.775   0.981
   12CHTO  H135 4781   4.274   9.749   1.022
   12CHTO   C81 4782   4.076   9.572   1.074
   12CHTO  H153 4783   4.008   9.493   1.041
   12CHTO   N14 4784   3.998   9.645   1.178
   12CHTO  H141 4785   4.057   9.723   1.220
   12CHTO  H142 4786   3.909   9.686   1.135
   12CHTO   C79 4787   4.206   9.503   1.132
   12CHTO  H151 4788   4.173   9.431   1.207
   12CHTO   O52 4789   4.276   9.426   1.029
   12CHTO   C86 4790   4.307   9.503   0.908
   12CHTO  H158 4791   4.381   9.579   0.943
   12CHTO   C90 4792   4.382   9.415   0.806
   12CHTO   O60 4793   4.300   9.307   0.760
   12CHTO  H138 4794   4.348   9.254   0.700
   12CHTO   O50 4795   4.297   9.594   1.195
   12CHTO   C73 4796   4.385   9.625   1.304
   12CHTO  H145 4797   4.341   9.592   1.399
   12CHTO   C74 4798   4.407   9.779   1.309
   12CHTO  H146 4799   4.308   9.826   1.317
   12CHTO   O54 4800   4.477   9.812   1.430
   12CHTO  H133 4801   4.563   9.775   1.430
   12CHTO   C75 4802   4.483   9.825   1.178
   12CHTO  H147 4803   4.422   9.797   1.091
   12CHTO   N13 4804   4.504   9.972   1.168
   12CHTO  H139 4805   4.455   0.011   1.080
   12CHTO  H140 4806   4.463   0.023   1.255
   12CHTO   C76 4807   4.620   9.744   1.168
   12CHTO  H148 4808   4.679   9.769   1.256
   12CHTO   O49 4809   4.590   9.600   1.167
   12CHTO   C77 4810   4.524   9.555   1.286
   12CHTO  H149 4811   4.586   9.577   1.373
   12CHTO   C88 4812   4.513   9.402   1.281
   12CHTO   O58 4813   4.648   9.339   1.282
   12CHTO  H136 4814   4.639   9.246   1.278
   12CHTO   O51 4815   4.701   9.772   1.029
   12CHTO   C78 4816   4.821   9.661   0.998
   12CHTO  H150 4817   4.781   9.558   1.002
   12CHTO   C80 4818   4.938   9.673   1.098
   12CHTO  H152 4819   4.971   9.779   1.102
   12CHTO   O55 4820   4.889   9.638   1.229
   12CHTO  H134 4821   4.861   9.549   1.231
   12CHTO   C84 4822   5.060   9.580   1.059
   12CHTO  H156 4823   5.028   9.477   1.069
   12CHTO   N15 4824   5.180   9.599   1.148
   12CHTO  H143 4825   5.204   9.506   1.196
   12CHTO  H144 4826   5.161   9.673   1.223
   12CHTO   C87 4827   5.098   9.602   0.910
   12CHTO  H159 4828   5.139   9.702   0.898
   12CHTO   O53 4829   4.973   9.587   0.823
   12CHTO   C82 4830   4.872   9.684   0.854
   12CHTO  H154 4831   4.911   9.785   0.843
   12CHTO   C89 4832   4.755   9.669   0.754
   12CHTO   O59 4833   4.796   9.704   0.621
   12CHTO  H137 4834   4.724   9.693   0.562
   12CHTO   O45 4835   5.214   9.491   0.863
   12CHTO   C67 4836   5.269   9.501   0.730
   12CHTO  H124 4837   5.360   9.441   0.729
   12CHTO   C65 4838   5.169   9.443   0.623
   12CHTO  H122 4839   5.077   9.418   0.677
   12CHTO   O44 4840   5.224   9.321   0.572
   12CHTO  H102 4841   5.298   9.339   0.518
   12CHTO   C63 4842   5.127   9.552   0.518
   12CHTO  H120 4843   5.078   9.634   0.570
   12CHTO   N11 4844   5.021   9.512   0.420
   12CHTO  H108 4845   4.936   9.474   0.472
   12CHTO  H109 4846   4.993   9.595   0.360
   12CHTO   C61 4847   5.258   9.610   0.453
   12CHTO  H118 4848   5.227   9.698   0.393
   12CHTO   O40 4849   5.353   9.659   0.552
   12CHTO   C68 4850   5.317   9.649   0.694
   12CHTO  H125 4851   5.237   9.723   0.713
   12CHTO   C72 4852   5.441   9.694   0.774
   12CHTO   O48 4853   5.419   9.704   0.915
   12CHTO  H105 4854   5.360   9.774   0.933
   12CHTO   O38 4855   5.327   9.514   0.371
   12CHTO   C55 4856   5.430   9.568   0.287
   12CHTO  H112 4857   5.460   9.668   0.322
   12CHTO   C56 4858   5.383   9.570   0.136
   12CHTO  H113 4859   5.355   9.466   0.108
   12CHTO   O42 4860   5.264   9.649   0.123
   12CHTO  H100 4861   5.193   9.609   0.170
   12CHTO   C57 4862   5.498   9.623   0.042
   12CHTO  H114 4863   5.508   9.730   0.063
   12CHTO   N10 4864   5.469   9.610   2.763
   12CHTO  H106 4865   5.418   9.698   2.727
   12CHTO  H107 4866   5.407   9.524   2.744
   12CHTO   C58 4867   5.634   9.555   0.075
   12CHTO  H115 4868   5.634   9.450   0.035
   12CHTO   O37 4869   5.659   9.552   0.217
   12CHTO   C59 4870   5.560   9.483   0.295
   12CHTO  H116 4871   5.545   9.382   0.255
   12CHTO   C70 4872   5.616   9.471   0.437
   12CHTO   O46 4873   5.538   9.385   0.521
   12CHTO  H103 4874   5.577   9.380   0.606
   12CHTO   O39 4875   5.760   9.644   0.002
   12CHTO   C60 4876   5.889   9.631   0.063
   12CHTO  H117 4877   5.883   9.571   0.153
   12CHTO   C62 4878   5.991   9.562   2.835
   12CHTO  H119 4879   5.943   9.466   2.804
   12CHTO   O43 4880   6.014   9.640   2.716
   12CHTO  H101 4881   6.055   9.722   2.738
   12CHTO   C66 4882   6.122   9.529   0.054
   12CHTO  H123 4883   6.093   9.470   0.141
   12CHTO   N12 4884   6.220   9.446   2.845
   12CHTO  H110 4885   6.174   9.353   2.816
   12CHTO  H111 4886   6.308   9.428   0.040
   12CHTO   C69 4887   6.186   9.660   0.109
   12CHTO  H126 4888   6.239   9.714   0.027
   12CHTO   O41 4889   6.077   9.758   0.175
   12CHTO   C64 4890   5.943   9.771   0.106
   12CHTO  H121 4891   5.952   9.836   0.016
   12CHTO   C71 4892   5.844   9.839   0.204
   12CHTO   O47 4893   5.886   9.971   0.239
   12CHTO  H104 4894   5.880   0.028   0.164
   12CHTO   O34 4895   6.294   9.623   0.221
   12CHTO   C49 4896   6.297   9.607   0.381
   12CHTO   H91 4897   6.360   9.689   0.419
   12CHTO   C47 4898   6.361   9.472   0.417
   12CHTO   H89 4899   6.375   9.471   0.528
   12CHTO   O33 4900   6.491   9.466   0.355
   12CHTO   H70 4901   6.537   9.389   0.382
   12CHTO   C45 4902   6.263   9.352   0.372
   12CHTO   H87 4903   6.247   9.362   0.264
   12CHTO    N8 4904   6.323   9.219   0.397
   12CHTO   H75 4905   6.334   9.202   0.504
   12CHTO   H76 4906   6.261   9.141   0.355
   12CHTO   C43 4907   6.117   9.370   0.438
   12CHTO   H85 4908   6.053   9.298   0.388
   12CHTO   O29 4909   6.068   9.505   0.420
   12CHTO   C50 4910   6.156   9.617   0.446
   12CHTO   H92 4911   6.107   9.706   0.407
   12CHTO   C54 4912   6.162   9.647   0.598
   12CHTO   O36 4913   6.233   9.767   0.629
   12CHTO   H72 4914   6.324   9.757   0.609
   12CHTO   O27 4915   6.112   9.334   0.578
   12CHTO   C37 4916   6.025   9.281   0.680
   12CHTO   H79 4917   6.085   9.236   0.760
   12CHTO   C38 4918   5.940   9.394   0.746
   12CHTO   H80 4919   5.897   9.456   0.665
   12CHTO   O31 4920   6.028   9.477   0.824
   12CHTO   H68 4921   6.068   9.428   0.893
   12CHTO   C39 4922   5.824   9.340   0.839
   12CHTO   H81 4923   5.870   9.305   0.931
   12CHTO    N7 4924   5.725   9.447   0.879
   12CHTO   H73 4925   5.776   9.525   0.934
   12CHTO   H74 4926   5.679   9.489   0.791
   12CHTO   C40 4927   5.750   9.217   0.775
   12CHTO   H82 4928   5.680   9.249   0.697
   12CHTO   O26 4929   5.845   9.121   0.727
   12CHTO   C41 4930   5.931   9.172   0.622
   12CHTO   H83 4931   5.871   9.214   0.540
   12CHTO   C52 4932   6.010   9.051   0.565
   12CHTO   O35 4933   5.920   8.949   0.503
   12CHTO   H71 4934   5.868   8.908   0.570
   12CHTO   O28 4935   5.679   9.142   0.875
   12CHTO   C42 4936   5.560   9.061   0.845
   12CHTO   H84 4937   5.563   8.984   0.921
   12CHTO   C44 4938   5.559   8.985   0.707
   12CHTO   H86 4939   5.572   9.058   0.627
   12CHTO   O32 4940   5.672   8.896   0.707
   12CHTO   H69 4941   5.752   8.944   0.702
   12CHTO   C48 4942   5.425   8.906   0.681
   12CHTO   H90 4943   5.423   8.820   0.749
   12CHTO    N9 4944   5.419   8.847   0.542
   12CHTO   H77 4945   5.427   8.926   0.469
   12CHTO   H78 4946   5.499   8.776   0.529
   12CHTO   C51 4947   5.299   8.994   0.714
   12CHTO   H93 4948   5.291   9.074   0.639
   12CHTO   O30 4949   5.311   9.047   0.846
   12CHTO   C46 4950   5.428   9.140   0.865
   12CHTO   H88 4951   5.422   9.221   0.792
   12CHTO   C53 4952   5.421   9.197   1.009
   12CHTO   O72 4953   5.299   9.268   1.031
   12CHTO  H199 4954   5.298   9.302   1.119
   12CHTO   O22 4955   5.179   8.914   0.718
   12CHTO   C31 4956   5.042   8.968   0.699
   12CHTO   H59 4957   4.974   8.887   0.733
   12CHTO   C29 4958   5.008   9.094   0.782
   12CHTO   H57 4959   5.072   9.177   0.749
   12CHTO   O21 4960   5.038   9.068   0.920
   12CHTO   H37 4961   5.131   9.057   0.932
   12CHTO   C27 4962   4.856   9.135   0.764
   12CHTO   H55 4963   4.794   9.058   0.811
   12CHTO    N5 4964   4.824   9.265   0.828
   12CHTO   H43 4965   4.877   9.345   0.778
   12CHTO   H44 4966   4.718   9.283   0.825
   12CHTO   C25 4967   4.816   9.135   0.612
   12CHTO   H53 4968   4.856   9.225   0.562
   12CHTO   O17 4969   4.864   9.018   0.540
   12CHTO   C32 4970   5.005   8.994   0.550
   12CHTO   H60 4971   5.061   9.081   0.514
   12CHTO   C36 4972   5.039   8.872   0.461
   12CHTO   O25 4973   5.012   8.898   0.323
   12CHTO   H40 4974   5.035   8.824   0.271
   12CHTO   O15 4975   4.664   9.133   0.601
   12CHTO   C19 4976   4.529   9.113   0.554
   12CHTO   H47 4977   4.467   9.162   0.631
   12CHTO   C20 4978   4.497   9.178   0.416
   12CHTO   H48 4979   4.561   9.137   0.336
   12CHTO   O19 4980   4.527   9.318   0.429
   12CHTO   H35 4981   4.620   9.331   0.436
   12CHTO   C21 4982   4.346   9.156   0.376
   12CHTO   H49 4983   4.283   9.210   0.446
   12CHTO    N4 4984   4.314   9.209   0.240
   12CHTO   H41 4985   4.372   9.158   0.165
   12CHTO   H42 4986   4.209   9.195   0.219
   12CHTO   C22 4987   4.311   9.005   0.390
   12CHTO   H50 4988   4.366   8.949   0.314
   12CHTO   O14 4989   4.345   8.956   0.521
   12CHTO   C23 4990   4.485   8.963   0.553
   12CHTO   H51 4991   4.540   8.904   0.478
   12CHTO   C34 4992   4.501   8.895   0.690
   12CHTO   O23 4993   4.639   8.866   0.719
   12CHTO   H38 4994   4.670   8.797   0.664
   12CHTO   O16 4995   4.169   8.981   0.379
   12CHTO   C24 4996   4.134   8.834   0.325
   12CHTO   H52 4997   4.219   8.766   0.336
   12CHTO   C26 4998   4.094   8.844   0.177
   12CHTO   H54 4999   4.014   8.921   0.167
   12CHTO   O20 5000   4.209   8.890   0.102
   12CHTO   H36 5001   4.228   8.979   0.124
   12CHTO   C30 5002   4.040   8.709   0.121
   12CHTO   H58 5003   4.123   8.637   0.115
   12CHTO    N6 5004   3.989   8.721   2.847
   12CHTO   H45 5005   3.884   8.698   2.842
   12CHTO   H46 5006   4.005   8.821   2.808
   12CHTO   C33 5007   3.935   8.648   0.219
   12CHTO   H61 5008   3.845   8.713   0.219
   12CHTO   O18 5009   3.988   8.645   0.353
   12CHTO   C28 5010   4.018   8.774   0.408
   12CHTO   H56 5011   3.931   8.840   0.402
   12CHTO   C35 5012   4.055   8.753   0.557
   12CHTO   O24 5013   4.064   8.875   0.632
   12CHTO   H39 5014   4.136   8.926   0.601
   12CHTO    O9 5015   3.888   8.518   0.178
   12CHTO   C13 5016   3.994   8.395   0.192
   12CHTO   H26 5017   4.097   8.436   0.187
   12CHTO   C11 5018   3.967   8.292   0.074
   12CHTO   H24 5019   3.992   8.343   2.846
   12CHTO    O8 5020   3.827   8.257   0.068
   12CHTO    H3 5021   3.775   8.333   0.048
   12CHTO    C9 5022   4.062   8.171   0.093
   12CHTO   H22 5023   4.163   8.214   0.098
   12CHTO    N2 5024   4.066   8.080   2.842
   12CHTO   H10 5025   3.970   8.031   2.830
   12CHTO   H11 5026   4.144   8.007   2.855
   12CHTO    C7 5027   4.030   8.101   0.230
   12CHTO   H20 5028   4.111   8.026   0.242
   12CHTO    O4 5029   4.036   8.191   0.342
   12CHTO   C14 5030   3.982   8.325   0.334
   12CHTO   H27 5031   4.044   8.386   0.404
   12CHTO   C18 5032   3.838   8.327   0.390
   12CHTO   O13 5033   3.835   8.293   0.529
   12CHTO    H7 5034   3.746   8.295   0.560
   12CHTO    O2 5035   3.882   8.025   0.229
   12CHTO    C1 5036   3.879   7.898   0.296
   12CHTO   H14 5037   3.941   7.904   0.389
   12CHTO    C2 5038   3.932   7.776   0.208
   12CHTO   H15 5039   3.876   7.781   0.113
   12CHTO    O6 5040   4.073   7.792   0.181
   12CHTO    H1 5041   4.122   7.793   0.261
   12CHTO    C3 5042   3.906   7.634   0.280
   12CHTO   H16 5043   3.975   7.624   0.364
   12CHTO    N1 5044   3.933   7.519   0.188
   12CHTO    H8 5045   4.035   7.521   0.154
   12CHTO    H9 5046   3.914   7.425   0.239
   12CHTO    C4 5047   3.761   7.627   0.342
   12CHTO   H17 5048   3.688   7.615   0.262
   12CHTO    O1 5049   3.733   7.746   0.419
   12CHTO    C5 5050   3.733   7.866   0.341
   12CHTO   H18 5051   3.671   7.854   0.252
   12CHTO   C16 5052   3.672   7.975   0.431
   12CHTO   O11 5053   3.624   8.086   0.354
   12CHTO    H5 5054   3.549   8.060   0.304
   12CHTO    O3 5055   3.751   7.520   0.438
   12CHTO    C6 5056   3.618   7.460   0.453
   12CHTO   H19 5057   3.540   7.514   0.398
   12CHTO    C8 5058   3.622   7.313   0.400
   12CHTO   H21 5059   3.708   7.262   0.446
   12CHTO    O7 5060   3.641   7.321   0.257
   12CHTO    H2 5061   3.653   7.235   0.222
   12CHTO   C12 5062   3.490   7.234   0.437
   12CHTO   H25 5063   3.408   7.279   0.377
   12CHTO    N3 5064   3.500   7.089   0.397
   12CHTO   H12 5065   3.409   7.038   0.424
   12CHTO   H13 5066   3.517   7.082   0.291
   12CHTO   C15 5067   3.456   7.254   0.589
   12CHTO   H28 5068   3.529   7.204   0.654
   12CHTO   O10 5069   3.314   7.208   0.626
   12CHTO    H4 5070   3.307   7.115   0.614
   12CHTO    O5 5071   3.451   7.394   0.621
   12CHTO   C10 5072   3.576   7.462   0.603
   12CHTO   H23 5073   3.652   7.412   0.663
   12CHTO   C17 5074   3.562   7.605   0.657
   12CHTO   O12 5075   3.531   7.605   0.797
   12CHTO    H6 5076   3.521   7.693   0.826
   13CHTO  H203 5077   7.944   4.516   2.086
   13CHTO   O82 5078   7.939   4.486   1.997
   13CHTO  C123 5079   7.888   4.590   1.911
   13CHTO  H227 5080   7.888   4.553   1.807
   13CHTO   O77 5081   7.750   4.608   1.957
   13CHTO  C118 5082   7.674   4.701   1.879
   13CHTO  H222 5083   7.676   4.669   1.774
   13CHTO  C125 5084   7.525   4.697   1.930
   13CHTO   O84 5085   7.515   4.734   2.068
   13CHTO  H205 5086   7.425   4.730   2.095
   13CHTO  C114 5087   7.737   4.842   1.889
   13CHTO  H218 5088   7.731   4.874   1.993
   13CHTO  C116 5089   7.887   4.840   1.847
   13CHTO  H220 5090   7.893   4.823   1.737
   13CHTO   O79 5091   7.943   4.970   1.872
   13CHTO  H201 5092   7.905   5.033   1.814
   13CHTO  C120 5093   7.966   4.726   1.923
   13CHTO  H224 5094   7.971   4.757   2.030
   13CHTO   N21 5095   8.106   4.713   1.875
   13CHTO  H211 5096   8.144   4.809   1.841
   13CHTO  H212 5097   8.169   4.673   1.953
   13CHTO   O75 5098   7.657   4.926   1.805
   13CHTO  C112 5099   7.605   5.063   1.876
   13CHTO  H216 5100   7.689   5.107   1.933
   13CHTO   O73 5101   7.496   5.027   1.961
   13CHTO  C113 5102   7.421   5.135   2.018
   13CHTO  H217 5103   7.490   5.199   2.076
   13CHTO  C124 5104   7.319   5.078   2.119
   13CHTO   O83 5105   7.230   4.981   2.063
   13CHTO  H204 5106   7.173   5.022   2.001
   13CHTO  C109 5107   7.357   5.219   1.904
   13CHTO  H213 5108   7.299   5.149   1.842
   13CHTO  C110 5109   7.472   5.279   1.819
   13CHTO  H214 5110   7.532   5.345   1.883
   13CHTO   O78 5111   7.415   5.360   1.714
   13CHTO  H200 5112   7.373   5.435   1.750
   13CHTO  C111 5113   7.560   5.164   1.762
   13CHTO  H215 5114   7.500   5.106   1.690
   13CHTO   N19 5115   7.680   5.212   1.687
   13CHTO  H207 5116   7.742   5.272   1.752
   13CHTO  H208 5117   7.649   5.271   1.602
   13CHTO   O74 5118   7.268   5.323   1.956
   13CHTO  C115 5119   7.106   5.305   1.916
   13CHTO  H219 5120   7.081   5.360   1.825
   13CHTO   O76 5121   7.070   5.150   1.884
   13CHTO  C122 5122   6.931   5.119   1.867
   13CHTO  H226 5123   6.923   5.010   1.863
   13CHTO  C126 5124   6.882   5.170   1.727
   13CHTO   O85 5125   6.745   5.138   1.700
   13CHTO  H206 5126   6.720   5.172   1.616
   13CHTO  C121 5127   6.845   5.173   1.988
   13CHTO  H225 5128   6.739   5.155   1.963
   13CHTO   O81 5129   6.875   5.096   2.105
   13CHTO  H202 5130   6.815   5.117   2.174
   13CHTO  C119 5131   6.867   5.326   2.011
   13CHTO  H223 5132   6.835   5.375   1.919
   13CHTO  C117 5133   7.019   5.361   2.034
   13CHTO  H221 5134   7.064   5.320   2.124
   13CHTO   N20 5135   7.038   5.509   2.045
   13CHTO  H209 5136   6.981   5.548   2.129
   13CHTO  H210 5137   7.006   5.558   1.954
   13CHTO   O80 5138   6.763   5.389   2.119
   13CHTO  C103 5139   6.623   5.457   2.069
   13CHTO  H190 5140   6.575   5.506   2.154
   13CHTO  C101 5141   6.631   5.562   1.951
   13CHTO  H188 5142   6.682   5.516   1.866
   13CHTO   O68 5143   6.714   5.685   1.999
   13CHTO  H168 5144   6.802   5.659   2.020
   13CHTO   C99 5145   6.484   5.604   1.903
   13CHTO  H186 5146   6.435   5.660   1.986
   13CHTO   N17 5147   6.484   5.696   1.784
   13CHTO  H174 5148   6.421   5.658   1.704
   13CHTO  H175 5149   6.453   5.795   1.813
   13CHTO   C97 5150   6.396   5.478   1.880
   13CHTO  H184 5151   6.431   5.427   1.789
   13CHTO   O64 5152   6.400   5.392   1.995
   13CHTO  C104 5153   6.530   5.339   2.025
   13CHTO  H191 5154   6.573   5.289   1.938
   13CHTO  C108 5155   6.515   5.231   2.133
   13CHTO   O71 5156   6.438   5.121   2.086
   13CHTO  H171 5157   6.429   5.057   2.154
   13CHTO   O62 5158   6.255   5.511   1.865
   13CHTO   C91 5159   6.167   5.403   1.828
   13CHTO  H178 5160   6.224   5.310   1.826
   13CHTO   C92 5161   6.115   5.425   1.682
   13CHTO  H179 5162   6.068   5.525   1.676
   13CHTO   O66 5163   6.229   5.430   1.593
   13CHTO  H166 5164   6.281   5.506   1.611
   13CHTO   C93 5165   6.014   5.312   1.638
   13CHTO  H180 5166   6.071   5.219   1.630
   13CHTO   N16 5167   5.952   5.335   1.505
   13CHTO  H172 5168   5.977   5.255   1.437
   13CHTO  H173 5169   5.982   5.430   1.463
   13CHTO   C94 5170   5.902   5.294   1.748
   13CHTO  H181 5171   5.840   5.383   1.758
   13CHTO   O61 5172   5.963   5.272   1.876
   13CHTO   C95 5173   6.043   5.382   1.923
   13CHTO  H182 5174   5.981   5.472   1.925
   13CHTO  C106 5175   6.084   5.350   2.070
   13CHTO   O69 5176   6.144   5.463   2.135
   13CHTO  H169 5177   6.227   5.482   2.096
   13CHTO   O63 5178   5.808   5.160   1.713
   13CHTO   C96 5179   5.657   5.161   1.777
   13CHTO  H183 5180   5.599   5.087   1.720
   13CHTO   C98 5181   5.579   5.295   1.769
   13CHTO  H185 5182   5.641   5.376   1.809
   13CHTO   O67 5183   5.561   5.325   1.630
   13CHTO  H167 5184   5.522   5.410   1.619
   13CHTO  C102 5185   5.438   5.292   1.846
   13CHTO  H189 5186   5.372   5.229   1.785
   13CHTO   N18 5187   5.371   5.424   1.856
   13CHTO  H176 5188   5.277   5.414   1.906
   13CHTO  H177 5189   5.355   5.464   1.757
   13CHTO  C105 5190   5.456   5.226   1.986
   13CHTO  H192 5191   5.514   5.293   2.050
   13CHTO   O65 5192   5.527   5.101   1.978
   13CHTO  C100 5193   5.660   5.111   1.925
   13CHTO  H187 5194   5.718   5.182   1.986
   13CHTO  C107 5195   5.729   4.972   1.936
   13CHTO   O70 5196   5.741   4.932   2.073
   13CHTO  H170 5197   5.782   4.847   2.076
   13CHTO   O57 5198   5.303   5.201   2.054
   13CHTO   C85 5199   5.211   5.106   1.998
   13CHTO  H157 5200   5.257   5.066   1.905
   13CHTO   C83 5201   5.080   5.179   1.952
   13CHTO  H155 5202   5.108   5.253   1.877
   13CHTO   O56 5203   5.025   5.254   2.063
   13CHTO  H135 5204   4.996   5.196   2.130
   13CHTO   C81 5205   4.983   5.077   1.888
   13CHTO  H153 5206   5.034   5.027   1.806
   13CHTO   N14 5207   4.865   5.141   1.824
   13CHTO  H141 5208   4.805   5.066   1.775
   13CHTO  H142 5209   4.897   5.213   1.752
   13CHTO   C79 5210   4.944   4.966   1.994
   13CHTO  H151 5211   4.886   4.890   1.941
   13CHTO   O52 5212   5.065   4.900   2.044
   13CHTO   C86 5213   5.168   4.989   2.096
   13CHTO  H158 5214   5.124   5.030   2.190
   13CHTO   C90 5215   5.292   4.907   2.141
   13CHTO   O60 5216   5.350   4.836   2.031
   13CHTO  H138 5217   5.425   4.788   2.061
   13CHTO   O50 5218   4.864   5.015   2.104
   13CHTO   C73 5219   4.733   4.977   2.151
   13CHTO  H145 5220   4.682   4.915   2.076
   13CHTO   C74 5221   4.645   5.104   2.177
   13CHTO  H146 5222   4.639   5.160   2.083
   13CHTO   O54 5223   4.511   5.062   2.209
   13CHTO  H133 5224   4.471   5.022   2.134
   13CHTO   C75 5225   4.711   5.189   2.292
   13CHTO  H147 5226   4.811   5.219   2.259
   13CHTO   N13 5227   4.639   5.315   2.323
   13CHTO  H139 5228   4.690   5.369   2.402
   13CHTO  H140 5229   4.635   5.378   2.235
   13CHTO   C76 5230   4.728   5.096   2.422
   13CHTO  H148 5231   4.627   5.066   2.451
   13CHTO   O49 5232   4.804   4.976   2.388
   13CHTO   C77 5233   4.745   4.896   2.284
   13CHTO  H149 5234   4.645   4.864   2.315
   13CHTO   C88 5235   4.827   4.767   2.270
   13CHTO   O58 5236   4.770   4.678   2.165
   13CHTO  H136 5237   4.820   4.599   2.162
   13CHTO   O51 5238   4.806   5.175   2.554
   13CHTO   C78 5239   4.969   5.220   2.551
   13CHTO  H150 5240   4.999   5.250   2.654
   13CHTO   C80 5241   4.992   5.339   2.456
   13CHTO  H152 5242   4.954   5.314   2.357
   13CHTO   O55 5243   4.915   5.449   2.510
   13CHTO  H134 5244   4.919   5.522   2.452
   13CHTO   C84 5245   5.146   5.376   2.443
   13CHTO  H156 5246   5.181   5.410   2.540
   13CHTO   N15 5247   5.169   5.489   2.346
   13CHTO  H143 5248   5.231   5.459   2.264
   13CHTO  H144 5249   5.215   5.572   2.396
   13CHTO   C87 5250   5.224   5.248   2.404
   13CHTO  H159 5251   5.193   5.214   2.305
   13CHTO   O53 5252   5.195   5.142   2.510
   13CHTO   C82 5253   5.059   5.099   2.516
   13CHTO  H154 5254   5.030   5.053   2.422
   13CHTO   C89 5255   5.056   4.989   2.625
   13CHTO   O59 5256   4.929   4.925   2.639
   13CHTO  H137 5257   4.867   4.986   2.674
   13CHTO   O45 5258   5.387   5.277   2.401
   13CHTO   C67 5259   5.469   5.165   2.436
   13CHTO  H124 5260   5.417   5.071   2.416
   13CHTO   C65 5261   5.601   5.169   2.355
   13CHTO  H122 5262   5.572   5.188   2.251
   13CHTO   O44 5263   5.667   5.041   2.361
   13CHTO  H102 5264   5.699   5.026   2.448
   13CHTO   C63 5265   5.685   5.294   2.399
   13CHTO  H120 5266   5.624   5.383   2.386
   13CHTO   N11 5267   5.803   5.325   2.313
   13CHTO  H108 5268   5.877   5.248   2.323
   13CHTO  H109 5269   5.846   5.419   2.341
   13CHTO   C61 5270   5.717   5.283   2.553
   13CHTO  H118 5271   5.762   5.380   2.581
   13CHTO   O40 5272   5.596   5.269   2.632
   13CHTO   C68 5273   5.496   5.168   2.593
   13CHTO  H125 5274   5.401   5.200   2.642
   13CHTO   C72 5275   5.533   5.030   2.653
   13CHTO   O48 5276   5.432   4.931   2.631
   13CHTO  H105 5277   5.461   4.849   2.665
   13CHTO   O38 5278   5.807   5.175   2.588
   13CHTO   C55 5279   5.905   5.194   2.693
   13CHTO  H112 5280   5.941   5.093   2.716
   13CHTO   C56 5281   5.849   5.267   2.824
   13CHTO  H113 5282   5.796   5.358   2.792
   13CHTO   O42 5283   5.749   5.182   0.018
   13CHTO  H100 5284   5.708   5.227   0.090
   13CHTO   C57 5285   5.964   5.304   0.059
   13CHTO  H114 5286   6.002   5.210   0.099
   13CHTO   N10 5287   5.919   5.386   0.174
   13CHTO  H106 5288   5.816   5.364   0.199
   13CHTO  H107 5289   5.981   5.367   0.260
   13CHTO   C58 5290   6.079   5.374   2.849
   13CHTO  H115 5291   6.043   5.472   2.810
   13CHTO   O37 5292   6.126   5.293   2.740
   13CHTO   C59 5293   6.029   5.270   2.637
   13CHTO  H116 5294   5.999   5.365   2.594
   13CHTO   C70 5295   6.098   5.189   2.526
   13CHTO   O46 5296   6.151   5.063   2.570
   13CHTO  H103 5297   6.080   5.005   2.592
   13CHTO   O39 5298   6.210   5.396   0.077
   13CHTO   C60 5299   6.288   5.511   0.039
   13CHTO  H117 5300   6.265   5.539   2.802
   13CHTO   C62 5301   6.255   5.633   0.130
   13CHTO  H119 5302   6.147   5.655   0.115
   13CHTO   O43 5303   6.277   5.598   0.268
   13CHTO  H101 5304   6.213   5.534   0.295
   13CHTO   C66 5305   6.341   5.761   0.083
   13CHTO  H123 5306   6.318   5.782   2.845
   13CHTO   N12 5307   6.307   5.884   0.158
   13CHTO  H110 5308   6.327   5.871   0.263
   13CHTO  H111 5309   6.361   5.969   0.118
   13CHTO   C69 5310   6.493   5.727   0.088
   13CHTO  H126 5311   6.522   5.705   0.194
   13CHTO   O41 5312   6.521   5.601   2.865
   13CHTO   C64 5313   6.440   5.478   0.044
   13CHTO  H121 5314   6.468   5.450   0.148
   13CHTO   C71 5315   6.474   5.358   2.817
   13CHTO   O47 5316   6.612   5.323   2.826
   13CHTO  H104 5317   6.665   5.391   2.789
   13CHTO   O34 5318   6.581   5.848   0.035
   13CHTO   C49 5319   6.733   5.863   0.046
   13CHTO   H91 5320   6.776   5.765   0.028
   13CHTO   C47 5321   6.769   5.912   0.188
   13CHTO   H89 5322   6.881   5.911   0.190
   13CHTO   O33 5323   6.723   5.819   0.289
   13CHTO   H70 5324   6.765   5.736   0.278
   13CHTO   C45 5325   6.711   6.060   0.216
   13CHTO   H87 5326   6.611   6.050   0.261
   13CHTO    N8 5327   6.799   6.127   0.315
   13CHTO   H75 5328   6.897   6.144   0.272
   13CHTO   H76 5329   6.756   6.221   0.346
   13CHTO   C43 5330   6.686   6.140   0.077
   13CHTO   H85 5331   6.587   6.107   0.043
   13CHTO   O29 5332   6.789   6.105   2.849
   13CHTO   C50 5333   6.792   5.966   2.810
   13CHTO   H92 5334   6.737   5.955   2.716
   13CHTO   C54 5335   6.938   5.929   2.772
   13CHTO   O36 5336   6.984   6.007   2.661
   13CHTO   H72 5337   7.072   5.983   2.641
   13CHTO   O27 5338   6.674   6.282   0.091
   13CHTO   C37 5339   6.583   6.387   0.129
   13CHTO   H79 5340   6.510   6.349   0.202
   13CHTO   C38 5341   6.659   6.505   0.198
   13CHTO   H80 5342   6.740   6.538   0.130
   13CHTO   O31 5343   6.718   6.456   0.319
   13CHTO   H68 5344   6.652   6.428   0.380
   13CHTO   C39 5345   6.562   6.627   0.227
   13CHTO   H81 5346   6.493   6.595   0.305
   13CHTO    N7 5347   6.634   6.749   0.280
   13CHTO   H73 5348   6.562   6.827   0.300
   13CHTO   H74 5349   6.707   6.783   0.208
   13CHTO   C40 5350   6.476   6.663   0.100
   13CHTO   H82 5351   6.536   6.715   0.026
   13CHTO   O26 5352   6.413   6.545   0.045
   13CHTO   C41 5353   6.507   6.441   0.005
   13CHTO   H83 5354   6.580   6.483   2.799
   13CHTO   C52 5355   6.426   6.333   2.797
   13CHTO   O35 5356   6.323   6.268   0.016
   13CHTO   H71 5357   6.365   6.220   0.085
   13CHTO   O28 5358   6.362   6.744   0.136
   13CHTO   C42 5359   6.292   6.828   0.039
   13CHTO   H84 5360   6.305   6.778   2.809
   13CHTO   C44 5361   6.352   6.972   0.020
   13CHTO   H86 5362   6.364   7.017   0.119
   13CHTO   O32 5363   6.483   6.957   2.830
   13CHTO   H69 5364   6.542   6.918   0.026
   13CHTO   C48 5365   6.263   7.069   2.798
   13CHTO   H90 5366   6.270   7.035   2.695
   13CHTO    N9 5367   6.314   7.211   2.798
   13CHTO   H77 5368   6.242   7.279   2.841
   13CHTO   H78 5369   6.409   7.218   2.850
   13CHTO   C51 5370   6.112   7.059   2.844
   13CHTO   H93 5371   6.106   7.093   0.081
   13CHTO   O30 5372   6.072   6.921   2.831
   13CHTO   C46 5373   6.140   6.834   0.068
   13CHTO   H88 5374   6.123   6.876   0.167
   13CHTO   C53 5375   6.076   6.693   0.060
   13CHTO   O72 5376   5.937   6.698   0.094
   13CHTO  H199 5377   5.901   6.612   0.090
   13CHTO   O22 5378   6.023   7.135   2.760
   13CHTO   C31 5379   5.879   7.155   2.791
   13CHTO   H59 5380   5.844   7.236   2.723
   13CHTO   C29 5381   5.791   7.031   2.762
   13CHTO   H57 5382   5.828   6.948   2.825
   13CHTO   O21 5383   5.811   6.992   2.625
   13CHTO   H37 5384   5.900   6.964   2.611
   13CHTO   C27 5385   5.638   7.056   2.795
   13CHTO   H55 5386   5.599   7.132   2.726
   13CHTO    N5 5387   5.555   6.933   2.781
   13CHTO   H43 5388   5.616   6.847   2.756
   13CHTO   H44 5389   5.479   6.948   2.706
   13CHTO   C25 5390   5.626   7.115   0.074
   13CHTO   H53 5391   5.660   7.039   0.147
   13CHTO   O17 5392   5.711   7.233   0.087
   13CHTO   C32 5393   5.851   7.207   0.070
   13CHTO   H60 5394   5.883   7.130   0.141
   13CHTO   C36 5395   5.929   7.337   0.100
   13CHTO   O25 5396   5.912   7.379   0.235
   13CHTO   H40 5397   5.824   7.409   0.249
   13CHTO   O15 5398   5.475   7.157   0.111
   13CHTO   C19 5399   5.354   7.230   0.076
   13CHTO   H47 5400   5.309   7.254   0.173
   13CHTO   C20 5401   5.380   7.363   2.865
   13CHTO   H48 5402   5.439   7.347   2.773
   13CHTO   O19 5403   5.458   7.446   0.087
   13CHTO   H35 5404   5.485   7.524   0.043
   13CHTO   C21 5405   5.245   7.436   2.823
   13CHTO   H49 5406   5.195   7.471   0.048
   13CHTO    N4 5407   5.268   7.557   2.739
   13CHTO   H41 5408   5.328   7.629   2.794
   13CHTO   H42 5409   5.319   7.530   2.648
   13CHTO   C22 5410   5.148   7.334   2.757
   13CHTO   H50 5411   5.193   7.301   2.663
   13CHTO   O14 5412   5.130   7.221   2.844
   13CHTO   C23 5413   5.249   7.144   2.866
   13CHTO   H51 5414   5.287   7.111   2.767
   13CHTO   C34 5415   5.212   7.019   0.080
   13CHTO   O23 5416   5.126   6.933   0.004
   13CHTO   H38 5417   5.104   6.858   0.055
   13CHTO   O16 5418   5.019   7.393   2.730
   13CHTO   C24 5419   4.881   7.307   2.750
   13CHTO   H52 5420   4.883   7.247   2.841
   13CHTO   C26 5421   4.855   7.216   2.629
   13CHTO   H54 5422   4.855   7.278   2.536
   13CHTO   O20 5423   4.963   7.121   2.620
   13CHTO   H36 5424   4.954   7.069   2.542
   13CHTO   C30 5425   4.715   7.146   2.641
   13CHTO   H58 5426   4.717   7.076   2.726
   13CHTO    N6 5427   4.684   7.064   2.521
   13CHTO   H45 5428   4.587   7.017   2.533
   13CHTO   H46 5429   4.759   6.987   2.508
   13CHTO   C33 5430   4.604   7.251   2.671
   13CHTO   H61 5431   4.591   7.316   2.583
   13CHTO   O18 5432   4.642   7.334   2.783
   13CHTO   C28 5433   4.764   7.408   2.766
   13CHTO   H56 5434   4.759   7.470   2.676
   13CHTO   C35 5435   4.787   7.499   0.022
   13CHTO   O24 5436   4.687   7.600   0.035
   13CHTO   H39 5437   4.604   7.561   0.055
   13CHTO    O9 5438   4.474   7.191   2.693
   13CHTO   C13 5439   4.459   7.113   2.837
   13CHTO   H26 5440   4.559   7.109   0.020
   13CHTO   C11 5441   4.400   6.968   2.811
   13CHTO   H24 5442   4.474   6.913   2.750
   13CHTO    O8 5443   4.278   6.978   2.735
   13CHTO    H3 5444   4.248   6.892   2.713
   13CHTO    C9 5445   4.385   6.898   0.083
   13CHTO   H22 5446   4.486   6.899   0.127
   13CHTO    N2 5447   4.353   6.754   0.072
   13CHTO   H10 5448   4.359   6.707   0.169
   13CHTO   H11 5449   4.255   6.741   0.030
   13CHTO    C7 5450   4.290   6.983   0.179
   13CHTO   H20 5451   4.353   6.997   0.270
   13CHTO    O4 5452   4.257   7.113   0.125
   13CHTO   C14 5453   4.365   7.192   0.074
   13CHTO   H27 5454   4.428   7.222   0.161
   13CHTO   C18 5455   4.304   7.323   0.016
   13CHTO   O13 5456   4.206   7.295   2.781
   13CHTO    H7 5457   4.172   7.376   2.748
   13CHTO    O2 5458   4.147   6.908   0.221
   13CHTO    C1 5459   4.114   6.927   0.359
   13CHTO   H14 5460   4.187   6.996   0.408
   13CHTO    C2 5461   4.110   6.792   0.442
   13CHTO   H15 5462   4.034   6.728   0.394
   13CHTO    O6 5463   4.240   6.730   0.433
   13CHTO    H1 5464   4.237   6.645   0.472
   13CHTO    C3 5465   4.069   6.824   0.594
   13CHTO   H16 5466   4.151   6.881   0.639
   13CHTO    N1 5467   4.052   6.699   0.676
   13CHTO    H8 5468   3.975   6.637   0.633
   13CHTO    H9 5469   4.146   6.644   0.679
   13CHTO    C4 5470   3.942   6.917   0.601
   13CHTO   H17 5471   3.852   6.858   0.584
   13CHTO    O1 5472   3.947   7.027   0.509
   13CHTO    C5 5473   3.975   6.996   0.372
   13CHTO   H18 5474   3.899   6.927   0.334
   13CHTO   C16 5475   3.965   7.128   0.292
   13CHTO   O11 5476   4.059   7.226   0.338
   13CHTO    H5 5477   4.050   7.304   0.287
   13CHTO    O3 5478   3.936   6.981   0.731
   13CHTO    C6 5479   3.811   7.050   0.764
   13CHTO   H19 5480   3.744   7.062   0.679
   13CHTO    C8 5481   3.736   6.968   0.874
   13CHTO   H21 5482   3.807   6.947   0.955
   13CHTO    O7 5483   3.694   6.845   0.814
   13CHTO    H2 5484   3.655   6.789   0.878
   13CHTO   C12 5485   3.614   7.049   0.934
   13CHTO   H25 5486   3.536   7.052   0.854
   13CHTO    N3 5487   3.553   6.976   1.050
   13CHTO   H12 5488   3.625   6.966   1.130
   13CHTO   H13 5489   3.466   7.029   1.085
   13CHTO   C15 5490   3.656   7.196   0.968
   13CHTO   H28 5491   3.720   7.200   1.056
   13CHTO   O10 5492   3.533   7.289   0.990
   13CHTO    H4 5493   3.561   7.373   1.021
   13CHTO    O5 5494   3.721   7.258   0.856
   13CHTO   C10 5495   3.843   7.194   0.817
   13CHTO   H23 5496   3.909   7.189   0.903
   13CHTO   C17 5497   3.908   7.286   0.713
   13CHTO   O12 5498   4.041   7.246   0.679
   13CHTO    H6 5499   4.039   7.167   0.630
   14CHTO  H203 5500   6.695   4.712   2.632
   14CHTO   O82 5501   6.758   4.760   2.582
   14CHTO  C123 5502   6.700   4.808   2.459
   14CHTO  H227 5503   6.776   4.864   2.403
   14CHTO   O77 5504   6.668   4.684   2.387
   14CHTO  C118 5505   6.599   4.701   2.262
   14CHTO  H222 5506   6.658   4.766   2.196
   14CHTO  C125 5507   6.583   4.560   2.194
   14CHTO   O84 5508   6.508   4.469   2.276
   14CHTO  H205 5509   6.500   4.387   2.231
   14CHTO  C114 5510   6.463   4.769   2.291
   14CHTO  H218 5511   6.411   4.710   2.366
   14CHTO  C116 5512   6.488   4.909   2.352
   14CHTO  H220 5513   6.544   4.972   2.279
   14CHTO   O79 5514   6.361   4.974   2.374
   14CHTO  H201 5515   6.320   4.993   2.292
   14CHTO  C120 5516   6.571   4.895   2.486
   14CHTO  H224 5517   6.504   4.842   2.558
   14CHTO   N21 5518   6.605   5.026   2.546
   14CHTO  H211 5519   6.614   5.016   2.654
   14CHTO  H212 5520   6.530   5.100   2.523
   14CHTO   O75 5521   6.390   4.770   2.167
   14CHTO  C112 5522   6.233   4.732   2.190
   14CHTO  H216 5523   6.191   4.800   2.266
   14CHTO   O73 5524   6.228   4.595   2.233
   14CHTO  C113 5525   6.098   4.555   2.278
   14CHTO  H217 5526   6.063   4.625   2.358
   14CHTO  C124 5527   6.113   4.416   2.341
   14CHTO   O83 5528   5.996   4.371   2.409
   14CHTO  H204 5529   6.010   4.284   2.442
   14CHTO  C109 5530   5.999   4.558   2.158
   14CHTO  H213 5531   6.029   4.476   2.090
   14CHTO  C110 5532   6.004   4.695   2.083
   14CHTO  H214 5533   5.950   4.768   2.145
   14CHTO   O78 5534   5.929   4.683   1.961
   14CHTO  H200 5535   5.970   4.622   1.903
   14CHTO  C111 5536   6.149   4.745   2.058
   14CHTO  H215 5537   6.196   4.680   1.982
   14CHTO   N19 5538   6.155   4.884   2.004
   14CHTO  H207 5539   6.208   4.886   1.910
   14CHTO  H208 5540   6.201   4.952   2.073
   14CHTO   O74 5541   5.863   4.532   2.205
   14CHTO  C115 5542   5.785   4.416   2.126
   14CHTO  H219 5543   5.792   4.429   2.018
   14CHTO   O76 5544   5.845   4.275   2.157
   14CHTO  C122 5545   5.776   4.162   2.104
   14CHTO  H226 5546   5.822   4.073   2.148
   14CHTO  C126 5547   5.801   4.151   1.949
   14CHTO   O85 5548   5.758   4.026   1.895
   14CHTO  H206 5549   5.775   4.024   1.803
   14CHTO  C121 5550   5.622   4.163   2.142
   14CHTO  H225 5551   5.572   4.084   2.083
   14CHTO   O81 5552   5.610   4.130   2.281
   14CHTO  H202 5553   5.520   4.113   2.302
   14CHTO  C119 5554   5.553   4.300   2.111
   14CHTO  H223 5555   5.549   4.307   2.002
   14CHTO  C117 5556   5.633   4.423   2.167
   14CHTO  H221 5557   5.634   4.433   2.275
   14CHTO   N20 5558   5.573   4.552   2.117
   14CHTO  H209 5559   5.578   4.556   2.009
   14CHTO  H210 5560   5.470   4.560   2.150
   14CHTO   O80 5561   5.392   4.299   2.149
   14CHTO  C103 5562   5.284   4.268   2.038
   14CHTO  H190 5563   5.318   4.301   1.940
   14CHTO  C101 5564   5.237   4.117   2.028
   14CHTO  H188 5565   5.213   4.081   2.128
   14CHTO   O68 5566   5.354   4.032   1.972
   14CHTO  H168 5567   5.374   4.058   1.884
   14CHTO   C99 5568   5.105   4.103   1.937
   14CHTO  H186 5569   5.133   4.127   1.833
   14CHTO   N17 5570   5.049   3.964   1.935
   14CHTO  H174 5571   5.058   3.921   1.836
   14CHTO  H175 5572   4.946   3.962   1.968
   14CHTO   C97 5573   4.998   4.209   1.977
   14CHTO  H184 5574   4.955   4.181   2.074
   14CHTO   O64 5575   5.056   4.341   1.979
   14CHTO  C104 5576   5.160   4.357   2.076
   14CHTO  H191 5577   5.126   4.330   2.176
   14CHTO  C108 5578   5.198   4.506   2.084
   14CHTO   O71 5579   5.088   4.586   2.128
   14CHTO  H171 5580   5.020   4.587   2.063
   14CHTO   O62 5581   4.896   4.222   1.876
   14CHTO   C91 5582   4.759   4.222   1.921
   14CHTO  H178 5583   4.745   4.129   1.977
   14CHTO   C92 5584   4.667   4.211   1.794
   14CHTO  H179 5585   4.701   4.128   1.730
   14CHTO   O66 5586   4.535   4.173   1.838
   14CHTO  H166 5587   4.535   4.086   1.872
   14CHTO   C93 5588   4.654   4.347   1.715
   14CHTO  H180 5589   4.563   4.340   1.654
   14CHTO   N16 5590   4.763   4.368   1.617
   14CHTO  H172 5591   4.859   4.371   1.667
   14CHTO  H173 5592   4.746   4.459   1.561
   14CHTO   C94 5593   4.641   4.470   1.814
   14CHTO  H181 5594   4.733   4.528   1.820
   14CHTO   O61 5595   4.611   4.427   1.948
   14CHTO   C95 5596   4.715   4.347   2.009
   14CHTO  H182 5597   4.802   4.411   2.027
   14CHTO  C106 5598   4.665   4.300   2.150
   14CHTO   O69 5599   4.643   4.410   2.239
   14CHTO  H169 5600   4.568   4.460   2.209
   14CHTO   O63 5601   4.524   4.561   1.762
   14CHTO   C96 5602   4.512   4.698   1.839
   14CHTO  H183 5603   4.592   4.704   1.913
   14CHTO   C98 5604   4.377   4.714   1.913
   14CHTO  H185 5605   4.294   4.694   1.843
   14CHTO   O67 5606   4.370   4.610   2.012
   14CHTO  H167 5607   4.286   4.611   2.055
   14CHTO  C102 5608   4.359   4.859   1.979
   14CHTO  H189 5609   4.433   4.865   2.060
   14CHTO   N18 5610   4.227   4.883   2.043
   14CHTO  H176 5611   4.148   4.871   1.970
   14CHTO  H177 5612   4.212   4.812   2.124
   14CHTO  C105 5613   4.394   4.967   1.873
   14CHTO  H192 5614   4.316   4.969   1.796
   14CHTO   O65 5615   4.521   4.943   1.810
   14CHTO  C100 5616   4.530   4.819   1.739
   14CHTO  H187 5617   4.449   4.815   1.664
   14CHTO  C107 5618   4.666   4.817   1.665
   14CHTO   O70 5619   4.672   4.714   1.565
   14CHTO  H170 5620   4.674   4.630   1.606
   14CHTO   O57 5621   4.401   5.110   1.949
   14CHTO   C85 5622   4.328   5.222   1.898
   14CHTO  H157 5623   4.225   5.185   1.878
   14CHTO   C83 5624   4.385   5.266   1.760
   14CHTO  H155 5625   4.369   5.184   1.689
   14CHTO   O56 5626   4.527   5.285   1.769
   14CHTO  H135 5627   4.547   5.357   1.825
   14CHTO   C81 5628   4.306   5.391   1.710
   14CHTO  H153 5629   4.200   5.365   1.708
   14CHTO   N14 5630   4.336   5.428   1.569
   14CHTO  H141 5631   4.318   5.345   1.504
   14CHTO  H142 5632   4.438   5.458   1.560
   14CHTO   C79 5633   4.325   5.510   1.811
   14CHTO  H151 5634   4.264   5.592   1.775
   14CHTO   O52 5635   4.273   5.472   1.942
   14CHTO   C86 5636   4.327   5.347   1.997
   14CHTO  H158 5637   4.431   5.373   2.027
   14CHTO   C90 5638   4.253   5.312   2.128
   14CHTO   O60 5639   4.112   5.293   2.107
   14CHTO  H138 5640   4.072   5.374   2.084
   14CHTO   O50 5641   4.462   5.555   1.822
   14CHTO   C73 5642   4.517   5.675   1.876
   14CHTO  H145 5643   4.466   5.702   1.970
   14CHTO   C74 5644   4.500   5.793   1.775
   14CHTO  H146 5645   4.392   5.802   1.753
   14CHTO   O54 5646   4.537   5.916   1.841
   14CHTO  H133 5647   4.476   5.937   1.909
   14CHTO   C75 5648   4.585   5.763   1.646
   14CHTO  H147 5649   4.548   5.670   1.600
   14CHTO   N13 5650   4.572   5.867   1.541
   14CHTO  H139 5651   4.631   5.840   1.454
   14CHTO  H140 5652   4.608   5.962   1.578
   14CHTO   C76 5653   4.737   5.738   1.689
   14CHTO  H148 5654   4.775   5.831   1.733
   14CHTO   O49 5655   4.745   5.630   1.787
   14CHTO   C77 5656   4.669   5.655   1.907
   14CHTO  H149 5657   4.707   5.744   1.957
   14CHTO   C88 5658   4.692   5.538   2.004
   14CHTO   O58 5659   4.836   5.525   2.043
   14CHTO  H136 5660   4.862   5.600   2.093
   14CHTO   O51 5661   4.826   5.687   1.567
   14CHTO   C78 5662   4.978   5.733   1.583
   14CHTO  H150 5663   4.997   5.776   1.684
   14CHTO   C80 5664   5.012   5.839   1.477
   14CHTO  H152 5665   4.990   5.796   1.377
   14CHTO   O55 5666   4.925   5.951   1.499
   14CHTO  H134 5667   4.935   6.014   1.431
   14CHTO   C84 5668   5.164   5.881   1.483
   14CHTO  H156 5669   5.180   5.931   1.578
   14CHTO   N15 5670   5.203   5.978   1.374
   14CHTO  H143 5671   5.239   6.069   1.417
   14CHTO  H144 5672   5.120   6.000   1.311
   14CHTO   C87 5673   5.255   5.756   1.480
   14CHTO  H159 5674   5.252   5.709   1.381
   14CHTO   O53 5675   5.208   5.653   1.588
   14CHTO   C82 5676   5.072   5.612   1.567
   14CHTO  H154 5677   5.061   5.568   1.468
   14CHTO   C89 5678   5.035   5.501   1.669
   14CHTO   O59 5679   5.106   5.380   1.641
   14CHTO  H137 5680   5.073   5.341   1.562
   14CHTO   O45 5681   5.410   5.799   1.514
   14CHTO   C67 5682   5.508   5.694   1.511
   14CHTO  H124 5683   5.472   5.605   1.564
   14CHTO   C65 5684   5.544   5.655   1.364
   14CHTO  H122 5685   5.449   5.644   1.311
   14CHTO   O44 5686   5.614   5.529   1.362
   14CHTO  H102 5687   5.558   5.461   1.393
   14CHTO   C63 5688   5.617   5.776   1.295
   14CHTO  H120 5689   5.554   5.865   1.303
   14CHTO   N11 5690   5.636   5.765   1.147
   14CHTO  H108 5691   5.703   5.685   1.124
   14CHTO  H109 5692   5.541   5.747   1.099
   14CHTO   C61 5693   5.750   5.807   1.374
   14CHTO  H118 5694   5.791   5.899   1.330
   14CHTO   O40 5695   5.720   5.837   1.513
   14CHTO   C68 5696   5.637   5.744   1.590
   14CHTO  H125 5697   5.599   5.800   1.678
   14CHTO   C72 5698   5.722   5.626   1.646
   14CHTO   O48 5699   5.834   5.670   1.722
   14CHTO  H105 5700   5.805   5.711   1.802
   14CHTO   O38 5701   5.848   5.700   1.370
   14CHTO   C55 5702   5.974   5.723   1.303
   14CHTO  H112 5703   5.972   5.817   1.245
   14CHTO   C56 5704   6.007   5.597   1.212
   14CHTO  H113 5705   5.996   5.508   1.275
   14CHTO   O42 5706   5.908   5.584   1.108
   14CHTO  H100 5707   5.824   5.568   1.145
   14CHTO   C57 5708   6.152   5.604   1.151
   14CHTO  H114 5709   6.150   5.682   1.075
   14CHTO   N10 5710   6.195   5.479   1.083
   14CHTO  H106 5711   6.110   5.428   1.040
   14CHTO  H107 5712   6.266   5.502   1.004
   14CHTO   C58 5713   6.256   5.645   1.259
   14CHTO  H115 5714   6.272   5.559   1.328
   14CHTO   O37 5715   6.213   5.759   1.335
   14CHTO   C59 5716   6.090   5.739   1.406
   14CHTO  H116 5717   6.098   5.649   1.469
   14CHTO   C70 5718   6.068   5.859   1.499
   14CHTO   O46 5719   6.164   5.863   1.606
   14CHTO  H103 5720   6.146   5.937   1.661
   14CHTO   O39 5721   6.397   5.688   1.187
   14CHTO   C60 5722   6.513   5.678   1.271
   14CHTO  H117 5723   6.489   5.718   1.370
   14CHTO   C62 5724   6.559   5.530   1.288
   14CHTO  H119 5725   6.476   5.477   1.338
   14CHTO   O43 5726   6.580   5.470   1.159
   14CHTO  H101 5727   6.650   5.513   1.113
   14CHTO   C66 5728   6.689   5.525   1.383
   14CHTO  H123 5729   6.666   5.575   1.477
   14CHTO   N12 5730   6.727   5.386   1.420
   14CHTO  H110 5731   6.646   5.340   1.475
   14CHTO  H111 5732   6.751   5.329   1.331
   14CHTO   C69 5733   6.804   5.603   1.315
   14CHTO  H126 5734   6.827   5.559   1.215
   14CHTO   O41 5735   6.757   5.753   1.297
   14CHTO   C64 5736   6.627   5.766   1.212
   14CHTO  H121 5737   6.647   5.734   1.108
   14CHTO   C71 5738   6.582   5.914   1.210
   14CHTO   O47 5739   6.684   5.998   1.153
   14CHTO  H104 5740   6.654   6.087   1.153
   14CHTO   O34 5741   6.937   5.601   1.401
   14CHTO   C49 5742   7.081   5.645   1.377
   14CHTO   H91 5743   7.121   5.584   1.296
   14CHTO   C47 5744   7.161   5.621   1.507
   14CHTO   H89 5745   7.267   5.645   1.480
   14CHTO   O33 5746   7.155   5.482   1.544
   14CHTO   H70 5747   7.214   5.465   1.615
   14CHTO   C45 5748   7.108   5.715   1.627
   14CHTO   H87 5749   7.033   5.659   1.685
   14CHTO    N8 5750   7.221   5.747   1.718
   14CHTO   H75 5751   7.266   5.656   1.755
   14CHTO   H76 5752   7.295   5.806   1.665
   14CHTO   C43 5753   7.027   5.842   1.568
   14CHTO   H85 5754   6.928   5.803   1.545
   14CHTO   O29 5755   7.093   5.891   1.450
   14CHTO   C50 5756   7.094   5.797   1.340
   14CHTO   H92 5757   7.011   5.822   1.273
   14CHTO   C54 5758   7.220   5.822   1.253
   14CHTO   O36 5759   7.217   5.952   1.193
   14CHTO   H72 5760   7.296   5.966   1.144
   14CHTO   O27 5761   7.003   5.947   1.663
   14CHTO   C37 5762   6.902   6.046   1.687
   14CHTO   H79 5763   6.948   6.146   1.688
   14CHTO   C38 5764   6.794   6.050   1.573
   14CHTO   H80 5765   6.756   5.947   1.558
   14CHTO   O31 5766   6.861   6.093   1.453
   14CHTO   H68 5767   6.803   6.087   1.380
   14CHTO   C39 5768   6.674   6.145   1.611
   14CHTO   H81 5769   6.714   6.246   1.617
   14CHTO    N7 5770   6.565   6.146   1.508
   14CHTO   H73 5771   6.523   6.047   1.497
   14CHTO   H74 5772   6.488   6.216   1.536
   14CHTO   C40 5773   6.620   6.108   1.754
   14CHTO   H82 5774   6.574   6.009   1.751
   14CHTO   O26 5775   6.727   6.114   1.850
   14CHTO   C41 5776   6.836   6.020   1.825
   14CHTO   H83 5777   6.797   5.917   1.828
   14CHTO   C52 5778   6.940   6.035   1.938
   14CHTO   O35 5779   6.885   6.007   2.069
   14CHTO   H71 5780   6.951   6.021   2.135
   14CHTO   O28 5781   6.526   6.205   1.805
   14CHTO   C42 5782   6.406   6.163   1.879
   14CHTO   H84 5783   6.378   6.253   1.934
   14CHTO   C44 5784   6.425   6.050   1.986
   14CHTO   H86 5785   6.464   5.961   1.937
   14CHTO   O32 5786   6.525   6.095   2.080
   14CHTO   H69 5787   6.494   6.170   2.127
   14CHTO   C48 5788   6.289   6.011   2.058
   14CHTO   H90 5789   6.261   6.094   2.123
   14CHTO    N9 5790   6.304   5.892   2.149
   14CHTO   H77 5791   6.338   5.806   2.092
   14CHTO   H78 5792   6.375   5.914   2.228
   14CHTO   C51 5793   6.173   5.990   1.954
   14CHTO   H93 5794   6.192   5.898   1.897
   14CHTO   O30 5795   6.165   6.104   1.868
   14CHTO   C46 5796   6.287   6.128   1.785
   14CHTO   H88 5797   6.311   6.037   1.730
   14CHTO   C53 5798   6.256   6.243   1.687
   14CHTO   O72 5799   6.157   6.202   1.591
   14CHTO  H199 5800   6.140   6.273   1.532
   14CHTO   O22 5801   6.045   5.984   2.019
   14CHTO   C31 5802   5.928   5.908   1.971
   14CHTO   H59 5803   5.965   5.842   1.889
   14CHTO   C29 5804   5.869   5.815   2.080
   14CHTO   H57 5805   5.854   5.879   2.169
   14CHTO   O21 5806   5.970   5.719   2.117
   14CHTO   H37 5807   5.984   5.658   2.047
   14CHTO   C27 5808   5.731   5.748   2.041
   14CHTO   H55 5809   5.748   5.676   1.960
   14CHTO    N5 5810   5.667   5.676   2.154
   14CHTO   H43 5811   5.733   5.598   2.190
   14CHTO   H44 5812   5.646   5.745   2.235
   14CHTO   C25 5813   5.636   5.860   1.984
   14CHTO   H53 5814   5.618   5.936   2.062
   14CHTO   O17 5815   5.702   5.922   1.872
   14CHTO   C32 5816   5.818   5.999   1.908
   14CHTO   H60 5817   5.790   6.075   1.980
   14CHTO   C36 5818   5.866   6.068   1.778
   14CHTO   O25 5819   5.765   6.154   1.726
   14CHTO   H40 5820   5.796   6.196   1.648
   14CHTO   O15 5821   5.497   5.806   1.932
   14CHTO   C19 5822   5.359   5.845   1.906
   14CHTO   H47 5823   5.329   5.783   1.820
   14CHTO   C20 5824   5.262   5.816   2.025
   14CHTO   H48 5825   5.289   5.872   2.115
   14CHTO   O19 5826   5.274   5.676   2.056
   14CHTO   H35 5827   5.225   5.655   2.134
   14CHTO   C21 5828   5.112   5.852   1.988
   14CHTO   H49 5829   5.077   5.782   1.912
   14CHTO    N4 5830   5.018   5.837   2.103
   14CHTO   H41 5831   5.018   5.735   2.138
   14CHTO   H42 5832   5.048   5.902   2.184
   14CHTO   C22 5833   5.104   5.994   1.926
   14CHTO   H50 5834   5.120   6.069   2.003
   14CHTO   O14 5835   5.202   6.009   1.822
   14CHTO   C23 5836   5.338   5.993   1.863
   14CHTO   H51 5837   5.357   6.063   1.946
   14CHTO   C34 5838   5.427   6.035   1.746
   14CHTO   O23 5839   5.412   6.175   1.716
   14CHTO   H38 5840   5.467   6.197   1.643
   14CHTO   O16 5841   4.977   6.015   1.859
   14CHTO   C24 5842   4.926   6.174   1.833
   14CHTO   H52 5843   4.837   6.178   1.770
   14CHTO   C26 5844   5.035   6.258   1.765
   14CHTO   H54 5845   5.128   6.252   1.826
   14CHTO   O20 5846   5.063   6.199   1.636
   14CHTO   H36 5847   4.987   6.205   1.580
   14CHTO   C30 5848   4.994   6.408   1.754
   14CHTO   H58 5849   4.910   6.419   1.685
   14CHTO    N6 5850   5.105   6.491   1.698
   14CHTO   H45 5851   5.131   6.456   1.599
   14CHTO   H46 5852   5.073   6.595   1.691
   14CHTO   C33 5853   4.945   6.461   1.892
   14CHTO   H61 5854   5.029   6.462   1.964
   14CHTO   O18 5855   4.843   6.374   1.944
   14CHTO   C28 5856   4.886   6.239   1.969
   14CHTO   H56 5857   4.973   6.238   2.035
   14CHTO   C35 5858   4.772   6.158   2.034
   14CHTO   O24 5859   4.736   6.210   2.163
   14CHTO   H39 5860   4.665   6.159   2.198
   14CHTO    O9 5861   4.899   6.598   1.885
   14CHTO   C13 5862   4.869   6.670   2.028
   14CHTO   H26 5863   4.874   6.594   2.108
   14CHTO   C11 5864   4.724   6.737   2.019
   14CHTO   H24 5865   4.649   6.657   2.027
   14CHTO    O8 5866   4.706   6.802   1.892
   14CHTO    H3 5867   4.768   6.872   1.881
   14CHTO    C9 5868   4.708   6.835   2.140
   14CHTO   H22 5869   4.732   6.775   2.229
   14CHTO    N2 5870   4.567   6.878   2.162
   14CHTO   H10 5871   4.560   6.933   2.254
   14CHTO   H11 5872   4.534   6.939   2.079
   14CHTO    C7 5873   4.815   6.952   2.128
   14CHTO   H20 5874   4.846   6.969   2.233
   14CHTO    O4 5875   4.929   6.914   2.048
   14CHTO   C14 5876   4.979   6.781   2.066
   14CHTO   H27 5877   5.005   6.768   2.174
   14CHTO   C18 5878   5.111   6.772   1.986
   14CHTO   O13 5879   5.185   6.654   2.018
   14CHTO    H7 5880   5.218   6.660   2.106
   14CHTO    O2 5881   4.754   7.093   2.065
   14CHTO    C1 5882   4.815   7.220   2.096
   14CHTO   H14 5883   4.813   7.281   2.003
   14CHTO    C2 5884   4.964   7.221   2.152
   14CHTO   H15 5885   4.964   7.159   2.243
   14CHTO    O6 5886   5.052   7.165   2.054
   14CHTO    H1 5887   5.033   7.074   2.042
   14CHTO    C3 5888   5.010   7.371   2.187
   14CHTO   H16 5889   5.025   7.424   2.092
   14CHTO    N1 5890   5.140   7.375   2.262
   14CHTO    H8 5891   5.217   7.327   2.202
   14CHTO    H9 5892   5.169   7.477   2.281
   14CHTO    C4 5893   4.898   7.453   2.263
   14CHTO   H17 5894   4.896   7.421   2.368
   14CHTO    O1 5895   4.769   7.435   2.203
   14CHTO    C5 5896   4.726   7.298   2.197
   14CHTO   H18 5897   4.738   7.251   2.295
   14CHTO   C16 5898   4.576   7.298   2.160
   14CHTO   O11 5899   4.500   7.358   2.265
   14CHTO    H5 5900   4.499   7.302   2.340
   14CHTO    O3 5901   4.926   7.594   2.253
   14CHTO    C6 5902   4.845   7.682   2.338
   14CHTO   H19 5903   4.750   7.637   2.369
   14CHTO    C8 5904   4.924   7.721   2.467
   14CHTO   H21 5905   5.021   7.762   2.437
   14CHTO    O7 5906   4.943   7.600   2.542
   14CHTO    H2 5907   4.997   7.617   2.617
   14CHTO   C12 5908   4.844   7.831   2.548
   14CHTO   H25 5909   4.748   7.784   2.579
   14CHTO    N3 5910   4.915   7.871   2.674
   14CHTO   H12 5911   5.013   7.911   2.651
   14CHTO   H13 5912   4.924   7.785   2.740
   14CHTO   C15 5913   4.812   7.951   2.453
   14CHTO   H28 5914   4.903   8.002   2.421
   14CHTO   O10 5915   4.716   8.054   2.515
   14CHTO    H4 5916   4.708   8.129   2.459
   14CHTO    O5 5917   4.738   7.906   2.338
   14CHTO   C10 5918   4.809   7.811   2.257
   14CHTO   H23 5919   4.901   7.858   2.222
   14CHTO   C17 5920   4.726   7.780   2.132
   14CHTO   O12 5921   4.599   7.721   2.164
   14CHTO    H6 5922   4.552   7.703   2.085
   15CHTO  H203 5923   7.018   4.846   2.106
   15CHTO   O82 5924   6.975   4.766   2.131
   15CHTO  C123 5925   6.927   4.695   2.016
   15CHTO  H227 5926   6.882   4.600   2.049
   15CHTO   O77 5927   6.822   4.782   1.962
   15CHTO  C118 5928   6.751   4.728   1.850
   15CHTO  H222 5929   6.706   4.632   1.878
   15CHTO  C125 5930   6.636   4.829   1.813
   15CHTO   O84 5931   6.542   4.843   1.919
   15CHTO  H205 5932   6.494   4.763   1.930
   15CHTO  C114 5933   6.849   4.708   1.732
   15CHTO  H218 5934   6.892   4.805   1.706
   15CHTO  C116 5935   6.969   4.618   1.773
   15CHTO  H220 5936   6.933   4.513   1.790
   15CHTO   O79 5937   7.061   4.613   1.662
   15CHTO  H201 5938   7.131   4.554   1.681
   15CHTO  C120 5939   7.037   4.672   1.906
   15CHTO  H224 5940   7.086   4.768   1.880
   15CHTO   N21 5941   7.144   4.579   1.952
   15CHTO  H211 5942   7.238   4.606   1.906
   15CHTO  H212 5943   7.154   4.583   2.060
   15CHTO   O75 5944   6.770   4.662   1.620
   15CHTO  C112 5945   6.723   4.501   1.619
   15CHTO  H216 5946   6.697   4.470   1.722
   15CHTO   O73 5947   6.833   4.423   1.568
   15CHTO  C113 5948   6.809   4.282   1.570
   15CHTO  H217 5949   6.783   4.251   1.674
   15CHTO  C124 5950   6.939   4.208   1.533
   15CHTO   O83 5951   6.981   4.233   1.398
   15CHTO  H204 5952   6.922   4.192   1.338
   15CHTO  C109 5953   6.692   4.246   1.474
   15CHTO  H213 5954   6.724   4.273   1.372
   15CHTO  C110 5955   6.565   4.328   1.513
   15CHTO  H214 5956   6.527   4.290   1.609
   15CHTO   O78 5957   6.461   4.304   1.416
   15CHTO  H200 5958   6.489   4.334   1.331
   15CHTO  C111 5959   6.598   4.480   1.526
   15CHTO  H215 5960   6.624   4.518   1.426
   15CHTO   N19 5961   6.483   4.561   1.574
   15CHTO  H207 5962   6.511   4.665   1.579
   15CHTO  H208 5963   6.399   4.550   1.506
   15CHTO   O74 5964   6.668   4.102   1.480
   15CHTO  C115 5965   6.619   4.037   1.343
   15CHTO  H219 5966   6.583   4.113   1.273
   15CHTO   O76 5967   6.736   3.967   1.267
   15CHTO  C122 5968   6.788   3.857   1.343
   15CHTO  H226 5969   6.824   3.896   1.439
   15CHTO  C126 5970   6.915   3.799   1.271
   15CHTO   O85 5971   7.021   3.895   1.258
   15CHTO  H206 5972   6.996   3.962   1.198
   15CHTO  C121 5973   6.679   3.744   1.367
   15CHTO  H225 5974   6.705   3.655   1.306
   15CHTO   O81 5975   6.683   3.705   1.505
   15CHTO  H202 5976   6.765   3.666   1.526
   15CHTO  C119 5977   6.534   3.790   1.329
   15CHTO  H223 5978   6.530   3.790   1.220
   15CHTO  C117 5979   6.503   3.936   1.380
   15CHTO  H221 5980   6.493   3.943   1.488
   15CHTO   N20 5981   6.371   3.983   1.328
   15CHTO  H209 5982   6.375   3.992   1.220
   15CHTO  H210 5983   6.346   4.079   1.372
   15CHTO   O80 5984   6.420   3.678   1.367
   15CHTO  C103 5985   6.345   3.589   1.251
   15CHTO  H190 5986   6.268   3.529   1.298
   15CHTO  C101 5987   6.275   3.663   1.131
   15CHTO  H188 5988   6.349   3.722   1.076
   15CHTO   O68 5989   6.168   3.757   1.187
   15CHTO  H168 5990   6.208   3.825   1.237
   15CHTO   C99 5991   6.210   3.554   1.033
   15CHTO  H186 5992   6.129   3.502   1.089
   15CHTO   N17 5993   6.145   3.612   0.910
   15CHTO  H174 5994   6.165   3.718   0.902
   15CHTO  H175 5995   6.039   3.593   0.912
   15CHTO   C97 5996   6.312   3.443   0.996
   15CHTO  H184 5997   6.381   3.482   0.920
   15CHTO   O64 5998   6.383   3.391   1.111
   15CHTO  C104 5999   6.450   3.489   1.191
   15CHTO  H191 6000   6.523   3.545   1.132
   15CHTO  C108 6001   6.531   3.419   1.302
   15CHTO   O71 6002   6.448   3.339   1.387
   15CHTO  H171 6003   6.501   3.299   1.453
   15CHTO   O62 6004   6.242   3.327   0.946
   15CHTO   C91 6005   6.296   3.260   0.830
   15CHTO  H178 6006   6.333   3.336   0.762
   15CHTO   C92 6007   6.178   3.189   0.755
   15CHTO  H179 6008   6.094   3.260   0.742
   15CHTO   O66 6009   6.222   3.159   0.622
   15CHTO  H166 6010   6.151   3.126   0.570
   15CHTO   C93 6011   6.131   3.055   0.824
   15CHTO  H180 6012   6.072   3.000   0.749
   15CHTO   N16 6013   6.037   3.076   0.937
   15CHTO  H172 6014   6.009   2.981   0.979
   15CHTO  H173 6015   5.950   3.130   0.903
   15CHTO   C94 6016   6.256   2.966   0.865
   15CHTO  H181 6017   6.264   2.954   0.973
   15CHTO   O61 6018   6.381   3.020   0.820
   15CHTO   C95 6019   6.410   3.154   0.863
   15CHTO  H182 6020   6.426   3.153   0.971
   15CHTO  C106 6021   6.547   3.196   0.800
   15CHTO   O69 6022   6.544   3.190   0.657
   15CHTO  H169 6023   6.628   3.215   0.623
   15CHTO   O63 6024   6.240   2.829   0.797
   15CHTO   C96 6025   6.274   2.705   0.886
   15CHTO  H183 6026   6.293   2.738   0.988
   15CHTO   C98 6027   6.401   2.627   0.837
   15CHTO  H185 6028   6.400   2.622   0.727
   15CHTO   O67 6029   6.516   2.706   0.871
   15CHTO  H167 6030   6.518   2.786   0.821
   15CHTO  C102 6031   6.412   2.478   0.898
   15CHTO  H189 6032   6.435   2.491   1.005
   15CHTO   N18 6033   6.523   2.396   0.843
   15CHTO  H176 6034   6.511   2.386   0.736
   15CHTO  H177 6035   6.618   2.443   0.864
   15CHTO  C105 6036   6.274   2.410   0.884
   15CHTO  H192 6037   6.247   2.406   0.778
   15CHTO   O65 6038   6.175   2.488   0.953
   15CHTO  C100 6039   6.148   2.612   0.887
   15CHTO  H187 6040   6.119   2.591   0.783
   15CHTO  C107 6041   6.025   2.680   0.954
   15CHTO   O70 6042   6.053   2.716   1.090
   15CHTO  H170 6043   5.976   2.755   1.128
   15CHTO   O57 6044   6.275   2.254   0.943
   15CHTO   C85 6045   6.294   2.219   1.081
   15CHTO  H157 6046   6.329   2.309   1.134
   15CHTO   C83 6047   6.411   2.115   1.088
   15CHTO  H155 6048   6.503   2.166   1.056
   15CHTO   O56 6049   6.388   2.010   0.992
   15CHTO  H135 6050   6.313   1.960   1.016
   15CHTO   C81 6051   6.430   2.065   1.234
   15CHTO  H153 6052   6.449   2.152   1.298
   15CHTO   N14 6053   6.551   1.980   1.252
   15CHTO  H141 6054   6.638   2.033   1.219
   15CHTO  H142 6055   6.542   1.890   1.195
   15CHTO   C79 6056   6.299   1.995   1.283
   15CHTO  H151 6057   6.314   1.968   1.388
   15CHTO   O52 6058   6.189   2.091   1.280
   15CHTO   C86 6059   6.165   2.156   1.151
   15CHTO  H158 6060   6.118   2.077   1.088
   15CHTO   C90 6061   6.055   2.262   1.175
   15CHTO   O60 6062   5.989   2.299   1.054
   15CHTO  H138 6063   5.923   2.362   1.072
   15CHTO   O50 6064   6.263   1.876   1.211
   15CHTO   C73 6065   6.165   1.774   1.190
   15CHTO  H145 6066   6.080   1.814   1.133
   15CHTO   C74 6067   6.111   1.717   1.325
   15CHTO  H146 6068   6.068   1.802   1.380
   15CHTO   O54 6069   6.002   1.627   1.297
   15CHTO  H133 6070   5.929   1.674   1.262
   15CHTO   C75 6071   6.230   1.650   1.404
   15CHTO  H147 6072   6.304   1.728   1.427
   15CHTO   N13 6073   6.190   1.593   1.535
   15CHTO  H139 6074   6.206   1.486   1.538
   15CHTO  H140 6075   6.248   1.638   1.615
   15CHTO   C76 6076   6.306   1.543   1.311
   15CHTO  H148 6077   6.241   1.456   1.299
   15CHTO   O49 6078   6.339   1.599   1.180
   15CHTO   C77 6079   6.228   1.657   1.108
   15CHTO  H149 6080   6.152   1.581   1.089
   15CHTO   C88 6081   6.279   1.701   0.971
   15CHTO   O58 6082   6.169   1.758   0.887
   15CHTO  H136 6083   6.139   1.838   0.924
   15CHTO   O51 6084   6.448   1.507   1.380
   15CHTO   C78 6085   6.539   1.409   1.299
   15CHTO  H150 6086   6.499   1.392   1.196
   15CHTO   C80 6087   6.548   1.273   1.372
   15CHTO  H152 6088   6.574   1.291   1.479
   15CHTO   O55 6089   6.417   1.213   1.367
   15CHTO  H134 6090   6.357   1.261   1.422
   15CHTO   C84 6091   6.657   1.179   1.306
   15CHTO  H156 6092   6.624   1.155   1.205
   15CHTO   N15 6093   6.673   1.048   1.379
   15CHTO  H143 6094   6.745   0.987   1.329
   15CHTO  H144 6095   6.705   1.065   1.480
   15CHTO   C87 6096   6.791   1.256   1.297
   15CHTO  H159 6097   6.829   1.278   1.397
   15CHTO   O53 6098   6.768   1.385   1.219
   15CHTO   C82 6099   6.678   1.475   1.285
   15CHTO  H154 6100   6.717   1.503   1.383
   15CHTO   C89 6101   6.667   1.604   1.201
   15CHTO   O59 6102   6.793   1.673   1.195
   15CHTO  H137 6103   6.783   1.752   1.144
   15CHTO   O45 6104   6.904   1.172   1.215
   15CHTO   C67 6105   7.034   1.232   1.222
   15CHTO  H124 6106   7.026   1.333   1.264
   15CHTO   C65 6107   7.129   1.147   1.315
   15CHTO  H122 6108   7.088   1.046   1.314
   15CHTO   O44 6109   7.115   1.202   1.447
   15CHTO  H102 6110   7.160   1.148   1.509
   15CHTO   C63 6111   7.275   1.133   1.257
   15CHTO  H120 6112   7.273   1.063   1.173
   15CHTO   N11 6113   7.375   1.067   1.347
   15CHTO  H108 6114   7.395   1.129   1.432
   15CHTO  H109 6115   7.338   0.972   1.380
   15CHTO   C61 6116   7.321   1.271   1.198
   15CHTO  H118 6117   7.418   1.254   1.150
   15CHTO   O40 6118   7.230   1.317   1.092
   15CHTO   C68 6119   7.099   1.253   1.079
   15CHTO  H125 6120   7.111   1.155   1.027
   15CHTO   C72 6121   7.014   1.343   0.986
   15CHTO   O48 6122   6.888   1.285   0.949
   15CHTO  H105 6123   6.903   1.210   0.894
   15CHTO   O38 6124   7.334   1.371   1.301
   15CHTO   C55 6125   7.361   1.507   1.262
   15CHTO  H112 6126   7.315   1.529   1.165
   15CHTO   C56 6127   7.517   1.538   1.261
   15CHTO  H113 6128   7.556   1.513   1.361
   15CHTO   O42 6129   7.582   1.450   1.168
   15CHTO  H100 6130   7.675   1.463   1.171
   15CHTO   C57 6131   7.542   1.691   1.227
   15CHTO  H114 6132   7.514   1.704   1.122
   15CHTO   N10 6133   7.685   1.730   1.238
   15CHTO  H106 6134   7.696   1.834   1.263
   15CHTO  H107 6135   7.737   1.710   1.145
   15CHTO   C58 6136   7.453   1.783   1.315
   15CHTO  H115 6137   7.493   1.783   1.419
   15CHTO   O37 6138   7.316   1.740   1.319
   15CHTO   C59 6139   7.294   1.605   1.362
   15CHTO  H116 6140   7.335   1.591   1.462
   15CHTO   C70 6141   7.142   1.581   1.373
   15CHTO   O46 6142   7.073   1.600   1.249
   15CHTO  H103 6143   6.982   1.584   1.261
   15CHTO   O39 6144   7.452   1.942   1.254
   15CHTO   C60 6145   7.378   1.962   1.133
   15CHTO  H117 6146   7.381   1.871   1.073
   15CHTO   C62 6147   7.228   1.995   1.160
   15CHTO  H119 6148   7.187   1.912   1.221
   15CHTO   O43 6149   7.219   2.116   1.237
   15CHTO  H101 6150   7.130   2.132   1.261
   15CHTO   C66 6151   7.148   2.002   1.021
   15CHTO  H123 6152   7.164   1.909   0.968
   15CHTO   N12 6153   7.001   2.013   1.041
   15CHTO  H110 6154   6.978   2.102   1.097
   15CHTO  H111 6155   6.964   1.924   1.090
   15CHTO   C69 6156   7.206   2.116   0.934
   15CHTO  H126 6157   7.188   2.215   0.982
   15CHTO   O41 6158   7.362   2.095   0.915
   15CHTO   C64 6159   7.441   2.075   1.047
   15CHTO  H121 6160   7.440   2.170   1.105
   15CHTO   C71 6161   7.588   2.043   1.012
   15CHTO   O47 6162   7.650   2.152   0.942
   15CHTO  H104 6163   7.662   2.224   1.001
   15CHTO   O34 6164   7.141   2.117   0.793
   15CHTO   C49 6165   7.102   2.183   0.663
   15CHTO   H91 6166   7.077   2.102   0.594
   15CHTO   C47 6167   7.223   2.262   0.607
   15CHTO   H89 6168   7.194   2.294   0.504
   15CHTO   O33 6169   7.335   2.172   0.598
   15CHTO   H70 6170   7.407   2.215   0.556
   15CHTO   C45 6171   7.250   2.391   0.699
   15CHTO   H87 6172   7.266   2.357   0.803
   15CHTO    N8 6173   7.370   2.467   0.656
   15CHTO   H75 6174   7.391   2.546   0.726
   15CHTO   H76 6175   7.355   2.509   0.558
   15CHTO   C43 6176   7.117   2.483   0.707
   15CHTO   H85 6177   7.138   2.560   0.780
   15CHTO   O29 6178   7.003   2.403   0.745
   15CHTO   C50 6179   6.980   2.276   0.680
   15CHTO   H92 6180   6.907   2.222   0.743
   15CHTO   C54 6181   6.903   2.292   0.545
   15CHTO   O36 6182   6.775   2.353   0.566
   15CHTO   H72 6183   6.732   2.363   0.483
   15CHTO   O27 6184   7.090   2.554   0.583
   15CHTO   C37 6185   7.000   2.631   0.503
   15CHTO   H79 6186   6.933   2.564   0.446
   15CHTO   C38 6187   6.909   2.725   0.588
   15CHTO   H80 6188   6.974   2.792   0.646
   15CHTO   O31 6189   6.834   2.642   0.678
   15CHTO   H68 6190   6.787   2.695   0.739
   15CHTO   C39 6191   6.814   2.809   0.494
   15CHTO   H81 6192   6.746   2.739   0.447
   15CHTO    N7 6193   6.729   2.908   0.569
   15CHTO   H73 6194   6.666   2.856   0.639
   15CHTO   H74 6195   6.792   2.978   0.622
   15CHTO   C40 6196   6.894   2.881   0.378
   15CHTO   H82 6197   6.946   2.970   0.416
   15CHTO   O26 6198   6.985   2.790   0.314
   15CHTO   C41 6199   7.078   2.719   0.401
   15CHTO   H83 6200   7.140   2.792   0.456
   15CHTO   C52 6201   7.173   2.634   0.313
   15CHTO   O35 6202   7.259   2.718   0.225
   15CHTO   H71 6203   7.321   2.766   0.278
   15CHTO   O28 6204   6.805   2.919   0.271
   15CHTO   C42 6205   6.817   3.041   0.189
   15CHTO   H84 6206   6.765   3.013   0.097
   15CHTO   C44 6207   6.960   3.086   0.146
   15CHTO   H86 6208   7.017   3.113   0.235
   15CHTO   O32 6209   7.024   2.973   0.083
   15CHTO   H69 6210   6.980   2.950   0.004
   15CHTO   C48 6211   6.955   3.213   0.050
   15CHTO   H90 6212   6.905   3.183   2.824
   15CHTO    N9 6213   7.092   3.259   0.009
   15CHTO   H77 6214   7.143   3.181   2.820
   15CHTO   H78 6215   7.149   3.288   0.095
   15CHTO   C51 6216   6.871   3.329   0.116
   15CHTO   H93 6217   6.925   3.364   0.204
   15CHTO   O30 6218   6.740   3.281   0.148
   15CHTO   C46 6219   6.740   3.162   0.250
   15CHTO   H88 6220   6.791   3.195   0.341
   15CHTO   C53 6221   6.593   3.128   0.282
   15CHTO   O72 6222   6.518   3.099   0.163
   15CHTO  H199 6223   6.430   3.077   0.187
   15CHTO   O22 6224   6.853   3.438   0.022
   15CHTO   C31 6225   6.796   3.571   0.053
   15CHTO   H59 6226   6.828   3.637   2.835
   15CHTO   C29 6227   6.641   3.573   0.053
   15CHTO   H57 6228   6.607   3.501   0.129
   15CHTO   O21 6229   6.595   3.524   2.792
   15CHTO   H37 6230   6.616   3.585   2.724
   15CHTO   C27 6231   6.583   3.716   0.090
   15CHTO   H55 6232   6.611   3.787   0.010
   15CHTO    N5 6233   6.435   3.716   0.103
   15CHTO   H43 6234   6.405   3.652   0.184
   15CHTO   H44 6235   6.399   3.817   0.120
   15CHTO   C25 6236   6.652   3.766   0.222
   15CHTO   H53 6237   6.627   3.697   0.304
   15CHTO   O17 6238   6.796   3.767   0.203
   15CHTO   C32 6239   6.852   3.636   0.183
   15CHTO   H60 6240   6.827   3.572   0.268
   15CHTO   C36 6241   7.006   3.651   0.177
   15CHTO   O25 6242   7.059   3.699   0.302
   15CHTO   H40 6243   7.152   3.708   0.295
   15CHTO   O15 6244   6.605   3.913   0.263
   15CHTO   C19 6245   6.622   4.040   0.331
   15CHTO   H47 6246   6.696   4.093   0.269
   15CHTO   C20 6247   6.493   4.127   0.341
   15CHTO   H48 6248   6.414   4.076   0.399
   15CHTO   O19 6249   6.442   4.145   0.207
   15CHTO   H35 6250   6.410   4.063   0.173
   15CHTO   C21 6251   6.522   4.267   0.408
   15CHTO   H49 6252   6.585   4.325   0.340
   15CHTO    N4 6253   6.399   4.348   0.430
   15CHTO   H41 6254   6.349   4.366   0.336
   15CHTO   H42 6255   6.425   4.444   0.474
   15CHTO   C22 6256   6.603   4.249   0.539
   15CHTO   H50 6257   6.538   4.212   0.619
   15CHTO   O14 6258   6.715   4.162   0.521
   15CHTO   C23 6259   6.685   4.030   0.473
   15CHTO   H51 6260   6.615   3.984   0.545
   15CHTO   C34 6261   6.813   3.947   0.478
   15CHTO   O23 6262   6.918   4.001   0.397
   15CHTO   H38 6263   6.994   3.947   0.402
   15CHTO   O16 6264   6.667   4.373   0.576
   15CHTO   C24 6265   6.656   4.420   0.730
   15CHTO   H52 6266   6.571   4.374   0.781
   15CHTO   C26 6267   6.640   4.573   0.728
   15CHTO   H54 6268   6.714   4.615   0.656
   15CHTO   O20 6269   6.509   4.605   0.678
   15CHTO   H36 6270   6.502   4.582   0.587
   15CHTO   C30 6271   6.669   4.639   0.868
   15CHTO   H58 6272   6.592   4.608   0.941
   15CHTO    N6 6273   6.663   4.787   0.860
   15CHTO   H45 6274   6.739   4.824   0.792
   15CHTO   H46 6275   6.681   4.830   0.958
   15CHTO   C33 6276   6.806   4.586   0.918
   15CHTO   H61 6277   6.881   4.608   0.841
   15CHTO   O18 6278   6.794   4.443   0.931
   15CHTO   C28 6279   6.785   4.375   0.806
   15CHTO   H56 6280   6.871   4.398   0.744
   15CHTO   C35 6281   6.783   4.223   0.836
   15CHTO   O24 6282   6.904   4.178   0.898
   15CHTO   H39 6283   6.975   4.183   0.837
   15CHTO    O9 6284   6.855   4.645   1.040
   15CHTO   C13 6285   7.018   4.693   1.039
   15CHTO   H26 6286   7.021   4.795   0.995
   15CHTO   C11 6287   7.113   4.593   0.960
   15CHTO   H24 6288   7.081   4.591   0.854
   15CHTO    O8 6289   7.100   4.459   1.011
   15CHTO    H3 6290   7.149   4.399   0.958
   15CHTO    C9 6291   7.257   4.651   0.963
   15CHTO   H22 6292   7.249   4.752   0.922
   15CHTO    N2 6293   7.351   4.581   0.872
   15CHTO   H10 6294   7.446   4.634   0.869
   15CHTO   H11 6295   7.366   4.479   0.904
   15CHTO    C7 6296   7.307   4.661   1.111
   15CHTO   H20 6297   7.400   4.720   1.103
   15CHTO    O4 6298   7.214   4.732   1.197
   15CHTO   C14 6299   7.071   4.713   1.189
   15CHTO   H27 6300   7.026   4.806   1.228
   15CHTO   C18 6301   7.032   4.598   1.287
   15CHTO   O13 6302   6.891   4.591   1.311
   15CHTO    H7 6303   6.863   4.667   1.358
   15CHTO    O2 6304   7.342   4.515   1.176
   15CHTO    C1 6305   7.393   4.510   1.310
   15CHTO   H14 6306   7.314   4.545   1.380
   15CHTO    C2 6307   7.526   4.593   1.338
   15CHTO   H15 6308   7.597   4.563   1.259
   15CHTO    O6 6309   7.500   4.734   1.327
   15CHTO    H1 6310   7.435   4.760   1.390
   15CHTO    C3 6311   7.587   4.560   1.483
   15CHTO   H16 6312   7.525   4.611   1.558
   15CHTO    N1 6313   7.727   4.614   1.500
   15CHTO    H8 6314   7.792   4.571   1.426
   15CHTO    H9 6315   7.726   4.722   1.490
   15CHTO    C4 6316   7.580   4.407   1.518
   15CHTO   H17 6317   7.660   4.354   1.465
   15CHTO    O1 6318   7.452   4.350   1.485
   15CHTO    C5 6319   7.420   4.360   1.346
   15CHTO   H18 6320   7.504   4.325   1.285
   15CHTO   C16 6321   7.299   4.267   1.322
   15CHTO   O11 6322   7.274   4.243   1.183
   15CHTO    H5 6323   7.243   4.322   1.142
   15CHTO    O3 6324   7.594   4.389   1.661
   15CHTO    C6 6325   7.633   4.256   1.707
   15CHTO   H19 6326   7.609   4.178   1.634
   15CHTO    C8 6327   7.787   4.252   1.735
   15CHTO   H21 6328   7.812   4.336   1.799
   15CHTO    O7 6329   7.853   4.267   1.608
   15CHTO    H2 6330   7.946   4.274   1.620
   15CHTO   C12 6331   7.827   4.118   1.808
   15CHTO   H25 6332   7.811   4.035   1.735
   15CHTO    N3 6333   7.974   4.116   1.843
   15CHTO   H12 6334   7.999   4.023   1.890
   15CHTO   H13 6335   7.997   4.199   1.908
   15CHTO   C15 6336   7.733   4.094   1.931
   15CHTO   H28 6337   7.750   4.169   2.009
   15CHTO   O10 6338   7.748   3.953   1.993
   15CHTO    H4 6339   7.738   3.887   1.927
   15CHTO    O5 6340   7.595   4.096   1.890
   15CHTO   C10 6341   7.554   4.223   1.836
   15CHTO   H23 6342   7.572   4.301   1.911
   15CHTO   C17 6343   7.403   4.219   1.810
   15CHTO   O12 6344   7.330   4.200   1.932
   15CHTO    H6 6345   7.238   4.195   1.913
   16CHTO  H203 6346   5.981   4.784   0.502
   16CHTO   O82 6347   5.973   4.692   0.486
   16CHTO  C123 6348   5.991   4.619   0.608
   16CHTO  H227 6349   5.913   4.650   0.680
   16CHTO   O77 6350   5.967   4.481   0.567
   16CHTO  C118 6351   5.979   4.381   0.669
   16CHTO  H222 6352   5.906   4.400   0.750
   16CHTO  C125 6353   5.946   4.242   0.604
   16CHTO   O84 6354   5.812   4.238   0.555
   16CHTO  H205 6355   5.795   4.155   0.516
   16CHTO  C114 6356   6.122   4.384   0.727
   16CHTO  H218 6357   6.192   4.367   0.645
   16CHTO  C116 6358   6.153   4.526   0.784
   16CHTO  H220 6359   6.083   4.548   0.868
   16CHTO   O79 6360   6.285   4.524   0.840
   16CHTO  H201 6361   6.305   4.606   0.880
   16CHTO  C120 6362   6.136   4.633   0.669
   16CHTO  H224 6363   6.212   4.609   0.591
   16CHTO   N21 6364   6.164   4.772   0.715
   16CHTO  H211 6365   6.137   4.784   0.819
   16CHTO  H212 6366   6.113   4.844   0.653
   16CHTO   O75 6367   6.131   4.279   0.825
   16CHTO  C112 6368   6.260   4.179   0.794
   16CHTO  H216 6369   6.336   4.235   0.736
   16CHTO   O73 6370   6.210   4.066   0.721
   16CHTO  C113 6371   6.315   3.983   0.668
   16CHTO  H217 6372   6.382   4.045   0.606
   16CHTO  C124 6373   6.247   3.881   0.576
   16CHTO   O83 6374   6.338   3.812   0.489
   16CHTO  H204 6375   6.370   3.871   0.424
   16CHTO  C109 6376   6.395   3.918   0.784
   16CHTO  H213 6377   6.328   3.847   0.833
   16CHTO  C110 6378   6.444   4.027   0.885
   16CHTO  H214 6379   6.525   4.083   0.838
   16CHTO   O78 6380   6.499   3.960   1.000
   16CHTO  H200 6381   6.578   3.915   0.977
   16CHTO  C111 6382   6.330   4.125   0.925
   16CHTO  H215 6383   6.255   4.070   0.984
   16CHTO   N19 6384   6.375   4.238   1.010
   16CHTO  H207 6385   6.417   4.201   1.102
   16CHTO  H208 6386   6.450   4.296   0.957
   16CHTO   O74 6387   6.510   3.846   0.729
   16CHTO  C115 6388   6.535   3.703   0.790
   16CHTO  H219 6389   6.488   3.693   0.889
   16CHTO   O76 6390   6.470   3.590   0.703
   16CHTO  C122 6391   6.540   3.570   0.580
   16CHTO  H226 6392   6.541   3.664   0.526
   16CHTO  C126 6393   6.457   3.471   0.492
   16CHTO   O85 6394   6.514   3.452   0.362
   16CHTO  H206 6395   6.463   3.390   0.314
   16CHTO  C121 6396   6.689   3.520   0.605
   16CHTO  H225 6397   6.695   3.411   0.582
   16CHTO   O81 6398   6.776   3.589   0.515
   16CHTO  H202 6399   6.862   3.550   0.517
   16CHTO  C119 6400   6.734   3.542   0.753
   16CHTO  H223 6401   6.678   3.469   0.812
   16CHTO  C117 6402   6.693   3.685   0.804
   16CHTO  H221 6403   6.736   3.768   0.747
   16CHTO   N20 6404   6.736   3.709   0.945
   16CHTO  H209 6405   6.783   3.621   0.988
   16CHTO  H210 6406   6.803   3.793   0.951
   16CHTO   O80 6407   6.886   3.494   0.780
   16CHTO  C103 6408   6.922   3.344   0.763
   16CHTO  H190 6409   6.832   3.285   0.744
   16CHTO  C101 6410   7.028   3.309   0.652
   16CHTO  H188 6411   7.119   3.366   0.670
   16CHTO   O68 6412   6.972   3.350   0.512
   16CHTO  H168 6413   6.895   3.299   0.492
   16CHTO   C99 6414   7.064   3.152   0.657
   16CHTO  H186 6415   6.974   3.095   0.625
   16CHTO   N17 6416   7.175   3.112   0.563
   16CHTO  H174 6417   7.222   3.199   0.520
   16CHTO  H175 6418   7.137   3.047   0.486
   16CHTO   C97 6419   7.095   3.104   0.802
   16CHTO  H184 6420   7.197   3.135   0.829
   16CHTO   O64 6421   6.997   3.153   0.896
   16CHTO  C104 6422   6.982   3.295   0.900
   16CHTO  H191 6423   7.079   3.343   0.916
   16CHTO  C108 6424   6.896   3.335   1.022
   16CHTO   O71 6425   6.767   3.273   1.022
   16CHTO  H171 6426   6.775   3.181   1.037
   16CHTO   O62 6427   7.085   2.960   0.809
   16CHTO   C91 6428   7.114   2.894   0.933
   16CHTO  H178 6429   7.130   2.969   1.011
   16CHTO   C92 6430   7.248   2.814   0.920
   16CHTO  H179 6431   7.242   2.750   0.831
   16CHTO   O66 6432   7.353   2.909   0.893
   16CHTO  H166 6433   7.434   2.865   0.875
   16CHTO   C93 6434   7.282   2.728   1.049
   16CHTO  H180 6435   7.310   2.799   1.128
   16CHTO   N16 6436   7.399   2.639   1.032
   16CHTO  H172 6437   7.380   2.568   0.953
   16CHTO  H173 6438   7.420   2.587   1.124
   16CHTO   C94 6439   7.156   2.646   1.097
   16CHTO  H181 6440   7.130   2.566   1.028
   16CHTO   O61 6441   7.042   2.733   1.105
   16CHTO   C95 6442   7.001   2.795   0.983
   16CHTO  H182 6443   6.983   2.718   0.908
   16CHTO  C106 6444   6.865   2.866   1.014
   16CHTO   O69 6445   6.804   2.922   0.897
   16CHTO  H169 6446   6.854   2.995   0.867
   16CHTO   O63 6447   7.182   2.584   1.252
   16CHTO   C96 6448   7.048   2.533   1.329
   16CHTO  H183 6449   7.081   2.467   1.409
   16CHTO   C98 6450   6.949   2.450   1.240
   16CHTO  H185 6451   6.942   2.496   1.141
   16CHTO   O67 6452   7.009   2.321   1.219
   16CHTO  H167 6453   7.016   2.274   1.299
   16CHTO  C102 6454   6.802   2.439   1.304
   16CHTO  H189 6455   6.814   2.385   1.399
   16CHTO   N18 6456   6.703   2.361   1.225
   16CHTO  H176 6457   6.689   2.407   1.128
   16CHTO  H177 6458   6.609   2.357   1.278
   16CHTO  C105 6459   6.759   2.585   1.333
   16CHTO  H192 6460   6.777   2.645   1.243
   16CHTO   O65 6461   6.842   2.637   1.438
   16CHTO  C100 6462   6.978   2.659   1.399
   16CHTO  H187 6463   6.977   2.743   1.328
   16CHTO  C107 6464   7.058   2.708   1.522
   16CHTO   O70 6465   7.058   2.612   1.628
   16CHTO  H170 6466   7.107   2.646   1.700
   16CHTO   O57 6467   6.598   2.598   1.374
   16CHTO   C85 6468   6.521   2.690   1.296
   16CHTO  H157 6469   6.540   2.663   1.190
   16CHTO   C83 6470   6.577   2.835   1.312
   16CHTO  H155 6471   6.681   2.836   1.278
   16CHTO   O56 6472   6.582   2.870   1.452
   16CHTO  H135 6473   6.495   2.875   1.487
   16CHTO   C81 6474   6.495   2.932   1.224
   16CHTO  H153 6475   6.497   2.895   1.121
   16CHTO   N14 6476   6.557   3.066   1.215
   16CHTO  H141 6477   6.555   3.114   1.311
   16CHTO  H142 6478   6.504   3.127   1.145
   16CHTO   C79 6479   6.345   2.935   1.271
   16CHTO  H151 6480   6.289   2.995   1.199
   16CHTO   O52 6481   6.290   2.799   1.262
   16CHTO   C86 6482   6.366   2.693   1.329
   16CHTO  H158 6483   6.348   2.709   1.438
   16CHTO   C90 6484   6.305   2.555   1.295
   16CHTO   O60 6485   6.165   2.552   1.324
   16CHTO  H138 6486   6.131   2.467   1.302
   16CHTO   O50 6487   6.322   2.991   1.402
   16CHTO   C73 6488   6.202   2.992   1.482
   16CHTO  H145 6489   6.174   2.888   1.506
   16CHTO   C74 6490   6.083   3.056   1.403
   16CHTO  H146 6491   6.073   3.001   1.308
   16CHTO   O54 6492   5.962   3.033   1.477
   16CHTO  H133 6493   5.888   3.066   1.429
   16CHTO   C75 6494   6.114   3.209   1.379
   16CHTO  H147 6495   6.209   3.218   1.323
   16CHTO   N13 6496   6.012   3.277   1.295
   16CHTO  H139 6497   5.964   3.357   1.350
   16CHTO  H140 6498   6.057   3.319   1.206
   16CHTO   C76 6499   6.136   3.280   1.521
   16CHTO  H148 6500   6.042   3.275   1.576
   16CHTO   O49 6501   6.241   3.212   1.596
   16CHTO   C77 6502   6.222   3.071   1.615
   16CHTO  H149 6503   6.133   3.057   1.677
   16CHTO   C88 6504   6.338   3.016   1.700
   16CHTO   O58 6505   6.471   3.057   1.648
   16CHTO  H136 6506   6.538   3.022   1.703
   16CHTO   O51 6507   6.189   3.429   1.505
   16CHTO   C78 6508   6.131   3.530   1.612
   16CHTO  H150 6509   6.080   3.476   1.695
   16CHTO   C80 6510   6.029   3.625   1.545
   16CHTO  H152 6511   6.077   3.670   1.455
   16CHTO   O55 6512   5.919   3.545   1.499
   16CHTO  H134 6513   5.873   3.507   1.572
   16CHTO   C84 6514   5.982   3.741   1.642
   16CHTO  H156 6515   5.927   3.695   1.724
   16CHTO   N15 6516   5.888   3.838   1.576
   16CHTO  H143 6517   5.858   3.914   1.646
   16CHTO  H144 6518   5.801   3.787   1.540
   16CHTO   C87 6519   6.106   3.812   1.700
   16CHTO  H159 6520   6.161   3.863   1.620
   16CHTO   O53 6521   6.195   3.705   1.768
   16CHTO   C82 6522   6.247   3.609   1.675
   16CHTO  H154 6523   6.307   3.659   1.599
   16CHTO   C89 6524   6.343   3.517   1.755
   16CHTO   O59 6525   6.426   3.438   1.670
   16CHTO  H137 6526   6.489   3.492   1.626
   16CHTO   O45 6527   6.065   3.924   1.816
   16CHTO   C67 6528   6.179   3.999   1.863
   16CHTO  H124 6529   6.269   3.950   1.827
   16CHTO   C65 6530   6.177   4.147   1.810
   16CHTO  H122 6531   6.071   4.173   1.798
   16CHTO   O44 6532   6.238   4.142   1.680
   16CHTO  H102 6533   6.230   4.226   1.638
   16CHTO   C63 6534   6.234   4.251   1.915
   16CHTO  H120 6535   6.157   4.268   1.991
   16CHTO   N11 6536   6.257   4.390   1.864
   16CHTO  H108 6537   6.281   4.455   1.946
   16CHTO  H109 6538   6.169   4.426   1.815
   16CHTO   C61 6539   6.356   4.186   1.990
   16CHTO  H118 6540   6.389   4.258   2.066
   16CHTO   O40 6541   6.316   4.064   2.061
   16CHTO   C68 6542   6.191   3.997   2.021
   16CHTO  H125 6543   6.105   4.050   2.068
   16CHTO   C72 6544   6.195   3.855   2.082
   16CHTO   O48 6545   6.073   3.783   2.065
   16CHTO  H105 6546   6.004   3.823   2.116
   16CHTO   O38 6547   6.465   4.159   1.898
   16CHTO   C55 6548   6.579   4.082   1.942
   16CHTO  H112 6549   6.548   4.008   2.017
   16CHTO   C56 6550   6.695   4.176   1.996
   16CHTO  H113 6551   6.709   4.257   1.922
   16CHTO   O42 6552   6.650   4.240   2.117
   16CHTO  H100 6553   6.714   4.302   2.147
   16CHTO   C57 6554   6.830   4.097   2.019
   16CHTO  H114 6555   6.815   4.030   2.104
   16CHTO   N10 6556   6.946   4.184   2.051
   16CHTO  H106 6557   6.936   4.280   2.003
   16CHTO  H107 6558   6.953   4.198   2.158
   16CHTO   C58 6559   6.861   4.011   1.894
   16CHTO  H115 6560   6.883   4.078   1.807
   16CHTO   O37 6561   6.749   3.927   1.863
   16CHTO   C59 6562   6.632   3.999   1.822
   16CHTO  H116 6563   6.656   4.064   1.738
   16CHTO   C70 6564   6.530   3.895   1.772
   16CHTO   O46 6565   6.492   3.799   1.872
   16CHTO  H103 6566   6.444   3.841   1.940
   16CHTO   O39 6567   6.985   3.907   1.916
   16CHTO   C60 6568   7.023   3.846   1.791
   16CHTO  H117 6569   6.944   3.860   1.717
   16CHTO   C62 6570   7.151   3.913   1.735
   16CHTO  H119 6571   7.129   4.022   1.729
   16CHTO   O43 6572   7.261   3.894   1.825
   16CHTO  H101 6573   7.338   3.937   1.793
   16CHTO   C66 6574   7.177   3.857   1.587
   16CHTO  H123 6575   7.088   3.875   1.527
   16CHTO   N12 6576   7.287   3.928   1.516
   16CHTO  H110 6577   7.367   3.861   1.490
   16CHTO  H111 6578   7.324   4.011   1.575
   16CHTO   C69 6579   7.198   3.704   1.592
   16CHTO  H126 6580   7.292   3.681   1.647
   16CHTO   O41 6581   7.076   3.634   1.667
   16CHTO   C64 6582   7.044   3.692   1.805
   16CHTO  H121 6583   7.128   3.672   1.875
   16CHTO   C71 6584   6.918   3.619   1.857
   16CHTO   O47 6585   6.892   3.648   1.995
   16CHTO  H104 6586   6.813   3.605   2.022
   16CHTO   O34 6587   7.208   3.644   1.446
   16CHTO   C49 6588   7.293   3.536   1.383
   16CHTO   H91 6589   7.349   3.585   1.304
   16CHTO   C47 6590   7.200   3.428   1.324
   16CHTO   H89 6591   7.265   3.357   1.268
   16CHTO   O33 6592   7.110   3.492   1.231
   16CHTO   H70 6593   7.058   3.428   1.188
   16CHTO   C45 6594   7.123   3.353   1.443
   16CHTO   H87 6595   7.066   3.428   1.500
   16CHTO    N8 6596   7.027   3.250   1.394
   16CHTO   H75 6597   6.956   3.296   1.326
   16CHTO   H76 6598   7.080   3.171   1.343
   16CHTO   C43 6599   7.230   3.293   1.548
   16CHTO   H85 6600   7.170   3.260   1.634
   16CHTO   O29 6601   7.327   3.393   1.587
   16CHTO   C50 6602   7.390   3.473   1.485
   16CHTO   H92 6603   7.442   3.555   1.537
   16CHTO   C54 6604   7.508   3.396   1.418
   16CHTO   O36 6605   7.583   3.479   1.329
   16CHTO   H72 6606   7.531   3.502   1.255
   16CHTO   O27 6607   7.298   3.176   1.500
   16CHTO   C37 6608   7.385   3.079   1.560
   16CHTO   H79 6609   7.489   3.115   1.560
   16CHTO   C38 6610   7.345   3.055   1.709
   16CHTO   H80 6611   7.237   3.036   1.714
   16CHTO   O31 6612   7.375   3.175   1.783
   16CHTO   H68 6613   7.317   3.244   1.756
   16CHTO   C39 6614   7.421   2.933   1.773
   16CHTO   H81 6615   7.526   2.961   1.782
   16CHTO    N7 6616   7.372   2.899   1.911
   16CHTO   H73 6617   7.428   2.815   1.950
   16CHTO   H74 6618   7.384   2.985   1.975
   16CHTO   C40 6619   7.416   2.807   1.677
   16CHTO   H82 6620   7.315   2.766   1.675
   16CHTO   O26 6621   7.461   2.844   1.546
   16CHTO   C41 6622   7.378   2.945   1.481
   16CHTO   H83 6623   7.274   2.911   1.475
   16CHTO   C52 6624   7.431   2.960   1.336
   16CHTO   O35 6625   7.344   3.046   1.249
   16CHTO   H71 6626   7.261   3.003   1.235
   16CHTO   O28 6627   7.508   2.705   1.720
   16CHTO   C42 6628   7.485   2.563   1.693
   16CHTO   H84 6629   7.576   2.515   1.728
   16CHTO   C44 6630   7.470   2.521   1.543
   16CHTO   H86 6631   7.382   2.571   1.501
   16CHTO   O32 6632   7.587   2.570   1.474
   16CHTO   H69 6633   7.586   2.664   1.469
   16CHTO   C48 6634   7.452   2.365   1.526
   16CHTO   H90 6635   7.544   2.317   1.559
   16CHTO    N9 6636   7.433   2.325   1.383
   16CHTO   H77 6637   7.421   2.217   1.376
   16CHTO   H78 6638   7.518   2.356   1.324
   16CHTO   C51 6639   7.333   2.316   1.618
   16CHTO   H93 6640   7.240   2.359   1.580
   16CHTO   O30 6641   7.359   2.354   1.754
   16CHTO   C46 6642   7.367   2.503   1.775
   16CHTO   H88 6643   7.273   2.548   1.743
   16CHTO   C53 6644   7.386   2.526   1.927
   16CHTO   O72 6645   7.266   2.493   1.997
   16CHTO  H199 6646   7.279   2.509   2.089
   16CHTO   O22 6647   7.325   2.172   1.623
   16CHTO   C31 6648   7.200   2.106   1.665
   16CHTO   H59 6649   7.142   2.182   1.720
   16CHTO   C29 6650   7.112   2.061   1.546
   16CHTO   H57 6651   7.176   2.001   1.479
   16CHTO   O21 6652   7.075   2.180   1.473
   16CHTO   H37 6653   7.036   2.157   1.391
   16CHTO   C27 6654   6.986   1.976   1.587
   16CHTO   H55 6655   6.914   2.042   1.638
   16CHTO    N5 6656   6.917   1.915   1.469
   16CHTO   H43 6657   6.909   1.808   1.479
   16CHTO   H44 6658   6.969   1.940   1.377
   16CHTO   C25 6659   7.027   1.867   1.693
   16CHTO   H53 6660   7.093   1.793   1.645
   16CHTO   O17 6661   7.099   1.929   1.803
   16CHTO   C32 6662   7.224   1.990   1.766
   16CHTO   H60 6663   7.289   1.915   1.719
   16CHTO   C36 6664   7.293   2.044   1.893
   16CHTO   O25 6665   7.317   1.943   1.991
   16CHTO   H40 6666   7.235   1.913   2.027
   16CHTO   O15 6667   6.899   1.791   1.753
   16CHTO   C19 6668   6.782   1.814   1.838
   16CHTO   H47 6669   6.760   1.714   1.878
   16CHTO   C20 6670   6.809   1.910   1.957
   16CHTO   H48 6671   6.841   2.010   1.923
   16CHTO   O19 6672   6.916   1.854   2.035
   16CHTO   H35 6673   6.997   1.858   1.987
   16CHTO   C21 6674   6.680   1.929   2.048
   16CHTO   H49 6675   6.657   1.834   2.096
   16CHTO    N4 6676   6.699   2.029   2.157
   16CHTO   H41 6677   6.778   1.996   2.223
   16CHTO   H42 6678   6.725   2.125   2.115
   16CHTO   C22 6679   6.558   1.963   1.957
   16CHTO   H50 6680   6.572   2.063   1.915
   16CHTO   O14 6681   6.544   1.867   1.852
   16CHTO   C23 6682   6.655   1.859   1.761
   16CHTO   H51 6683   6.668   1.958   1.715
   16CHTO   C34 6684   6.617   1.760   1.650
   16CHTO   O23 6685   6.507   1.808   1.571
   16CHTO   H38 6686   6.535   1.880   1.519
   16CHTO   O16 6687   6.434   1.955   2.030
   16CHTO   C24 6688   6.318   2.048   1.973
   16CHTO   H52 6689   6.341   2.087   1.874
   16CHTO   C26 6690   6.296   2.166   2.070
   16CHTO   H54 6691   6.284   2.125   2.173
   16CHTO   O20 6692   6.415   2.247   2.070
   16CHTO   H36 6693   6.429   2.285   1.986
   16CHTO   C30 6694   6.168   2.248   2.034
   16CHTO   H58 6695   6.183   2.299   1.938
   16CHTO    N6 6696   6.141   2.356   2.133
   16CHTO   H45 6697   6.225   2.424   2.137
   16CHTO   H46 6698   6.052   2.410   2.105
   16CHTO   C33 6699   6.048   2.151   2.015
   16CHTO   H61 6700   6.027   2.101   2.111
   16CHTO   O18 6701   6.081   2.051   1.918
   16CHTO   C28 6702   6.188   1.965   1.958
   16CHTO   H56 6703   6.164   1.919   2.054
   16CHTO   C35 6704   6.206   1.854   1.853
   16CHTO   O24 6705   6.094   1.766   1.846
   16CHTO   H39 6706   6.089   1.714   1.924
   16CHTO    O9 6707   5.926   2.220   1.979
   16CHTO   C13 6708   5.802   2.189   2.077
   16CHTO   H26 6709   5.834   2.211   2.181
   16CHTO   C11 6710   5.756   2.038   2.061
   16CHTO   H24 6711   5.828   1.974   2.115
   16CHTO    O8 6712   5.759   1.999   1.922
   16CHTO    H3 6713   5.740   1.907   1.914
   16CHTO    C9 6714   5.616   2.023   2.125
   16CHTO   H22 6715   5.625   2.066   2.226
   16CHTO    N2 6716   5.575   1.882   2.149
   16CHTO   H10 6717   5.562   1.831   2.054
   16CHTO   H11 6718   5.649   1.832   2.209
   16CHTO    C7 6719   5.512   2.111   2.042
   16CHTO   H20 6720   5.442   2.148   2.120
   16CHTO    O4 6721   5.573   2.225   1.977
   16CHTO   C14 6722   5.680   2.289   2.049
   16CHTO   H27 6723   5.639   2.323   2.147
   16CHTO   C18 6724   5.720   2.416   1.970
   16CHTO   O13 6725   5.819   2.493   2.039
   16CHTO    H7 6726   5.841   2.569   1.988
   16CHTO    O2 6727   5.430   2.023   1.926
   16CHTO    C1 6728   5.299   2.066   1.886
   16CHTO   H14 6729   5.255   1.985   1.825
   16CHTO    C2 6730   5.295   2.199   1.800
   16CHTO   H15 6731   5.337   2.279   1.863
   16CHTO    O6 6732   5.378   2.180   1.684
   16CHTO    H1 6733   5.384   2.260   1.635
   16CHTO    C3 6734   5.143   2.233   1.759
   16CHTO   H16 6735   5.108   2.154   1.690
   16CHTO    N1 6736   5.130   2.363   1.686
   16CHTO    H8 6737   5.167   2.444   1.747
   16CHTO    H9 6738   5.187   2.359   1.594
   16CHTO    C4 6739   5.049   2.226   1.885
   16CHTO   H17 6740   5.067   2.313   1.948
   16CHTO    O1 6741   5.070   2.105   1.960
   16CHTO    C5 6742   5.203   2.083   2.007
   16CHTO   H18 6743   5.234   2.170   2.065
   16CHTO   C16 6744   5.199   1.960   2.102
   16CHTO   O11 6745   5.159   1.840   2.035
   16CHTO    H5 6746   5.224   1.814   1.973
   16CHTO    O3 6747   4.909   2.218   1.847
   16CHTO    C6 6748   4.814   2.258   1.952
   16CHTO   H19 6749   4.863   2.279   2.047
   16CHTO    C8 6750   4.739   2.388   1.908
   16CHTO   H21 6751   4.696   2.371   1.809
   16CHTO    O7 6752   4.838   2.493   1.899
   16CHTO    H2 6753   4.799   2.571   1.865
   16CHTO   C12 6754   4.623   2.423   2.009
   16CHTO   H25 6755   4.672   2.451   2.105
   16CHTO    N3 6756   4.545   2.543   1.964
   16CHTO   H12 6757   4.467   2.565   2.036
   16CHTO   H13 6758   4.610   2.628   1.953
   16CHTO   C15 6759   4.534   2.296   2.034
   16CHTO   H28 6760   4.475   2.271   1.946
   16CHTO   O10 6761   4.437   2.313   2.156
   16CHTO    H4 6762   4.485   2.338   2.232
   16CHTO    O5 6763   4.613   2.183   2.074
   16CHTO   C10 6764   4.712   2.143   1.977
   16CHTO   H23 6765   4.661   2.116   1.884
   16CHTO   C17 6766   4.781   2.016   2.030
   16CHTO   O12 6767   4.693   1.904   2.043
   16CHTO    H6 6768   4.630   1.921   2.111
   17CHTO  H203 6769   5.657   4.404   0.729
   17CHTO   O82 6770   5.653   4.472   0.793
   17CHTO  C123 6771   5.522   4.531   0.796
   17CHTO  H227 6772   5.449   4.452   0.820
   17CHTO   O77 6773   5.532   4.625   0.908
   17CHTO  C118 6774   5.412   4.697   0.935
   17CHTO  H222 6775   5.327   4.628   0.945
   17CHTO  C125 6776   5.431   4.775   1.070
   17CHTO   O84 6777   5.447   4.684   1.180
   17CHTO  H205 6778   5.460   4.733   1.259
   17CHTO  C114 6779   5.385   4.791   0.816
   17CHTO  H218 6780   5.473   4.854   0.801
   17CHTO  C116 6781   5.365   4.706   0.686
   17CHTO  H220 6782   5.271   4.648   0.695
   17CHTO   O79 6783   5.348   4.794   0.574
   17CHTO  H201 6784   5.327   4.745   0.496
   17CHTO  C120 6785   5.487   4.607   0.663
   17CHTO  H224 6786   5.573   4.671   0.633
   17CHTO   N21 6787   5.463   4.511   0.552
   17CHTO  H211 6788   5.556   4.483   0.506
   17CHTO  H212 6789   5.397   4.555   0.478
   17CHTO   O75 6790   5.272   4.871   0.855
   17CHTO  C112 6791   5.239   5.007   0.762
   17CHTO  H216 6792   5.170   4.978   0.680
   17CHTO   O73 6793   5.363   5.058   0.710
   17CHTO  C113 6794   5.347   5.168   0.620
   17CHTO  H217 6795   5.277   5.139   0.539
   17CHTO  C124 6796   5.482   5.199   0.555
   17CHTO   O83 6797   5.526   5.092   0.470
   17CHTO  H204 6798   5.609   5.115   0.432
   17CHTO  C109 6799   5.290   5.291   0.697
   17CHTO  H213 6800   5.365   5.319   0.771
   17CHTO  C110 6801   5.156   5.251   0.768
   17CHTO  H214 6802   5.079   5.238   0.691
   17CHTO   O78 6803   5.114   5.359   0.852
   17CHTO  H200 6804   5.090   5.434   0.800
   17CHTO  C111 6805   5.171   5.119   0.850
   17CHTO  H215 6806   5.238   5.138   0.935
   17CHTO   N19 6807   5.043   5.069   0.906
   17CHTO  H207 6808   5.002   5.142   0.974
   17CHTO  H208 6809   4.972   5.050   0.827
   17CHTO   O74 6810   5.270   5.402   0.603
   17CHTO  C115 6811   5.287   5.548   0.669
   17CHTO  H219 6812   5.215   5.564   0.749
   17CHTO   O76 6813   5.427   5.565   0.737
   17CHTO  C122 6814   5.533   5.580   0.641
   17CHTO  H226 6815   5.531   5.491   0.578
   17CHTO  C126 6816   5.670   5.576   0.716
   17CHTO   O85 6817   5.685   5.679   0.814
   17CHTO  H206 6818   5.768   5.671   0.856
   17CHTO  C121 6819   5.517   5.710   0.553
   17CHTO  H225 6820   5.587   5.787   0.591
   17CHTO   O81 6821   5.553   5.678   0.418
   17CHTO  H202 6822   5.560   5.757   0.367
   17CHTO  C119 6823   5.372   5.768   0.559
   17CHTO  H223 6824   5.363   5.817   0.656
   17CHTO  C117 6825   5.263   5.654   0.553
   17CHTO  H221 6826   5.263   5.596   0.461
   17CHTO   N20 6827   5.125   5.711   0.563
   17CHTO  H209 6828   5.109   5.783   0.484
   17CHTO  H210 6829   5.052   5.632   0.556
   17CHTO   O80 6830   5.351   5.893   0.457
   17CHTO  C103 6831   5.404   6.035   0.496
   17CHTO  H190 6832   5.421   6.042   0.603
   17CHTO  C101 6833   5.534   6.083   0.420
   17CHTO  H188 6834   5.521   6.066   0.313
   17CHTO   O68 6835   5.654   5.998   0.469
   17CHTO  H168 6836   5.731   6.020   0.419
   17CHTO   C99 6837   5.560   6.239   0.444
   17CHTO  H186 6838   5.582   6.256   0.551
   17CHTO   N17 6839   5.676   6.294   0.367
   17CHTO  H174 6840   5.694   6.397   0.394
   17CHTO  H175 6841   5.658   6.285   0.260
   17CHTO   C97 6842   5.430   6.319   0.415
   17CHTO  H184 6843   5.408   6.312   0.307
   17CHTO   O64 6844   5.322   6.267   0.495
   17CHTO  C104 6845   5.286   6.133   0.460
   17CHTO  H191 6846   5.262   6.123   0.354
   17CHTO  C108 6847   5.158   6.095   0.536
   17CHTO   O71 6848   5.049   6.182   0.503
   17CHTO  H171 6849   5.064   6.267   0.538
   17CHTO   O62 6850   5.438   6.458   0.455
   17CHTO   C91 6851   5.339   6.545   0.398
   17CHTO  H178 6852   5.271   6.486   0.337
   17CHTO   C92 6853   5.409   6.645   0.300
   17CHTO  H179 6854   5.475   6.589   0.231
   17CHTO   O66 6855   5.307   6.703   0.217
   17CHTO  H166 6856   5.346   6.755   0.149
   17CHTO   C93 6857   5.486   6.762   0.374
   17CHTO  H180 6858   5.497   6.843   0.301
   17CHTO   N16 6859   5.625   6.726   0.412
   17CHTO  H172 6860   5.672   6.810   0.461
   17CHTO  H173 6861   5.681   6.698   0.324
   17CHTO   C94 6862   5.403   6.815   0.497
   17CHTO  H181 6863   5.445   6.782   0.593
   17CHTO   O61 6864   5.267   6.768   0.496
   17CHTO   C95 6865   5.254   6.625   0.507
   17CHTO  H182 6866   5.286   6.594   0.606
   17CHTO  C106 6867   5.101   6.587   0.497
   17CHTO   O69 6868   5.026   6.643   0.605
   17CHTO  H169 6869   5.022   6.736   0.596
   17CHTO   O63 6870   5.401   6.969   0.491
   17CHTO   C96 6871   5.365   7.039   0.628
   17CHTO  H183 6872   5.365   6.964   0.707
   17CHTO   C98 6873   5.226   7.109   0.627
   17CHTO  H185 6874   5.216   7.170   0.536
   17CHTO   O67 6875   5.126   7.006   0.616
   17CHTO  H167 6876   5.131   6.964   0.532
   17CHTO  C102 6877   5.201   7.199   0.757
   17CHTO  H189 6878   5.194   7.129   0.842
   17CHTO   N18 6879   5.073   7.275   0.757
   17CHTO  H176 6880   5.071   7.344   0.674
   17CHTO  H177 6881   5.062   7.330   0.850
   17CHTO  C105 6882   5.325   7.291   0.781
   17CHTO  H192 6883   5.329   7.368   0.704
   17CHTO   O65 6884   5.449   7.217   0.780
   17CHTO  C100 6885   5.477   7.144   0.660
   17CHTO  H187 6886   5.483   7.215   0.576
   17CHTO  C107 6887   5.615   7.076   0.674
   17CHTO   O70 6888   5.721   7.171   0.687
   17CHTO  H170 6889   5.714   7.216   0.770
   17CHTO   O57 6890   5.306   7.357   0.928
   17CHTO   C85 6891   5.352   7.490   0.958
   17CHTO  H157 6892   5.344   7.549   0.865
   17CHTO   C83 6893   5.505   7.487   0.994
   17CHTO  H155 6894   5.561   7.463   0.903
   17CHTO   O56 6895   5.530   7.379   1.087
   17CHTO  H135 6896   5.512   7.296   1.047
   17CHTO   C81 6897   5.550   7.626   1.047
   17CHTO  H153 6898   5.530   7.700   0.969
   17CHTO   N14 6899   5.696   7.637   1.071
   17CHTO  H141 6900   5.750   7.612   0.982
   17CHTO  H142 6901   5.725   7.569   1.149
   17CHTO   C79 6902   5.466   7.665   1.174
   17CHTO  H151 6903   5.498   7.765   1.205
   17CHTO   O52 6904   5.325   7.676   1.136
   17CHTO   C86 6905   5.269   7.554   1.076
   17CHTO  H158 6906   5.263   7.483   1.161
   17CHTO   C90 6907   5.124   7.579   1.032
   17CHTO   O60 6908   5.040   7.606   1.145
   17CHTO  H138 6909   4.952   7.620   1.116
   17CHTO   O50 6910   5.482   7.576   1.285
   17CHTO   C73 6911   5.495   7.549   1.426
   17CHTO  H145 6912   5.453   7.632   1.484
   17CHTO   C74 6913   5.645   7.532   1.464
   17CHTO  H146 6914   5.698   7.623   1.433
   17CHTO   O54 6915   5.654   7.526   1.608
   17CHTO  H133 6916   5.744   7.522   1.635
   17CHTO   C75 6917   5.704   7.403   1.392
   17CHTO  H147 6918   5.701   7.420   1.283
   17CHTO   N13 6919   5.847   7.377   1.422
   17CHTO  H139 6920   5.859   7.359   1.528
   17CHTO  H140 6921   5.881   7.290   1.368
   17CHTO   C76 6922   5.610   7.277   1.423
   17CHTO  H148 6923   5.617   7.255   1.529
   17CHTO   O49 6924   5.471   7.308   1.388
   17CHTO   C77 6925   5.417   7.419   1.461
   17CHTO  H149 6926   5.425   7.401   1.568
   17CHTO   C88 6927   5.268   7.432   1.430
   17CHTO   O58 6928   5.197   7.309   1.461
   17CHTO  H136 6929   5.106   7.319   1.443
   17CHTO   O51 6930   5.649   7.151   1.331
   17CHTO   C78 6931   5.539   7.031   1.330
   17CHTO  H150 6932   5.436   7.072   1.326
   17CHTO   C80 6933   5.553   6.942   1.455
   17CHTO  H152 6934   5.660   6.915   1.467
   17CHTO   O55 6935   5.514   7.019   1.570
   17CHTO  H134 6936   5.423   7.043   1.565
   17CHTO   C84 6937   5.467   6.808   1.443
   17CHTO  H156 6938   5.362   6.836   1.446
   17CHTO   N15 6939   5.492   6.715   1.558
   17CHTO  H143 6940   5.432   6.627   1.547
   17CHTO  H144 6941   5.467   6.763   1.650
   17CHTO   C87 6942   5.496   6.741   1.306
   17CHTO  H159 6943   5.601   6.710   1.303
   17CHTO   O53 6944   5.469   6.840   1.196
   17CHTO   C82 6945   5.560   6.951   1.200
   17CHTO  H154 6946   5.663   6.914   1.195
   17CHTO   C89 6947   5.537   7.039   1.075
   17CHTO   O59 6948   5.403   7.088   1.065
   17CHTO  H137 6949   5.343   7.017   1.050
   17CHTO   O45 6950   5.405   6.608   1.270
   17CHTO   C67 6951   5.269   6.596   1.315
   17CHTO  H124 6952   5.265   6.613   1.423
   17CHTO   C65 6953   5.169   6.695   1.245
   17CHTO  H122 6954   5.229   6.764   1.186
   17CHTO   O44 6955   5.100   6.769   1.347
   17CHTO  H102 6956   5.048   6.837   1.309
   17CHTO   C63 6957   5.076   6.620   1.142
   17CHTO  H120 6958   5.140   6.572   1.068
   17CHTO   N11 6959   4.991   6.707   1.054
   17CHTO  H108 6960   4.916   6.756   1.113
   17CHTO  H109 6961   4.943   6.648   0.979
   17CHTO   C61 6962   4.998   6.505   1.217
   17CHTO  H118 6963   4.964   6.435   1.139
   17CHTO   O40 6964   5.083   6.428   1.309
   17CHTO   C68 6965   5.227   6.445   1.294
   17CHTO  H125 6966   5.256   6.411   1.193
   17CHTO   C72 6967   5.296   6.350   1.395
   17CHTO   O48 6968   5.438   6.344   1.381
   17CHTO  H105 6969   5.460   6.304   1.299
   17CHTO   O38 6970   4.885   6.553   1.293
   17CHTO   C55 6971   4.805   6.461   1.371
   17CHTO  H112 6972   4.868   6.424   1.454
   17CHTO   C56 6973   4.743   6.341   1.286
   17CHTO  H113 6974   4.701   6.385   1.194
   17CHTO   O42 6975   4.847   6.250   1.244
   17CHTO  H100 6976   4.812   6.185   1.186
   17CHTO   C57 6977   4.631   6.261   1.365
   17CHTO  H114 6978   4.684   6.199   1.439
   17CHTO   N10 6979   4.552   6.168   1.280
   17CHTO  H106 6980   4.544   6.207   1.179
   17CHTO  H107 6981   4.600   6.071   1.276
   17CHTO   C58 6982   4.537   6.357   1.441
   17CHTO  H115 6983   4.471   6.409   1.368
   17CHTO   O37 6984   4.610   6.453   1.518
   17CHTO   C59 6985   4.690   6.542   1.438
   17CHTO  H116 6986   4.628   6.589   1.362
   17CHTO   C70 6987   4.747   6.652   1.529
   17CHTO   O46 6988   4.645   6.739   1.580
   17CHTO  H103 6989   4.589   6.692   1.638
   17CHTO   O39 6990   4.447   6.273   1.549
   17CHTO   C60 6991   4.339   6.350   1.606
   17CHTO  H117 6992   4.359   6.456   1.595
   17CHTO   C62 6993   4.204   6.318   1.536
   17CHTO  H119 6994   4.218   6.344   1.429
   17CHTO   O43 6995   4.176   6.177   1.544
   17CHTO  H101 6996   4.163   6.150   1.633
   17CHTO   C66 6997   4.088   6.410   1.600
   17CHTO  H123 6998   4.117   6.515   1.587
   17CHTO   N12 6999   3.958   6.395   1.529
   17CHTO  H110 7000   3.884   6.459   1.574
   17CHTO  H111 7001   3.970   6.417   1.424
   17CHTO   C69 7002   4.077   6.384   1.752
   17CHTO  H126 7003   4.043   6.279   1.771
   17CHTO   O41 7004   4.218   6.405   1.820
   17CHTO   C64 7005   4.329   6.322   1.759
   17CHTO  H121 7006   4.308   6.214   1.775
   17CHTO   C71 7007   4.462   6.356   1.830
   17CHTO   O47 7008   4.457   6.319   1.968
   17CHTO  H104 7009   4.539   6.337   2.009
   17CHTO   O34 7010   3.977   6.481   1.821
   17CHTO   C49 7011   3.866   6.564   1.883
   17CHTO   H91 7012   3.906   6.664   1.899
   17CHTO   C47 7013   3.826   6.499   2.017
   17CHTO   H89 7014   3.755   6.573   2.063
   17CHTO   O33 7015   3.940   6.489   2.104
   17CHTO   H70 7016   3.913   6.463   2.190
   17CHTO   C45 7017   3.756   6.354   1.996
   17CHTO   H87 7018   3.834   6.277   2.005
   17CHTO    N8 7019   3.657   6.334   2.105
   17CHTO   H75 7020   3.687   6.252   2.168
   17CHTO   H76 7021   3.559   6.315   2.064
   17CHTO   C43 7022   3.701   6.339   1.844
   17CHTO   H85 7023   3.788   6.311   1.785
   17CHTO   O29 7024   3.645   6.463   1.799
   17CHTO   C50 7025   3.739   6.572   1.792
   17CHTO   H92 7026   3.773   6.577   1.687
   17CHTO   C54 7027   3.662   6.705   1.809
   17CHTO   O36 7028   3.587   6.712   1.931
   17CHTO   H72 7029   3.541   6.794   1.935
   17CHTO   O27 7030   3.609   6.230   1.826
   17CHTO   C37 7031   3.588   6.088   1.833
   17CHTO   H79 7032   3.634   6.048   1.925
   17CHTO   C38 7033   3.435   6.056   1.839
   17CHTO   H80 7034   3.385   6.110   1.757
   17CHTO   O31 7035   3.386   6.107   1.964
   17CHTO   H68 7036   3.293   6.098   1.968
   17CHTO   C39 7037   3.407   5.901   1.824
   17CHTO   H81 7038   3.447   5.852   1.913
   17CHTO    N7 7039   3.260   5.868   1.818
   17CHTO   H73 7040   3.234   5.820   1.725
   17CHTO   H74 7041   3.232   5.805   1.901
   17CHTO   C40 7042   3.485   5.843   1.700
   17CHTO   H82 7043   3.443   5.886   1.609
   17CHTO   O26 7044   3.624   5.876   1.715
   17CHTO   C41 7045   3.653   6.018   1.710
   17CHTO   H83 7046   3.612   6.062   1.617
   17CHTO   C52 7047   3.807   6.034   1.706
   17CHTO   O35 7048   3.866   5.975   1.584
   17CHTO   H71 7049   3.959   5.987   1.585
   17CHTO   O28 7050   3.474   5.699   1.688
   17CHTO   C42 7051   3.569   5.614   1.614
   17CHTO   H84 7052   3.514   5.520   1.603
   17CHTO   C44 7053   3.699   5.578   1.694
   17CHTO   H86 7054   3.745   5.670   1.729
   17CHTO   O32 7055   3.656   5.504   1.810
   17CHTO   H69 7056   3.730   5.486   1.866
   17CHTO   C48 7057   3.806   5.500   1.609
   17CHTO   H90 7058   3.768   5.400   1.587
   17CHTO    N9 7059   3.934   5.479   1.685
   17CHTO   H77 7060   3.976   5.574   1.714
   17CHTO   H78 7061   3.915   5.418   1.773
   17CHTO   C51 7062   3.828   5.576   1.473
   17CHTO   H93 7063   3.862   5.677   1.496
   17CHTO   O30 7064   3.703   5.576   1.404
   17CHTO   C46 7065   3.600   5.665   1.469
   17CHTO   H88 7066   3.639   5.767   1.474
   17CHTO   C53 7067   3.476   5.659   1.376
   17CHTO   O72 7068   3.371   5.748   1.415
   17CHTO  H199 7069   3.299   5.739   1.356
   17CHTO   O22 7070   3.922   5.509   1.386
   17CHTO   C31 7071   3.977   5.571   1.263
   17CHTO   H59 7072   4.062   5.506   1.232
   17CHTO   C29 7073   3.877   5.573   1.145
   17CHTO   H57 7074   3.789   5.632   1.176
   17CHTO   O21 7075   3.833   5.439   1.122
   17CHTO   H37 7076   3.781   5.408   1.194
   17CHTO   C27 7077   3.940   5.639   1.015
   17CHTO   H55 7078   4.020   5.573   0.979
   17CHTO    N5 7079   3.840   5.656   0.907
   17CHTO   H43 7080   3.763   5.725   0.937
   17CHTO   H44 7081   3.888   5.692   0.817
   17CHTO   C25 7082   4.006   5.776   1.053
   17CHTO   H53 7083   3.928   5.847   1.084
   17CHTO   O17 7084   4.099   5.760   1.163
   17CHTO   C32 7085   4.038   5.714   1.285
   17CHTO   H60 7086   3.958   5.782   1.313
   17CHTO   C36 7087   4.146   5.714   1.395
   17CHTO   O25 7088   4.191   5.847   1.423
   17CHTO   H40 7089   4.256   5.845   1.490
   17CHTO   O15 7090   4.087   5.839   0.930
   17CHTO   C19 7091   4.121   5.979   0.911
   17CHTO   H47 7092   4.158   5.983   0.807
   17CHTO   C20 7093   3.999   6.075   0.924
   17CHTO   H48 7094   3.953   6.069   1.024
   17CHTO   O19 7095   3.901   6.031   0.829
   17CHTO   H35 7096   3.932   6.042   0.741
   17CHTO   C21 7097   4.041   6.226   0.900
   17CHTO   H49 7098   4.074   6.237   0.797
   17CHTO    N4 7099   3.928   6.321   0.919
   17CHTO   H41 7100   3.961   6.422   0.901
   17CHTO   H42 7101   3.848   6.298   0.851
   17CHTO   C22 7102   4.162   6.259   0.991
   17CHTO   H50 7103   4.130   6.253   1.095
   17CHTO   O14 7104   4.269   6.166   0.968
   17CHTO   C23 7105   4.239   6.030   1.000
   17CHTO   H51 7106   4.214   6.025   1.107
   17CHTO   C34 7107   4.369   5.951   0.978
   17CHTO   O23 7108   4.359   5.815   1.023
   17CHTO   H38 7109   4.300   5.768   0.967
   17CHTO   O16 7110   4.218   6.389   0.962
   17CHTO   C24 7111   4.300   6.455   1.084
   17CHTO   H52 7112   4.341   6.380   1.152
   17CHTO   C26 7113   4.207   6.551   1.162
   17CHTO   H54 7114   4.156   6.618   1.089
   17CHTO   O20 7115   4.106   6.471   1.226
   17CHTO   H36 7116   4.043   6.527   1.267
   17CHTO   C30 7117   4.287   6.639   1.263
   17CHTO   H58 7118   4.331   6.577   1.342
   17CHTO    N6 7119   4.198   6.737   1.332
   17CHTO   H45 7120   4.154   6.805   1.261
   17CHTO   H46 7121   4.255   6.794   1.404
   17CHTO   C33 7122   4.405   6.707   1.187
   17CHTO   H61 7123   4.364   6.769   1.106
   17CHTO   O18 7124   4.487   6.604   1.129
   17CHTO   C28 7125   4.421   6.532   1.024
   17CHTO   H56 7126   4.385   6.600   0.947
   17CHTO   C35 7127   4.521   6.433   0.959
   17CHTO   O24 7128   4.631   6.500   0.895
   17CHTO   H39 7129   4.600   6.546   0.820
   17CHTO    O9 7130   4.483   6.797   1.268
   17CHTO   C13 7131   4.578   6.897   1.179
   17CHTO   H26 7132   4.622   6.838   1.096
   17CHTO   C11 7133   4.690   6.960   1.271
   17CHTO   H24 7134   4.755   6.878   1.304
   17CHTO    O8 7135   4.632   7.018   1.390
   17CHTO    H3 7136   4.699   7.048   1.448
   17CHTO    C9 7137   4.773   7.058   1.185
   17CHTO   H22 7138   4.808   6.999   1.098
   17CHTO    N2 7139   4.898   7.105   1.251
   17CHTO   H10 7140   4.903   7.213   1.251
   17CHTO   H11 7141   4.985   7.063   1.202
   17CHTO    C7 7142   4.680   7.174   1.131
   17CHTO   H20 7143   4.746   7.230   1.062
   17CHTO    O4 7144   4.568   7.122   1.056
   17CHTO   C14 7145   4.491   7.011   1.108
   17CHTO   H27 7146   4.444   6.964   1.019
   17CHTO   C18 7147   4.376   7.065   1.197
   17CHTO   O13 7148   4.283   7.143   1.120
   17CHTO    H7 7149   4.236   7.088   1.061
   17CHTO    O2 7150   4.625   7.273   1.252
   17CHTO    C1 7151   4.568   7.401   1.214
   17CHTO   H14 7152   4.482   7.383   1.146
   17CHTO    C2 7153   4.670   7.502   1.144
   17CHTO   H15 7154   4.763   7.495   1.202
   17CHTO    O6 7155   4.694   7.459   1.008
   17CHTO    H1 7156   4.740   7.377   1.008
   17CHTO    C3 7157   4.617   7.655   1.143
   17CHTO   H16 7158   4.536   7.663   1.068
   17CHTO    N1 7159   4.724   7.751   1.101
   17CHTO    H8 7160   4.760   7.726   1.002
   17CHTO    H9 7161   4.686   7.852   1.101
   17CHTO    C4 7162   4.552   7.693   1.281
   17CHTO   H17 7163   4.631   7.700   1.357
   17CHTO    O1 7164   4.454   7.595   1.317
   17CHTO    C5 7165   4.510   7.466   1.343
   17CHTO   H18 7166   4.592   7.477   1.414
   17CHTO   C16 7167   4.399   7.380   1.411
   17CHTO   O11 7168   4.281   7.372   1.331
   17CHTO    H5 7169   4.217   7.319   1.375
   17CHTO    O3 7170   4.479   7.818   1.274
   17CHTO    C6 7171   4.456   7.897   1.397
   17CHTO   H19 7172   4.372   7.966   1.383
   17CHTO    C8 7173   4.417   7.812   1.524
   17CHTO   H21 7174   4.493   7.735   1.538
   17CHTO    O7 7175   4.290   7.752   1.494
   17CHTO    H2 7176   4.266   7.692   1.563
   17CHTO   C12 7177   4.412   7.902   1.654
   17CHTO   H25 7178   4.328   7.973   1.640
   17CHTO    N3 7179   4.381   7.819   1.775
   17CHTO   H12 7180   4.460   7.825   1.848
   17CHTO   H13 7181   4.287   7.851   1.819
   17CHTO   C15 7182   4.546   7.984   1.665
   17CHTO   H28 7183   4.631   7.919   1.681
   17CHTO   O10 7184   4.543   8.092   1.777
   17CHTO    H4 7185   4.468   8.147   1.768
   17CHTO    O5 7186   4.565   8.063   1.547
   17CHTO   C10 7187   4.581   7.986   1.427
   17CHTO   H23 7188   4.669   7.922   1.439
   17CHTO   C17 7189   4.612   8.083   1.312
   17CHTO   O12 7190   4.507   8.178   1.290
   17CHTO    H6 7191   4.529   8.234   1.219
   18CHTO  H203 7192   5.901   7.939   2.181
   18CHTO   O82 7193   5.954   7.993   2.126
   18CHTO  C123 7194   5.899   7.996   1.994
   18CHTO  H227 7195   5.797   8.037   1.999
   18CHTO   O77 7196   5.987   8.091   1.926
   18CHTO  C118 7197   5.951   8.118   1.791
   18CHTO  H222 7198   5.845   8.148   1.785
   18CHTO  C125 7199   6.041   8.240   1.746
   18CHTO   O84 7200   5.992   8.302   1.626
   18CHTO  H205 7201   6.002   8.244   1.553
   18CHTO  C114 7202   5.973   7.989   1.710
   18CHTO  H218 7203   6.076   7.956   1.724
   18CHTO  C116 7204   5.881   7.875   1.766
   18CHTO  H220 7205   5.775   7.901   1.745
   18CHTO   O79 7206   5.909   7.754   1.694
   18CHTO  H201 7207   5.882   7.762   1.604
   18CHTO  C120 7208   5.904   7.856   1.922
   18CHTO  H224 7209   6.004   7.811   1.933
   18CHTO   N21 7210   5.807   7.759   1.980
   18CHTO  H211 7211   5.846   7.659   1.974
   18CHTO  H212 7212   5.785   7.784   2.083
   18CHTO   O75 7213   5.947   8.018   1.572
   18CHTO  C112 7214   6.078   7.994   1.474
   18CHTO  H216 7215   6.147   7.923   1.523
   18CHTO   O73 7216   6.140   8.122   1.453
   18CHTO  C113 7217   6.256   8.121   1.370
   18CHTO  H217 7218   6.333   8.054   1.415
   18CHTO  C124 7219   6.314   8.263   1.368
   18CHTO   O83 7220   6.350   8.311   1.498
   18CHTO  H204 7221   6.424   8.263   1.531
   18CHTO  C109 7222   6.219   8.074   1.228
   18CHTO  H213 7223   6.148   8.148   1.187
   18CHTO  C110 7224   6.151   7.934   1.234
   18CHTO  H214 7225   6.226   7.860   1.263
   18CHTO   O78 7226   6.107   7.900   1.101
   18CHTO  H200 7227   6.074   7.812   1.099
   18CHTO  C111 7228   6.033   7.934   1.335
   18CHTO  H215 7229   5.956   8.001   1.297
   18CHTO   N19 7230   5.969   7.801   1.354
   18CHTO  H207 7231   5.929   7.766   1.260
   18CHTO  H208 7232   6.042   7.730   1.390
   18CHTO   O74 7233   6.338   8.071   1.143
   18CHTO  C115 7234   6.310   8.130   0.995
   18CHTO  H219 7235   6.218   8.089   0.951
   18CHTO   O76 7236   6.288   8.286   0.998
   18CHTO  C122 7237   6.266   8.350   0.872
   18CHTO  H226 7238   6.274   8.458   0.889
   18CHTO  C126 7239   6.118   8.326   0.825
   18CHTO   O85 7240   6.084   8.396   0.704
   18CHTO  H206 7241   6.084   8.488   0.720
   18CHTO  C121 7242   6.374   8.309   0.763
   18CHTO  H225 7243   6.337   8.344   0.664
   18CHTO   O81 7244   6.496   8.379   0.788
   18CHTO  H202 7245   6.533   8.352   0.871
   18CHTO  C119 7246   6.397   8.155   0.756
   18CHTO  H223 7247   6.302   8.112   0.723
   18CHTO  C117 7248   6.428   8.095   0.897
   18CHTO  H221 7249   6.518   8.131   0.947
   18CHTO   N20 7250   6.446   7.946   0.889
   18CHTO  H209 7251   6.528   7.923   0.822
   18CHTO  H210 7252   6.466   7.906   0.987
   18CHTO   O80 7253   6.497   8.112   0.630
   18CHTO  C103 7254   6.436   8.036   0.498
   18CHTO  H190 7255   6.514   8.027   0.422
   18CHTO  C101 7256   6.375   7.893   0.524
   18CHTO  H188 7257   6.311   7.897   0.612
   18CHTO   O68 7258   6.491   7.794   0.553
   18CHTO  H168 7259   6.546   7.785   0.478
   18CHTO   C99 7260   6.285   7.846   0.400
   18CHTO  H186 7261   6.347   7.843   0.308
   18CHTO   N17 7262   6.223   7.710   0.416
   18CHTO  H174 7263   6.156   7.709   0.500
   18CHTO  H175 7264   6.171   7.682   0.325
   18CHTO   C97 7265   6.179   7.958   0.376
   18CHTO  H184 7266   6.127   7.974   0.471
   18CHTO   O64 7267   6.251   8.075   0.334
   18CHTO  C104 7268   6.327   8.135   0.440
   18CHTO  H191 7269   6.260   8.167   0.520
   18CHTO  C108 7270   6.394   8.263   0.387
   18CHTO   O71 7271   6.297   8.362   0.351
   18CHTO  H171 7272   6.250   8.334   0.274
   18CHTO   O62 7273   6.085   7.934   0.269
   18CHTO   C91 7274   5.945   7.957   0.302
   18CHTO  H178 7275   5.931   7.941   0.409
   18CHTO   C92 7276   5.859   7.848   0.231
   18CHTO  H179 7277   5.883   7.848   0.123
   18CHTO   O66 7278   5.899   7.719   0.281
   18CHTO  H166 7279   5.987   7.700   0.255
   18CHTO   C93 7280   5.703   7.869   0.253
   18CHTO  H180 7281   5.682   7.845   0.358
   18CHTO   N16 7282   5.620   7.777   0.171
   18CHTO  H172 7283   5.515   7.794   0.192
   18CHTO  H173 7284   5.645   7.674   0.194
   18CHTO   C94 7285   5.662   8.018   0.227
   18CHTO  H181 7286   5.670   8.045   0.121
   18CHTO   O61 7287   5.748   8.107   0.300
   18CHTO   C95 7288   5.886   8.099   0.264
   18CHTO  H182 7289   5.896   8.115   0.156
   18CHTO  C106 7290   5.960   8.219   0.333
   18CHTO   O69 7291   5.953   8.212   0.476
   18CHTO  H169 7292   6.005   8.140   0.507
   18CHTO   O63 7293   5.511   8.046   0.281
   18CHTO   C96 7294   5.442   8.167   0.208
   18CHTO  H183 7295   5.492   8.183   0.112
   18CHTO   C98 7296   5.442   8.302   0.284
   18CHTO  H185 7297   5.397   8.289   0.384
   18CHTO   O67 7298   5.579   8.340   0.308
   18CHTO  H167 7299   5.582   8.418   0.360
   18CHTO  C102 7300   5.365   8.418   0.202
   18CHTO  H189 7301   5.431   8.443   0.118
   18CHTO   N18 7302   5.344   8.544   0.277
   18CHTO  H176 7303   5.287   8.525   0.367
   18CHTO  H177 7304   5.440   8.588   0.303
   18CHTO  C105 7305   5.231   8.365   0.141
   18CHTO  H192 7306   5.153   8.369   0.216
   18CHTO   O65 7307   5.237   8.231   0.089
   18CHTO  C100 7308   5.292   8.132   0.177
   18CHTO  H187 7309   5.234   8.133   0.271
   18CHTO  C107 7310   5.273   7.992   0.114
   18CHTO   O70 7311   5.341   7.979   2.854
   18CHTO  H170 7312   5.434   7.979   0.002
   18CHTO   O57 7313   5.200   8.473   0.015
   18CHTO   C85 7314   5.079   8.480   2.803
   18CHTO  H157 7315   5.106   8.549   2.720
   18CHTO   C83 7316   4.967   8.554   0.015
   18CHTO  H155 7317   5.001   8.656   0.035
   18CHTO   O56 7318   4.946   8.494   0.145
   18CHTO  H135 7319   5.023   8.501   0.197
   18CHTO   C81 7320   4.840   8.560   2.792
   18CHTO  H153 7321   4.867   8.605   2.697
   18CHTO   N14 7322   4.735   8.651   2.847
   18CHTO  H141 7323   4.641   8.600   2.857
   18CHTO  H142 7324   4.722   8.736   2.783
   18CHTO   C79 7325   4.789   8.413   2.764
   18CHTO  H151 7326   4.702   8.421   2.698
   18CHTO   O52 7327   4.892   8.340   2.689
   18CHTO   C86 7328   5.026   8.340   2.748
   18CHTO  H158 7329   5.020   8.265   2.829
   18CHTO   C90 7330   5.127   8.284   2.645
   18CHTO   O60 7331   5.103   8.147   2.615
   18CHTO  H138 7332   5.021   8.138   2.568
   18CHTO   O50 7333   4.751   8.340   0.015
   18CHTO   C73 7334   4.674   8.237   0.080
   18CHTO  H145 7335   4.663   8.150   0.013
   18CHTO   C74 7336   4.531   8.289   0.118
   18CHTO  H146 7337   4.483   8.322   0.024
   18CHTO   O54 7338   4.453   8.179   0.167
   18CHTO  H133 7339   4.437   8.117   0.098
   18CHTO   C75 7340   4.545   8.408   0.222
   18CHTO  H147 7341   4.598   8.491   0.173
   18CHTO   N13 7342   4.416   8.466   0.267
   18CHTO  H139 7343   4.332   8.416   0.221
   18CHTO  H140 7344   4.411   8.571   0.243
   18CHTO   C76 7345   4.636   8.362   0.345
   18CHTO  H148 7346   4.580   8.290   0.405
   18CHTO   O49 7347   4.762   8.302   0.301
   18CHTO   C77 7348   4.747   8.192   0.210
   18CHTO  H149 7349   4.689   8.112   0.257
   18CHTO   C88 7350   4.884   8.131   0.179
   18CHTO   O58 7351   4.951   8.084   0.302
   18CHTO  H136 7352   4.974   8.157   0.356
   18CHTO   O51 7353   4.683   8.488   0.428
   18CHTO   C78 7354   4.723   8.451   0.574
   18CHTO  H150 7355   4.741   8.341   0.585
   18CHTO   C80 7356   4.610   8.492   0.670
   18CHTO  H152 7357   4.586   8.600   0.653
   18CHTO   O55 7358   4.494   8.414   0.636
   18CHTO  H134 7359   4.459   8.442   0.553
   18CHTO   C84 7360   4.650   8.471   0.822
   18CHTO  H156 7361   4.660   8.364   0.838
   18CHTO   N15 7362   4.544   8.520   0.917
   18CHTO  H143 7363   4.509   8.440   0.978
   18CHTO  H144 7364   4.461   8.563   0.865
   18CHTO   C87 7365   4.787   8.538   0.851
   18CHTO  H159 7366   4.778   8.646   0.847
   18CHTO   O53 7367   4.892   8.488   0.745
   18CHTO   C82 7368   4.854   8.523   0.611
   18CHTO  H154 7369   4.841   8.631   0.604
   18CHTO   C89 7370   4.970   8.485   0.514
   18CHTO   O59 7371   5.000   8.345   0.516
   18CHTO  H137 7372   5.070   8.328   0.456
   18CHTO   O45 7373   4.842   8.495   1.000
   18CHTO   C67 7374   4.977   8.533   1.029
   18CHTO  H124 7375   5.039   8.514   0.941
   18CHTO   C65 7376   4.988   8.685   1.066
   18CHTO  H122 7377   4.890   8.714   1.107
   18CHTO   O44 7378   5.009   8.754   0.942
   18CHTO  H102 7379   5.005   8.847   0.956
   18CHTO   C63 7380   5.090   8.713   1.184
   18CHTO  H120 7381   5.044   8.683   1.278
   18CHTO   N11 7382   5.123   8.857   1.211
   18CHTO  H108 7383   5.080   8.889   1.304
   18CHTO  H109 7384   5.088   8.920   1.132
   18CHTO   C61 7385   5.216   8.621   1.164
   18CHTO  H118 7386   5.281   8.638   1.251
   18CHTO   O40 7387   5.180   8.479   1.165
   18CHTO   C68 7388   5.040   8.443   1.144
   18CHTO  H125 7389   4.984   8.457   1.239
   18CHTO   C72 7390   5.035   8.292   1.111
   18CHTO   O48 7391   4.902   8.239   1.110
   18CHTO  H105 7392   4.905   8.147   1.089
   18CHTO   O38 7393   5.286   8.652   1.042
   18CHTO   C55 7394   5.420   8.600   1.032
   18CHTO  H112 7395   5.435   8.517   1.104
   18CHTO   C56 7396   5.527   8.714   1.051
   18CHTO  H113 7397   5.512   8.787   0.970
   18CHTO   O42 7398   5.504   8.785   1.174
   18CHTO  H100 7399   5.513   8.728   1.248
   18CHTO   C57 7400   5.673   8.653   1.046
   18CHTO  H114 7401   5.684   8.598   1.139
   18CHTO   N10 7402   5.782   8.753   1.045
   18CHTO  H106 7403   5.751   8.844   0.996
   18CHTO  H107 7404   5.812   8.777   1.147
   18CHTO   C58 7405   5.691   8.554   0.927
   18CHTO  H115 7406   5.724   8.610   0.836
   18CHTO   O37 7407   5.575   8.477   0.892
   18CHTO   C59 7408   5.445   8.539   0.892
   18CHTO  H116 7409   5.442   8.615   0.815
   18CHTO   C70 7410   5.341   8.432   0.855
   18CHTO   O46 7411   5.341   8.319   0.942
   18CHTO  H103 7412   5.277   8.257   0.914
   18CHTO   O39 7413   5.809   8.437   0.969
   18CHTO   C60 7414   5.763   8.343   1.068
   18CHTO  H117 7415   5.688   8.390   1.131
   18CHTO   C62 7416   5.696   8.217   1.003
   18CHTO  H119 7417   5.621   8.253   0.930
   18CHTO   O43 7418   5.792   8.141   0.928
   18CHTO  H101 7419   5.859   8.107   0.985
   18CHTO   C66 7420   5.621   8.135   1.118
   18CHTO  H123 7421   5.555   8.204   1.171
   18CHTO   N12 7422   5.534   8.027   1.065
   18CHTO  H110 7423   5.538   8.023   0.957
   18CHTO  H111 7424   5.433   8.040   1.100
   18CHTO   C69 7425   5.726   8.084   1.219
   18CHTO  H126 7426   5.789   8.007   1.169
   18CHTO   O41 7427   5.819   8.206   1.271
   18CHTO   C64 7428   5.878   8.296   1.163
   18CHTO  H121 7429   5.954   8.240   1.104
   18CHTO   C71 7430   5.948   8.414   1.235
   18CHTO   O47 7431   6.031   8.489   1.146
   18CHTO  H104 7432   5.978   8.536   1.084
   18CHTO   O34 7433   5.658   8.017   1.344
   18CHTO   C49 7434   5.614   8.073   1.482
   18CHTO   H91 7435   5.703   8.077   1.545
   18CHTO   C47 7436   5.511   7.976   1.543
   18CHTO   H89 7437   5.487   8.013   1.645
   18CHTO   O33 7438   5.573   7.846   1.555
   18CHTO   H70 7439   5.640   7.848   1.620
   18CHTO   C45 7440   5.380   7.978   1.450
   18CHTO   H87 7441   5.411   7.958   1.346
   18CHTO    N8 7442   5.280   7.875   1.488
   18CHTO   H75 7443   5.240   7.897   1.587
   18CHTO   H76 7444   5.199   7.874   1.416
   18CHTO   C43 7445   5.319   8.127   1.447
   18CHTO   H85 7446   5.240   8.124   1.372
   18CHTO   O29 7447   5.421   8.224   1.413
   18CHTO   C50 7448   5.552   8.216   1.473
   18CHTO   H92 7449   5.618   8.277   1.411
   18CHTO   C54 7450   5.554   8.290   1.609
   18CHTO   O36 7451   5.686   8.307   1.661
   18CHTO   H72 7452   5.734   8.367   1.607
   18CHTO   O27 7453   5.254   8.164   1.571
   18CHTO   C37 7454   5.152   8.256   1.615
   18CHTO   H79 7455   5.106   8.218   1.708
   18CHTO   C38 7456   5.214   8.396   1.649
   18CHTO   H80 7457   5.282   8.424   1.566
   18CHTO   O31 7458   5.292   8.381   1.769
   18CHTO   H68 7459   5.367   8.328   1.753
   18CHTO   C39 7460   5.105   8.509   1.667
   18CHTO   H81 7461   5.049   8.486   1.757
   18CHTO    N7 7462   5.167   8.645   1.686
   18CHTO   H73 7463   5.136   8.687   1.781
   18CHTO   H74 7464   5.140   8.712   1.605
   18CHTO   C40 7465   5.004   8.505   1.546
   18CHTO   H82 7466   5.060   8.528   1.455
   18CHTO   O26 7467   4.945   8.374   1.540
   18CHTO   C41 7468   5.041   8.269   1.506
   18CHTO   H83 7469   5.088   8.294   1.410
   18CHTO   C52 7470   4.961   8.138   1.486
   18CHTO   O35 7471   4.878   8.103   1.602
   18CHTO   H71 7472   4.831   8.024   1.584
   18CHTO   O28 7473   4.902   8.605   1.555
   18CHTO   C42 7474   4.760   8.588   1.586
   18CHTO   H84 7475   4.724   8.691   1.592
   18CHTO   C44 7476   4.721   8.523   1.723
   18CHTO   H86 7477   4.752   8.418   1.721
   18CHTO   O32 7478   4.794   8.592   1.825
   18CHTO   H69 7479   4.779   8.551   1.909
   18CHTO   C48 7480   4.564   8.528   1.746
   18CHTO   H90 7481   4.537   8.633   1.764
   18CHTO    N9 7482   4.522   8.455   1.870
   18CHTO   H77 7483   4.569   8.499   1.957
   18CHTO   H78 7484   4.549   8.351   1.863
   18CHTO   C51 7485   4.484   8.479   1.618
   18CHTO   H93 7486   4.494   8.371   1.612
   18CHTO   O30 7487   4.535   8.544   1.501
   18CHTO   C46 7488   4.678   8.518   1.475
   18CHTO   H88 7489   4.695   8.410   1.478
   18CHTO   C53 7490   4.711   8.571   1.334
   18CHTO   O72 7491   4.644   8.493   1.234
   18CHTO  H199 7492   4.551   8.509   1.238
   18CHTO   O22 7493   4.345   8.516   1.627
   18CHTO   C31 7494   4.241   8.498   1.522
   18CHTO   H59 7495   4.144   8.517   1.572
   18CHTO   C29 7496   4.252   8.599   1.404
   18CHTO   H57 7497   4.352   8.589   1.360
   18CHTO   O21 7498   4.244   8.731   1.459
   18CHTO   H37 7499   4.264   8.795   1.394
   18CHTO   C27 7500   4.145   8.574   1.290
   18CHTO   H55 7501   4.045   8.596   1.330
   18CHTO    N5 7502   4.168   8.658   1.170
   18CHTO   H43 7503   4.089   8.641   1.097
   18CHTO   H44 7504   4.169   8.763   1.198
   18CHTO   C25 7505   4.147   8.422   1.251
   18CHTO   H53 7506   4.245   8.398   1.208
   18CHTO   O17 7507   4.127   8.342   1.370
   18CHTO   C32 7508   4.232   8.351   1.467
   18CHTO   H60 7509   4.328   8.324   1.422
   18CHTO   C36 7510   4.195   8.247   1.575
   18CHTO   O25 7511   4.295   8.232   1.675
   18CHTO   H40 7512   4.372   8.192   1.638
   18CHTO   O15 7513   4.029   8.382   1.147
   18CHTO   C19 7514   4.044   8.287   1.037
   18CHTO   H47 7515   3.942   8.248   1.022
   18CHTO   C20 7516   4.091   8.353   0.903
   18CHTO   H48 7517   4.183   8.413   0.918
   18CHTO   O19 7518   3.986   8.443   0.863
   18CHTO   H35 7519   3.982   8.517   0.920
   18CHTO   C21 7520   4.123   8.246   0.790
   18CHTO   H49 7521   4.030   8.195   0.764
   18CHTO    N4 7522   4.175   8.308   0.666
   18CHTO   H41 7523   4.266   8.362   0.686
   18CHTO   H42 7524   4.102   8.376   0.625
   18CHTO   C22 7525   4.219   8.141   0.851
   18CHTO   H50 7526   4.308   8.194   0.887
   18CHTO   O14 7527   4.153   8.077   0.961
   18CHTO   C23 7528   4.132   8.163   1.074
   18CHTO   H51 7529   4.232   8.193   1.110
   18CHTO   C34 7530   4.066   8.080   1.185
   18CHTO   O23 7531   4.156   7.983   1.238
   18CHTO   H38 7532   4.113   7.933   1.305
   18CHTO   O16 7533   4.256   8.031   0.766
   18CHTO   C24 7534   4.408   8.042   0.699
   18CHTO   H52 7535   4.441   8.145   0.689
   18CHTO   C26 7536   4.402   7.975   0.560
   18CHTO   H54 7537   4.359   7.873   0.572
   18CHTO   O20 7538   4.312   8.050   0.477
   18CHTO   H36 7539   4.344   8.137   0.463
   18CHTO   C30 7540   4.543   7.960   0.494
   18CHTO   H58 7541   4.580   8.060   0.464
   18CHTO    N6 7542   4.538   7.880   0.368
   18CHTO   H45 7543   4.598   7.790   0.377
   18CHTO   H46 7544   4.437   7.853   0.342
   18CHTO   C33 7545   4.647   7.905   0.596
   18CHTO   H61 7546   4.624   7.800   0.619
   18CHTO   O18 7547   4.640   7.981   0.718
   18CHTO   C28 7548   4.515   7.969   0.787
   18CHTO   H56 7549   4.486   7.865   0.799
   18CHTO   C35 7550   4.536   8.034   0.925
   18CHTO   O24 7551   4.436   7.996   1.020
   18CHTO   H39 7552   4.352   8.031   0.995
   18CHTO    O9 7553   4.781   7.904   0.542
   18CHTO   C13 7554   4.892   7.843   0.643
   18CHTO   H26 7555   4.839   7.789   0.724
   18CHTO   C11 7556   4.980   7.962   0.701
   18CHTO   H24 7557   4.914   8.025   0.763
   18CHTO    O8 7558   5.030   8.045   0.594
   18CHTO    H3 7559   4.959   8.086   0.548
   18CHTO    C9 7560   5.090   7.901   0.791
   18CHTO   H22 7561   5.036   7.840   0.866
   18CHTO    N2 7562   5.164   8.002   0.871
   18CHTO   H10 7563   5.144   7.989   0.977
   18CHTO   H11 7564   5.270   7.997   0.852
   18CHTO    C7 7565   5.181   7.806   0.706
   18CHTO   H20 7566   5.250   7.760   0.780
   18CHTO    O4 7567   5.103   7.701   0.645
   18CHTO   C14 7568   4.982   7.732   0.571
   18CHTO   H27 7569   4.923   7.638   0.569
   18CHTO   C18 7570   5.020   7.765   0.424
   18CHTO   O13 7571   4.907   7.764   0.336
   18CHTO    H7 7572   4.874   7.676   0.328
   18CHTO    O2 7573   5.270   7.885   0.587
   18CHTO    C1 7574   5.402   7.835   0.558
   18CHTO   H14 7575   5.430   7.873   0.458
   18CHTO    C2 7576   5.416   7.676   0.557
   18CHTO   H15 7577   5.377   7.639   0.652
   18CHTO    O6 7578   5.336   7.625   0.448
   18CHTO    H1 7579   5.245   7.639   0.466
   18CHTO    C3 7580   5.569   7.632   0.541
   18CHTO   H16 7581   5.606   7.664   0.443
   18CHTO    N1 7582   5.586   7.483   0.548
   18CHTO    H8 7583   5.649   7.454   0.631
   18CHTO    H9 7584   5.629   7.446   0.456
   18CHTO    C4 7585   5.657   7.709   0.647
   18CHTO   H17 7586   5.629   7.676   0.747
   18CHTO    O1 7587   5.638   7.850   0.633
   18CHTO    C5 7588   5.505   7.900   0.656
   18CHTO   H18 7589   5.475   7.879   0.759
   18CHTO   C16 7590   5.519   8.054   0.638
   18CHTO   O11 7591   5.398   8.125   0.666
   18CHTO    H5 7592   5.412   8.217   0.653
   18CHTO    O3 7593   5.798   7.690   0.623
   18CHTO    C6 7594   5.883   7.682   0.743
   18CHTO   H19 7595   5.829   7.710   0.833
   18CHTO    C8 7596   5.936   7.536   0.762
   18CHTO   H21 7597   5.981   7.503   0.668
   18CHTO    O7 7598   5.822   7.454   0.793
   18CHTO    H2 7599   5.848   7.364   0.797
   18CHTO   C12 7600   6.046   7.530   0.876
   18CHTO   H25 7601   5.994   7.554   0.971
   18CHTO    N3 7602   6.103   7.391   0.890
   18CHTO   H12 7603   6.086   7.354   0.990
   18CHTO   H13 7604   6.208   7.390   0.865
   18CHTO   C15 7605   6.154   7.641   0.850
   18CHTO   H28 7606   6.213   7.620   0.760
   18CHTO   O10 7607   6.248   7.661   0.969
   18CHTO    H4 7608   6.299   7.584   0.984
   18CHTO    O5 7609   6.093   7.770   0.839
   18CHTO   C10 7610   6.001   7.782   0.729
   18CHTO   H23 7611   6.055   7.763   0.636
   18CHTO   C17 7612   5.952   7.927   0.724
   18CHTO   O12 7613   6.059   8.019   0.706
   18CHTO    H6 7614   6.095   8.010   0.620
   19CHTO  H203 7615   4.627   9.746   2.585
   19CHTO   O82 7616   4.546   9.755   2.539
   19CHTO  C123 7617   4.502   9.629   2.487
   19CHTO  H227 7618   4.404   9.643   2.438
   19CHTO   O77 7619   4.602   9.597   2.386
   19CHTO  C118 7620   4.575   9.478   2.309
   19CHTO  H222 7621   4.477   9.486   2.259
   19CHTO  C125 7622   4.688   9.471   2.199
   19CHTO   O84 7623   4.662   9.371   2.100
   19CHTO  H205 7624   4.732   9.369   2.038
   19CHTO  C114 7625   4.576   9.356   2.404
   19CHTO  H218 7626   4.676   9.347   2.447
   19CHTO  C116 7627   4.475   9.375   2.522
   19CHTO  H220 7628   4.371   9.369   2.482
   19CHTO   O79 7629   4.490   9.265   2.613
   19CHTO  H201 7630   4.462   9.185   2.573
   19CHTO  C120 7631   4.497   9.514   2.595
   19CHTO  H224 7632   4.595   9.507   2.647
   19CHTO   N21 7633   4.393   9.540   2.698
   19CHTO  H211 7634   4.358   9.448   2.742
   19CHTO  H212 7635   4.432   9.606   2.774
   19CHTO   O75 7636   4.544   9.242   2.322
   19CHTO  C112 7637   4.635   9.112   2.357
   19CHTO  H216 7638   4.649   9.106   2.466
   19CHTO   O73 7639   4.760   9.128   2.288
   19CHTO  C113 7640   4.854   9.023   2.314
   19CHTO  H217 7641   4.870   9.013   2.424
   19CHTO  C124 7642   4.989   9.060   2.251
   19CHTO   O83 7643   5.045   9.180   2.307
   19CHTO  H204 7644   5.072   9.163   2.396
   19CHTO  C109 7645   4.799   8.889   2.257
   19CHTO  H213 7646   4.790   8.903   2.148
   19CHTO  C110 7647   4.659   8.858   2.318
   19CHTO  H214 7648   4.673   8.833   2.424
   19CHTO   O78 7649   4.604   8.741   2.254
   19CHTO  H200 7650   4.590   8.757   2.163
   19CHTO  C111 7651   4.563   8.981   2.306
   19CHTO  H215 7652   4.538   8.995   2.199
   19CHTO   N19 7653   4.435   8.961   2.377
   19CHTO  H207 7654   4.452   8.947   2.483
   19CHTO  H208 7655   4.370   9.046   2.362
   19CHTO   O74 7656   4.892   8.781   2.285
   19CHTO  C115 7657   4.915   8.685   2.162
   19CHTO  H219 7658   4.826   8.680   2.098
   19CHTO   O76 7659   5.030   8.737   2.067
   19CHTO  C122 7660   5.160   8.715   2.124
   19CHTO  H226 7661   5.162   8.762   2.222
   19CHTO  C126 7662   5.269   8.788   2.039
   19CHTO   O85 7663   5.251   8.930   2.036
   19CHTO  H206 7664   5.172   8.952   1.989
   19CHTO  C121 7665   5.190   8.560   2.137
   19CHTO  H225 7666   5.255   8.529   2.051
   19CHTO   O81 7667   5.263   8.538   2.258
   19CHTO  H202 7668   5.293   8.449   2.262
   19CHTO  C119 7669   5.060   8.473   2.134
   19CHTO  H223 7670   5.026   8.475   2.030
   19CHTO  C117 7671   4.946   8.540   2.220
   19CHTO  H221 7672   4.971   8.556   2.325
   19CHTO   N20 7673   4.821   8.457   2.222
   19CHTO  H209 7674   4.746   8.504   2.284
   19CHTO  H210 7675   4.844   8.358   2.261
   19CHTO   O80 7676   5.088   8.318   2.156
   19CHTO  C103 7677   5.146   8.234   2.040
   19CHTO  H190 7678   5.138   8.289   1.946
   19CHTO  C101 7679   5.294   8.184   2.057
   19CHTO  H188 7680   5.304   8.136   2.154
   19CHTO   O68 7681   5.390   8.306   2.052
   19CHTO  H168 7682   5.477   8.279   2.071
   19CHTO   C99 7683   5.330   8.075   1.944
   19CHTO  H186 7684   5.324   8.123   1.844
   19CHTO   N17 7685   5.468   8.017   1.956
   19CHTO  H174 7686   5.478   7.964   2.049
   19CHTO  H175 7687   5.542   8.096   1.948
   19CHTO   C97 7688   5.222   7.964   1.944
   19CHTO  H184 7689   5.228   7.910   2.040
   19CHTO   O64 7690   5.092   8.023   1.924
   19CHTO  C104 7691   5.049   8.110   2.029
   19CHTO  H191 7692   5.048   8.057   2.125
   19CHTO  C108 7693   4.903   8.151   2.003
   19CHTO   O71 7694   4.888   8.225   1.881
   19CHTO  H171 7695   4.798   8.247   1.869
   19CHTO   O62 7696   5.233   7.871   1.834
   19CHTO   C91 7697   5.171   7.742   1.854
   19CHTO  H178 7698   5.129   7.738   1.954
   19CHTO   C92 7699   5.280   7.630   1.846
   19CHTO  H179 7700   5.332   7.637   1.750
   19CHTO   O66 7701   5.379   7.656   1.947
   19CHTO  H166 7702   5.427   7.734   1.926
   19CHTO   C93 7703   5.217   7.485   1.865
   19CHTO  H180 7704   5.186   7.478   1.970
   19CHTO   N16 7705   5.313   7.374   1.844
   19CHTO  H172 7706   5.354   7.379   1.744
   19CHTO  H173 7707   5.393   7.380   1.917
   19CHTO   C94 7708   5.090   7.468   1.774
   19CHTO  H181 7709   5.117   7.466   1.668
   19CHTO   O61 7710   5.001   7.578   1.791
   19CHTO   C95 7711   5.057   7.704   1.752
   19CHTO  H182 7712   5.098   7.696   1.652
   19CHTO  C106 7713   4.941   7.809   1.747
   19CHTO   O69 7714   4.848   7.776   1.642
   19CHTO  H169 7715   4.780   7.840   1.640
   19CHTO   O63 7716   5.006   7.338   1.811
   19CHTO   C96 7717   4.932   7.279   1.685
   19CHTO  H183 7718   5.009   7.259   1.611
   19CHTO   C98 7719   4.825   7.373   1.619
   19CHTO  H185 7720   4.867   7.474   1.602
   19CHTO   O67 7721   4.798   7.320   1.488
   19CHTO  H167 7722   4.743   7.380   1.440
   19CHTO  C102 7723   4.687   7.380   1.700
   19CHTO  H189 7724   4.612   7.413   1.627
   19CHTO   N18 7725   4.683   7.480   1.809
   19CHTO  H176 7726   4.702   7.579   1.769
   19CHTO  H177 7727   4.586   7.479   1.857
   19CHTO  C105 7728   4.648   7.237   1.749
   19CHTO  H192 7729   4.659   7.231   1.858
   19CHTO   O65 7730   4.728   7.130   1.693
   19CHTO  C100 7731   4.867   7.139   1.727
   19CHTO  H187 7732   4.876   7.127   1.836
   19CHTO  C107 7733   4.939   7.019   1.663
   19CHTO   O70 7734   5.077   7.013   1.702
   19CHTO  H170 7735   5.124   7.084   1.665
   19CHTO   O57 7736   4.500   7.221   1.711
   19CHTO   C85 7737   4.423   7.126   1.785
   19CHTO  H157 7738   4.483   7.098   1.875
   19CHTO   C83 7739   4.408   6.993   1.704
   19CHTO  H155 7740   4.508   6.955   1.683
   19CHTO   O56 7741   4.347   7.021   1.577
   19CHTO  H135 7742   4.344   6.943   1.525
   19CHTO   C81 7743   4.333   6.890   1.793
   19CHTO  H153 7744   4.391   6.875   1.884
   19CHTO   N14 7745   4.326   6.754   1.732
   19CHTO  H141 7746   4.425   6.720   1.709
   19CHTO  H142 7747   4.268   6.758   1.642
   19CHTO   C79 7748   4.192   6.946   1.835
   19CHTO  H151 7749   4.151   6.877   1.909
   19CHTO   O52 7750   4.205   7.076   1.901
   19CHTO   C86 7751   4.280   7.176   1.825
   19CHTO  H158 7752   4.218   7.196   1.735
   19CHTO   C90 7753   4.287   7.309   1.902
   19CHTO   O60 7754   4.157   7.362   1.929
   19CHTO  H138 7755   4.165   7.445   1.973
   19CHTO   O50 7756   4.096   6.957   1.728
   19CHTO   C73 7757   3.954   6.960   1.701
   19CHTO  H145 7758   3.914   6.857   1.705
   19CHTO   C74 7759   3.929   7.017   1.558
   19CHTO  H146 7760   3.986   6.954   1.487
   19CHTO   O54 7761   3.790   6.998   1.526
   19CHTO  H133 7762   3.772   7.025   1.438
   19CHTO   C75 7763   3.975   7.169   1.553
   19CHTO  H147 7764   4.084   7.172   1.568
   19CHTO   N13 7765   3.954   7.233   1.421
   19CHTO  H139 7766   3.849   7.233   1.396
   19CHTO  H140 7767   3.989   7.336   1.424
   19CHTO   C76 7768   3.907   7.251   1.673
   19CHTO  H148 7769   3.800   7.261   1.652
   19CHTO   O49 7770   3.928   7.183   1.800
   19CHTO   C77 7771   3.877   7.049   1.804
   19CHTO  H149 7772   3.771   7.049   1.778
   19CHTO   C88 7773   3.885   6.993   1.947
   19CHTO   O58 7774   3.819   7.076   2.039
   19CHTO  H136 7775   3.824   7.038   2.125
   19CHTO   O51 7776   3.980   7.394   1.695
   19CHTO   C78 7777   3.885   7.525   1.679
   19CHTO  H150 7778   3.790   7.500   1.627
   19CHTO   C80 7779   3.962   7.631   1.596
   19CHTO  H152 7780   4.062   7.647   1.643
   19CHTO   O55 7781   3.984   7.575   1.465
   19CHTO  H134 7782   3.903   7.562   1.420
   19CHTO   C84 7783   3.885   7.769   1.589
   19CHTO  H156 7784   3.793   7.753   1.534
   19CHTO   N15 7785   3.962   7.875   1.516
   19CHTO  H143 7786   3.906   7.966   1.514
   19CHTO  H144 7787   3.982   7.843   1.416
   19CHTO   C87 7788   3.849   7.814   1.733
   19CHTO  H159 7789   3.940   7.835   1.789
   19CHTO   O53 7790   3.770   7.702   1.800
   19CHTO   C82 7791   3.849   7.584   1.818
   19CHTO  H154 7792   3.939   7.607   1.876
   19CHTO   C89 7793   3.765   7.487   1.903
   19CHTO   O59 7794   3.845   7.391   1.971
   19CHTO  H137 7795   3.790   7.332   2.020
   19CHTO   O45 7796   3.753   7.948   1.731
   19CHTO   C67 7797   3.771   8.035   1.845
   19CHTO  H124 7798   3.782   7.973   1.934
   19CHTO   C65 7799   3.897   8.127   1.831
   19CHTO  H122 7800   3.916   8.135   1.723
   19CHTO   O44 7801   4.007   8.056   1.891
   19CHTO  H102 7802   3.998   8.056   1.984
   19CHTO   C63 7803   3.872   8.276   1.878
   19CHTO  H120 7804   3.813   8.326   1.801
   19CHTO   N11 7805   3.993   8.364   1.885
   19CHTO  H108 7806   4.057   8.332   1.964
   19CHTO  H109 7807   3.963   8.465   1.902
   19CHTO   C61 7808   3.783   8.276   2.008
   19CHTO  H118 7809   3.764   8.382   2.031
   19CHTO   O40 7810   3.653   8.215   1.981
   19CHTO   C68 7811   3.640   8.120   1.870
   19CHTO  H125 7812   3.616   8.177   1.778
   19CHTO   C72 7813   3.518   8.030   1.900
   19CHTO   O48 7814   3.529   7.955   2.021
   19CHTO  H105 7815   3.527   8.013   2.095
   19CHTO   O38 7816   3.850   8.215   2.121
   19CHTO   C55 7817   3.771   8.153   2.224
   19CHTO  H112 7818   3.694   8.090   2.178
   19CHTO   C56 7819   3.709   8.257   2.327
   19CHTO  H113 7820   3.793   8.307   2.378
   19CHTO   O42 7821   3.635   8.359   2.257
   19CHTO  H100 7822   3.693   8.410   2.204
   19CHTO   C57 7823   3.617   8.180   2.429
   19CHTO  H114 7824   3.531   8.147   2.371
   19CHTO   N10 7825   3.563   8.265   2.539
   19CHTO  H106 7826   3.469   8.309   2.509
   19CHTO  H107 7827   3.632   8.343   2.565
   19CHTO   C58 7828   3.688   8.055   2.490
   19CHTO  H115 7829   3.751   8.086   2.576
   19CHTO   O37 7830   3.771   7.982   2.398
   19CHTO   C59 7831   3.857   8.054   2.308
   19CHTO  H116 7832   3.932   8.108   2.365
   19CHTO   C70 7833   3.930   7.952   2.220
   19CHTO   O46 7834   3.842   7.861   2.151
   19CHTO  H103 7835   3.893   7.800   2.101
   19CHTO   O39 7836   3.568   7.945   2.541
   19CHTO   C60 7837   3.510   7.867   2.435
   19CHTO  H117 7838   3.519   7.921   2.341
   19CHTO   C62 7839   3.584   7.731   2.417
   19CHTO  H119 7840   3.691   7.754   2.400
   19CHTO   O43 7841   3.575   7.654   2.539
   19CHTO  H101 7842   3.622   7.574   2.530
   19CHTO   C66 7843   3.525   7.656   2.288
   19CHTO  H123 7844   3.530   7.724   2.203
   19CHTO   N12 7845   3.607   7.538   2.251
   19CHTO  H110 7846   3.645   7.548   2.150
   19CHTO  H111 7847   3.552   7.446   2.263
   19CHTO   C69 7848   3.375   7.623   2.311
   19CHTO  H126 7849   3.365   7.553   2.397
   19CHTO   O41 7850   3.296   7.757   2.342
   19CHTO   C64 7851   3.358   7.842   2.458
   19CHTO  H121 7852   3.345   7.788   2.554
   19CHTO   C71 7853   3.279   7.975   2.469
   19CHTO   O47 7854   3.281   8.049   2.346
   19CHTO  H104 7855   3.231   8.004   2.281
   19CHTO   O34 7856   3.312   7.554   2.185
   19CHTO   C49 7857   3.222   7.592   2.066
   19CHTO   H91 7858   3.122   7.609   2.106
   19CHTO   C47 7859   3.220   7.474   1.967
   19CHTO   H89 7860   3.144   7.499   1.889
   19CHTO   O33 7861   3.176   7.357   2.038
   19CHTO   H70 7862   3.166   7.285   1.978
   19CHTO   C45 7863   3.366   7.461   1.899
   19CHTO   H87 7864   3.440   7.453   1.980
   19CHTO    N8 7865   3.378   7.341   1.813
   19CHTO   H75 7866   3.479   7.333   1.776
   19CHTO   H76 7867   3.353   7.252   1.869
   19CHTO   C43 7868   3.400   7.597   1.822
   19CHTO   H85 7869   3.502   7.586   1.785
   19CHTO   O29 7870   3.388   7.709   1.912
   19CHTO   C50 7871   3.270   7.721   1.993
   19CHTO   H92 7872   3.293   7.795   2.072
   19CHTO   C54 7873   3.153   7.788   1.916
   19CHTO   O36 7874   3.183   7.924   1.881
   19CHTO   H72 7875   3.185   7.977   1.958
   19CHTO   O27 7876   3.319   7.618   1.704
   19CHTO   C37 7877   3.338   7.668   1.571
   19CHTO   H79 7878   3.241   7.697   1.528
   19CHTO   C38 7879   3.428   7.795   1.569
   19CHTO   H80 7880   3.519   7.774   1.628
   19CHTO   O31 7881   3.353   7.899   1.635
   19CHTO   H68 7882   3.407   7.975   1.646
   19CHTO   C39 7883   3.468   7.838   1.423
   19CHTO   H81 7884   3.377   7.869   1.371
   19CHTO    N7 7885   3.563   7.955   1.421
   19CHTO   H73 7886   3.520   8.036   1.364
   19CHTO   H74 7887   3.659   7.927   1.381
   19CHTO   C40 7888   3.525   7.714   1.344
   19CHTO   H82 7889   3.622   7.683   1.386
   19CHTO   O26 7890   3.430   7.607   1.348
   19CHTO   C41 7891   3.399   7.556   1.481
   19CHTO   H83 7892   3.490   7.517   1.528
   19CHTO   C52 7893   3.300   7.438   1.463
   19CHTO   O35 7894   3.359   7.324   1.388
   19CHTO   H71 7895   3.426   7.283   1.441
   19CHTO   O28 7896   3.537   7.735   1.202
   19CHTO   C42 7897   3.663   7.768   1.136
   19CHTO   H84 7898   3.725   7.815   1.213
   19CHTO   C44 7899   3.650   7.873   1.020
   19CHTO   H86 7900   3.586   7.831   0.943
   19CHTO   O32 7901   3.585   7.989   1.075
   19CHTO   H69 7902   3.566   8.051   1.007
   19CHTO   C48 7903   3.790   7.909   0.955
   19CHTO   H90 7904   3.847   7.965   1.029
   19CHTO    N9 7905   3.777   8.001   0.836
   19CHTO   H77 7906   3.731   8.094   0.866
   19CHTO   H78 7907   3.719   7.953   0.759
   19CHTO   C51 7908   3.870   7.779   0.921
   19CHTO   H93 7909   3.822   7.729   0.836
   19CHTO   O30 7910   3.876   7.693   1.036
   19CHTO   C46 7911   3.743   7.645   1.082
   19CHTO   H88 7912   3.689   7.602   0.997
   19CHTO   C53 7913   3.768   7.536   1.188
   19CHTO   O72 7914   3.840   7.425   1.133
   19CHTO  H199 7915   3.785   7.379   1.073
   19CHTO   O22 7916   4.008   7.808   0.891
   19CHTO   C31 7917   4.099   7.701   0.846
   19CHTO   H59 7918   4.050   7.604   0.874
   19CHTO   C29 7919   4.122   7.698   0.694
   19CHTO   H57 7920   4.166   7.794   0.665
   19CHTO   O21 7921   3.995   7.687   0.628
   19CHTO   H37 7922   3.944   7.765   0.643
   19CHTO   C27 7923   4.221   7.581   0.652
   19CHTO   H55 7924   4.172   7.485   0.672
   19CHTO    N5 7925   4.256   7.586   0.507
   19CHTO   H43 7926   4.218   7.676   0.460
   19CHTO   H44 7927   4.363   7.578   0.491
   19CHTO   C25 7928   4.350   7.583   0.744
   19CHTO   H53 7929   4.412   7.670   0.718
   19CHTO   O17 7930   4.315   7.590   0.885
   19CHTO   C32 7931   4.235   7.703   0.922
   19CHTO   H60 7932   4.288   7.795   0.897
   19CHTO   C36 7933   4.217   7.700   1.076
   19CHTO   O25 7934   4.154   7.580   1.122
   19CHTO   H40 7935   4.144   7.584   1.215
   19CHTO   O15 7936   4.434   7.454   0.728
   19CHTO   C19 7937   4.498   7.363   0.634
   19CHTO   H47 7938   4.431   7.364   0.547
   19CHTO   C20 7939   4.641   7.404   0.588
   19CHTO   H48 7940   4.714   7.400   0.671
   19CHTO   O19 7941   4.634   7.540   0.541
   19CHTO   H35 7942   4.618   7.598   0.613
   19CHTO   C21 7943   4.691   7.307   0.474
   19CHTO   H49 7944   4.628   7.322   0.386
   19CHTO    N4 7945   4.831   7.333   0.430
   19CHTO   H41 7946   4.839   7.435   0.393
   19CHTO   H42 7947   4.858   7.265   0.351
   19CHTO   C22 7948   4.671   7.159   0.517
   19CHTO   H50 7949   4.749   7.130   0.589
   19CHTO   O14 7950   4.541   7.133   0.572
   19CHTO   C23 7951   4.502   7.215   0.683
   19CHTO   H51 7952   4.575   7.201   0.764
   19CHTO   C34 7953   4.364   7.169   0.732
   19CHTO   O23 7954   4.366   7.033   0.778
   19CHTO   H38 7955   4.378   6.975   0.705
   19CHTO   O16 7956   4.670   7.073   0.402
   19CHTO   C24 7957   4.757   6.939   0.408
   19CHTO   H52 7958   4.848   6.952   0.466
   19CHTO   C26 7959   4.792   6.907   0.261
   19CHTO   H54 7960   4.701   6.926   0.198
   19CHTO   O20 7961   4.892   7.001   0.217
   19CHTO   H36 7962   4.856   7.088   0.213
   19CHTO   C30 7963   4.836   6.759   0.237
   19CHTO   H58 7964   4.935   6.742   0.282
   19CHTO    N6 7965   4.850   6.728   0.092
   19CHTO   H45 7966   4.754   6.741   0.043
   19CHTO   H46 7967   4.884   6.627   0.079
   19CHTO   C33 7968   4.736   6.665   0.310
   19CHTO   H61 7969   4.635   6.684   0.270
   19CHTO   O18 7970   4.738   6.700   0.449
   19CHTO   C28 7971   4.675   6.825   0.476
   19CHTO   H56 7972   4.573   6.826   0.437
   19CHTO   C35 7973   4.667   6.839   0.631
   19CHTO   O24 7974   4.794   6.838   0.697
   19CHTO   H39 7975   4.842   6.916   0.674
   19CHTO    O9 7976   4.760   6.523   0.291
   19CHTO   C13 7977   4.621   6.438   0.306
   19CHTO   H26 7978   4.547   6.482   0.236
   19CHTO   C11 7979   4.569   6.440   0.456
   19CHTO   H24 7980   4.546   6.545   0.481
   19CHTO    O8 7981   4.672   6.397   0.547
   19CHTO    H3 7982   4.694   6.307   0.531
   19CHTO    C9 7983   4.438   6.359   0.461
   19CHTO   H22 7984   4.370   6.408   0.389
   19CHTO    N2 7985   4.367   6.370   0.591
   19CHTO   H10 7986   4.269   6.323   0.584
   19CHTO   H11 7987   4.425   6.323   0.669
   19CHTO    C7 7988   4.463   6.212   0.413
   19CHTO   H20 7989   4.361   6.173   0.401
   19CHTO    O4 7990   4.529   6.204   0.285
   19CHTO   C14 7991   4.641   6.289   0.255
   19CHTO   H27 7992   4.647   6.293   0.144
   19CHTO   C18 7993   4.774   6.224   0.304
   19CHTO   O13 7994   4.798   6.100   0.239
   19CHTO    H7 7995   4.877   6.062   0.271
   19CHTO    O2 7996   4.545   6.122   0.522
   19CHTO    C1 7997   4.531   5.978   0.511
   19CHTO   H14 7998   4.583   5.946   0.419
   19CHTO    C2 7999   4.381   5.924   0.506
   19CHTO   H15 8000   4.324   5.986   0.578
   19CHTO    O6 8001   4.328   5.944   0.374
   19CHTO    H1 8002   4.236   5.925   0.372
   19CHTO    C3 8003   4.368   5.768   0.544
   19CHTO   H16 8004   4.402   5.709   0.457
   19CHTO    N1 8005   4.224   5.732   0.569
   19CHTO    H8 8006   4.193   5.653   0.502
   19CHTO    H9 8007   4.209   5.701   0.671
   19CHTO    C4 8008   4.463   5.729   0.662
   19CHTO   H17 8009   4.425   5.773   0.754
   19CHTO    O1 8010   4.596   5.773   0.636
   19CHTO    C5 8011   4.609   5.916   0.631
   19CHTO   H18 8012   4.567   5.958   0.723
   19CHTO   C16 8013   4.760   5.950   0.626
   19CHTO   O11 8014   4.825   5.897   0.510
   19CHTO    H5 8015   4.827   5.803   0.515
   19CHTO    O3 8016   4.473   5.586   0.675
   19CHTO    C6 8017   4.476   5.533   0.812
   19CHTO   H19 8018   4.496   5.611   0.887
   19CHTO    C8 8019   4.338   5.468   0.846
   19CHTO   H21 8020   4.311   5.401   0.764
   19CHTO    O7 8021   4.241   5.574   0.856
   19CHTO    H2 8022   4.226   5.612   0.772
   19CHTO   C12 8023   4.344   5.384   0.980
   19CHTO   H25 8024   4.358   5.457   1.063
   19CHTO    N3 8025   4.215   5.312   1.006
   19CHTO   H12 8026   4.192   5.245   0.925
   19CHTO   H13 8027   4.135   5.383   1.019
   19CHTO   C15 8028   4.469   5.288   0.976
   19CHTO   H28 8029   4.458   5.211   0.900
   19CHTO   O10 8030   4.498   5.224   1.109
   19CHTO    H4 8031   4.429   5.166   1.133
   19CHTO    O5 8032   4.588   5.365   0.953
   19CHTO   C10 8033   4.591   5.429   0.825
   19CHTO   H23 8034   4.581   5.354   0.747
   19CHTO   C17 8035   4.727   5.497   0.807
   19CHTO   O12 8036   4.833   5.400   0.809
   19CHTO    H6 8037   4.842   5.364   0.895
   20CHTO  H203 8038   4.638   1.173   2.181
   20CHTO   O82 8039   4.572   1.239   2.181
   20CHTO  C123 8040   4.611   1.350   2.098
   20CHTO  H227 8041   4.529   1.424   2.096
   20CHTO   O77 8042   4.726   1.406   2.168
   20CHTO  C118 8043   4.775   1.529   2.111
   20CHTO  H222 8044   4.693   1.602   2.103
   20CHTO  C125 8045   4.884   1.583   2.210
   20CHTO   O84 8046   4.921   1.719   2.182
   20CHTO  H205 8047   4.965   1.723   2.100
   20CHTO  C114 8048   4.830   1.498   1.970
   20CHTO  H218 8049   4.913   1.428   1.979
   20CHTO  C116 8050   4.720   1.432   1.880
   20CHTO  H220 8051   4.642   1.509   1.858
   20CHTO   O79 8052   4.777   1.396   1.753
   20CHTO  H201 8053   4.844   1.331   1.764
   20CHTO  C120 8054   4.653   1.308   1.953
   20CHTO  H224 8055   4.731   1.229   1.957
   20CHTO   N21 8056   4.539   1.253   1.875
   20CHTO  H211 8057   4.466   1.207   1.940
   20CHTO  H212 8058   4.575   1.182   1.802
   20CHTO   O75 8059   4.877   1.625   1.920
   20CHTO  C112 8060   4.998   1.616   1.810
   20CHTO  H216 8061   4.977   1.536   1.738
   20CHTO   O73 8062   5.121   1.593   1.881
   20CHTO  C113 8063   5.236   1.576   1.796
   20CHTO  H217 8064   5.218   1.491   1.726
   20CHTO  C124 8065   5.353   1.537   1.887
   20CHTO   O83 8066   5.471   1.496   1.817
   20CHTO  H204 8067   5.507   1.569   1.770
   20CHTO  C109 8068   5.263   1.707   1.716
   20CHTO  H213 8069   5.293   1.783   1.789
   20CHTO  C110 8070   5.134   1.753   1.640
   20CHTO  H214 8071   5.118   1.685   1.556
   20CHTO   O78 8072   5.156   1.884   1.585
   20CHTO  H200 8073   5.220   1.881   1.517
   20CHTO  C111 8074   5.009   1.753   1.732
   20CHTO  H215 8075   5.020   1.833   1.806
   20CHTO   N19 8076   4.882   1.781   1.659
   20CHTO  H207 8077   4.799   1.782   1.727
   20CHTO  H208 8078   4.865   1.705   1.583
   20CHTO   O74 8079   5.374   1.686   1.622
   20CHTO  C115 8080   5.454   1.820   1.580
   20CHTO  H219 8081   5.410   1.909   1.626
   20CHTO   O76 8082   5.599   1.818   1.630
   20CHTO  C122 8083   5.674   1.705   1.584
   20CHTO  H226 8084   5.645   1.619   1.646
   20CHTO  C126 8085   5.826   1.731   1.616
   20CHTO   O85 8086   5.877   1.850   1.555
   20CHTO  H206 8087   5.878   1.840   1.462
   20CHTO  C121 8088   5.652   1.670   1.430
   20CHTO  H225 8089   5.751   1.651   1.383
   20CHTO   O81 8090   5.577   1.548   1.417
   20CHTO  H202 8091   5.491   1.558   1.455
   20CHTO  C119 8092   5.583   1.788   1.355
   20CHTO  H223 8093   5.654   1.870   1.362
   20CHTO  C117 8094   5.447   1.832   1.422
   20CHTO  H221 8095   5.362   1.770   1.395
   20CHTO   N20 8096   5.407   1.971   1.377
   20CHTO  H209 8097   5.485   2.017   1.318
   20CHTO  H210 8098   5.382   2.034   1.461
   20CHTO   O80 8099   5.573   1.767   1.195
   20CHTO  C103 8100   5.702   1.787   1.101
   20CHTO  H190 8101   5.794   1.785   1.159
   20CHTO  C101 8102   5.712   1.680   0.983
   20CHTO  H188 8103   5.610   1.655   0.952
   20CHTO   O68 8104   5.777   1.552   1.041
   20CHTO  H168 8105   5.773   1.483   0.978
   20CHTO   C99 8106   5.791   1.734   0.854
   20CHTO  H186 8107   5.899   1.743   0.878
   20CHTO   N17 8108   5.781   1.642   0.735
   20CHTO  H174 8109   5.819   1.544   0.762
   20CHTO  H175 8110   5.679   1.636   0.701
   20CHTO   C97 8111   5.744   1.877   0.820
   20CHTO  H184 8112   5.635   1.873   0.800
   20CHTO   O64 8113   5.774   1.959   0.934
   20CHTO  C104 8114   5.685   1.934   1.043
   20CHTO  H191 8115   5.581   1.948   1.012
   20CHTO  C108 8116   5.711   2.042   1.150
   20CHTO   O71 8117   5.838   2.027   1.213
   20CHTO  H171 8118   5.840   1.949   1.265
   20CHTO   O62 8119   5.811   1.939   0.708
   20CHTO   C91 8120   5.758   2.066   0.663
   20CHTO  H178 8121   5.700   2.110   0.744
   20CHTO   C92 8122   5.659   2.047   0.543
   20CHTO  H179 8123   5.712   1.996   0.462
   20CHTO   O66 8124   5.552   1.959   0.583
   20CHTO  H166 8125   5.586   1.872   0.598
   20CHTO   C93 8126   5.600   2.186   0.493
   20CHTO  H180 8127   5.530   2.221   0.570
   20CHTO   N16 8128   5.519   2.172   0.369
   20CHTO  H172 8129   5.478   2.268   0.340
   20CHTO  H173 8130   5.580   2.132   0.289
   20CHTO   C94 8131   5.713   2.294   0.474
   20CHTO  H181 8132   5.777   2.272   0.388
   20CHTO   O61 8133   5.800   2.296   0.589
   20CHTO   C95 8134   5.865   2.172   0.619
   20CHTO  H182 8135   5.918   2.138   0.530
   20CHTO  C106 8136   5.973   2.201   0.729
   20CHTO   O69 8137   6.055   2.087   0.756
   20CHTO  H169 8138   6.118   2.108   0.822
   20CHTO   O63 8139   5.648   2.448   0.463
   20CHTO   C96 8140   5.612   2.509   0.313
   20CHTO  H183 8141   5.541   2.441   0.265
   20CHTO   C98 8142   5.734   2.527   0.218
   20CHTO  H185 8143   5.817   2.573   0.273
   20CHTO   O67 8144   5.779   2.396   0.181
   20CHTO  H167 8145   5.858   2.401   0.132
   20CHTO  C102 8146   5.701   2.613   0.085
   20CHTO  H189 8147   5.636   2.549   0.023
   20CHTO   N18 8148   5.819   2.645   0.001
   20CHTO  H176 8149   5.789   2.701   2.780
   20CHTO  H177 8150   5.868   2.553   2.837
   20CHTO  C105 8151   5.619   2.740   0.124
   20CHTO  H192 8152   5.684   2.809   0.179
   20CHTO   O65 8153   5.506   2.707   0.205
   20CHTO  C100 8154   5.537   2.648   0.332
   20CHTO  H187 8155   5.602   2.716   0.388
   20CHTO  C107 8156   5.404   2.634   0.410
   20CHTO   O70 8157   5.423   2.598   0.547
   20CHTO  H170 8158   5.453   2.509   0.553
   20CHTO   O57 8159   5.569   2.809   2.846
   20CHTO   C85 8160   5.497   2.934   2.845
   20CHTO  H157 8161   5.468   2.955   0.085
   20CHTO   C83 8162   5.363   2.914   2.767
   20CHTO  H155 8163   5.304   2.839   2.820
   20CHTO   O56 8164   5.392   2.858   2.637
   20CHTO  H135 8165   5.312   2.838   2.592
   20CHTO   C81 8166   5.284   3.048   2.763
   20CHTO  H153 8167   5.266   3.079   0.000
   20CHTO   N14 8168   5.147   3.032   2.707
   20CHTO  H141 8169   5.153   3.007   2.603
   20CHTO  H142 8170   5.093   3.124   2.717
   20CHTO   C79 8171   5.369   3.160   2.692
   20CHTO  H151 8172   5.314   3.253   2.702
   20CHTO   O52 8173   5.496   3.178   2.763
   20CHTO   C86 8174   5.576   3.056   2.780
   20CHTO  H158 8175   5.611   3.032   2.678
   20CHTO   C90 8176   5.702   3.095   2.860
   20CHTO   O60 8177   5.800   2.992   2.861
   20CHTO  H138 8178   5.873   3.018   0.047
   20CHTO   O50 8179   5.392   3.137   2.552
   20CHTO   C73 8180   5.474   3.131   2.434
   20CHTO  H145 8181   5.543   3.045   2.440
   20CHTO   C74 8182   5.558   3.261   2.416
   20CHTO  H146 8183   5.620   3.271   2.507
   20CHTO   O54 8184   5.650   3.239   2.307
   20CHTO  H133 8185   5.707   3.313   2.298
   20CHTO   C75 8186   5.462   3.384   2.397
   20CHTO  H147 8187   5.406   3.399   2.490
   20CHTO   N13 8188   5.530   3.514   2.371
   20CHTO  H139 8189   5.505   3.586   2.448
   20CHTO  H140 8190   5.638   3.501   2.370
   20CHTO   C76 8191   5.354   3.354   2.281
   20CHTO  H148 8192   5.407   3.356   2.185
   20CHTO   O49 8193   5.292   3.223   2.297
   20CHTO   C77 8194   5.382   3.113   2.309
   20CHTO  H149 8195   5.445   3.105   2.220
   20CHTO   C88 8196   5.299   2.984   2.314
   20CHTO   O58 8197   5.385   2.867   2.317
   20CHTO  H136 8198   5.332   2.790   2.320
   20CHTO   O51 8199   5.227   3.464   2.284
   20CHTO   C78 8200   5.140   3.479   2.426
   20CHTO  H150 8201   5.202   3.451   2.514
   20CHTO   C80 8202   5.013   3.391   2.425
   20CHTO  H152 8203   4.955   3.414   2.334
   20CHTO   O55 8204   5.053   3.253   2.417
   20CHTO  H134 8205   5.102   3.228   2.493
   20CHTO   C84 8206   4.923   3.416   2.553
   20CHTO  H156 8207   4.978   3.378   2.639
   20CHTO   N15 8208   4.793   3.340   2.548
   20CHTO  H143 8209   4.812   3.235   2.541
   20CHTO  H144 8210   4.736   3.359   2.637
   20CHTO   C87 8211   4.899   3.568   2.573
   20CHTO  H159 8212   4.833   3.605   2.494
   20CHTO   O53 8213   5.032   3.643   2.568
   20CHTO   C82 8214   5.100   3.626   2.443
   20CHTO  H154 8215   5.035   3.657   2.361
   20CHTO   C89 8216   5.223   3.719   2.439
   20CHTO   O59 8217   5.184   3.857   2.434
   20CHTO  H137 8218   5.146   3.883   2.516
   20CHTO   O45 8219   4.824   3.601   2.717
   20CHTO   C67 8220   4.894   3.571   2.839
   20CHTO  H124 8221   4.944   3.475   2.830
   20CHTO   C65 8222   5.002   3.680   0.008
   20CHTO  H122 8223   4.986   3.762   2.804
   20CHTO   O44 8224   5.131   3.623   2.850
   20CHTO  H102 8225   5.152   3.559   0.050
   20CHTO   C63 8226   4.980   3.745   0.150
   20CHTO  H120 8227   4.887   3.802   0.148
   20CHTO   N11 8228   5.077   3.852   0.190
   20CHTO  H108 8229   5.161   3.854   0.123
   20CHTO  H109 8230   5.112   3.837   0.291
   20CHTO   C61 8231   4.959   3.631   0.257
   20CHTO  H118 8232   4.924   3.681   0.348
   20CHTO   O40 8233   4.855   3.536   0.219
   20CHTO   C68 8234   4.789   3.553   0.090
   20CHTO  H125 8235   4.725   3.644   0.096
   20CHTO   C72 8236   4.695   3.433   0.066
   20CHTO   O48 8237   4.764   3.307   0.063
   20CHTO  H105 8238   4.703   3.238   0.046
   20CHTO   O38 8239   5.080   3.557   0.286
   20CHTO   C55 8240   5.072   3.468   0.400
   20CHTO  H112 8241   4.967   3.437   0.416
   20CHTO   C56 8242   5.134   3.536   0.529
   20CHTO  H113 8243   5.238   3.562   0.506
   20CHTO   O42 8244   5.066   3.660   0.557
   20CHTO  H100 8245   4.975   3.645   0.575
   20CHTO   C57 8246   5.127   3.436   0.652
   20CHTO  H114 8247   5.021   3.423   0.677
   20CHTO   N10 8248   5.194   3.488   0.775
   20CHTO  H106 8249   5.277   3.551   0.749
   20CHTO  H107 8250   5.228   3.407   0.837
   20CHTO   C58 8251   5.185   3.298   0.610
   20CHTO  H115 8252   5.295   3.307   0.599
   20CHTO   O37 8253   5.128   3.250   0.487
   20CHTO   C59 8254   5.149   3.335   0.373
   20CHTO  H116 8255   5.256   3.354   0.360
   20CHTO   C70 8256   5.097   3.260   0.250
   20CHTO   O46 8257   5.129   3.325   0.126
   20CHTO  H103 8258   5.096   3.274   0.055
   20CHTO   O39 8259   5.149   3.186   0.722
   20CHTO   C60 8260   5.246   3.081   0.735
   20CHTO  H117 8261   5.287   3.057   0.636
   20CHTO   C62 8262   5.365   3.123   0.827
   20CHTO  H119 8263   5.417   3.207   0.775
   20CHTO   O43 8264   5.314   3.171   0.953
   20CHTO  H101 8265   5.267   3.252   0.940
   20CHTO   C66 8266   5.468   3.000   0.844
   20CHTO  H123 8267   5.502   2.970   0.745
   20CHTO   N12 8268   5.590   3.038   0.920
   20CHTO  H110 8269   5.563   3.072   1.019
   20CHTO  H111 8270   5.644   3.114   0.866
   20CHTO   C69 8271   5.393   2.880   0.907
   20CHTO  H126 8272   5.350   2.909   1.006
   20CHTO   O41 8273   5.277   2.839   0.811
   20CHTO   C64 8274   5.176   2.953   0.788
   20CHTO  H121 8275   5.126   2.977   0.884
   20CHTO   C71 8276   5.066   2.904   0.689
   20CHTO   O47 8277   5.121   2.864   0.563
   20CHTO  H104 8278   5.155   2.938   0.518
   20CHTO   O34 8279   5.488   2.754   0.930
   20CHTO   C49 8280   5.447   2.614   0.979
   20CHTO   H91 8281   5.387   2.572   0.898
   20CHTO   C47 8282   5.359   2.623   1.106
   20CHTO   H89 8283   5.263   2.666   1.071
   20CHTO   O33 8284   5.417   2.714   1.202
   20CHTO   H70 8285   5.500   2.682   1.231
   20CHTO   C45 8286   5.339   2.479   1.178
   20CHTO   H87 8287   5.399   2.479   1.270
   20CHTO    N8 8288   5.197   2.459   1.217
   20CHTO   H75 8289   5.163   2.543   1.276
   20CHTO   H76 8290   5.187   2.368   1.274
   20CHTO   C43 8291   5.402   2.359   1.092
   20CHTO   H85 8292   5.392   2.268   1.153
   20CHTO   O29 8293   5.540   2.391   1.065
   20CHTO   C50 8294   5.568   2.518   1.004
   20CHTO   H92 8295   5.640   2.572   1.067
   20CHTO   C54 8296   5.644   2.495   0.872
   20CHTO   O36 8297   5.770   2.430   0.894
   20CHTO   H72 8298   5.828   2.488   0.939
   20CHTO   O27 8299   5.333   2.334   0.969
   20CHTO   C37 8300   5.233   2.275   0.885
   20CHTO   H79 8301   5.138   2.266   0.940
   20CHTO   C38 8302   5.206   2.364   0.760
   20CHTO   H80 8303   5.303   2.386   0.712
   20CHTO   O31 8304   5.148   2.488   0.806
   20CHTO   H68 8305   5.211   2.537   0.855
   20CHTO   C39 8306   5.112   2.292   0.656
   20CHTO   H81 8307   5.013   2.286   0.701
   20CHTO    N7 8308   5.096   2.369   0.527
   20CHTO   H73 8309   5.193   2.384   0.481
   20CHTO   H74 8310   5.049   2.464   0.546
   20CHTO   C40 8311   5.160   2.144   0.629
   20CHTO   H82 8312   5.253   2.146   0.572
   20CHTO   O26 8313   5.174   2.075   0.754
   20CHTO   C41 8314   5.277   2.133   0.839
   20CHTO   H83 8315   5.372   2.142   0.783
   20CHTO   C52 8316   5.304   2.037   0.958
   20CHTO   O35 8317   5.188   2.019   1.046
   20CHTO   H71 8318   5.211   1.960   1.115
   20CHTO   O28 8319   5.062   2.067   0.555
   20CHTO   C42 8320   5.103   1.949   0.478
   20CHTO   H84 8321   5.008   1.903   0.450
   20CHTO   C44 8322   5.181   1.839   0.559
   20CHTO   H86 8323   5.267   1.886   0.607
   20CHTO   O32 8324   5.091   1.794   0.662
   20CHTO   H69 8325   5.136   1.735   0.720
   20CHTO   C48 8326   5.235   1.721   0.468
   20CHTO   H90 8327   5.149   1.669   0.426
   20CHTO    N9 8328   5.312   1.620   0.548
   20CHTO   H77 8329   5.264   1.523   0.543
   20CHTO   H78 8330   5.325   1.651   0.650
   20CHTO   C51 8331   5.319   1.784   0.351
   20CHTO   H93 8332   5.398   1.845   0.396
   20CHTO   O30 8333   5.230   1.862   0.272
   20CHTO   C46 8334   5.177   1.987   0.346
   20CHTO   H88 8335   5.262   2.051   0.369
   20CHTO   C53 8336   5.081   2.061   0.250
   20CHTO   O72 8337   5.149   2.106   0.133
   20CHTO  H199 8338   5.089   2.151   0.077
   20CHTO   O22 8339   5.374   1.688   0.258
   20CHTO   C31 8340   5.516   1.687   0.215
   20CHTO   H59 8341   5.516   1.640   0.114
   20CHTO   C29 8342   5.584   1.825   0.200
   20CHTO   H57 8343   5.582   1.875   0.297
   20CHTO   O21 8344   5.503   1.903   0.110
   20CHTO   H37 8345   5.536   1.991   0.106
   20CHTO   C27 8346   5.735   1.812   0.152
   20CHTO   H55 8347   5.737   1.764   0.053
   20CHTO    N5 8348   5.803   1.944   0.142
   20CHTO   H43 8349   5.892   1.948   0.204
   20CHTO   H44 8350   5.829   1.965   0.040
   20CHTO   C25 8351   5.810   1.715   0.250
   20CHTO   H53 8352   5.814   1.760   0.351
   20CHTO   O17 8353   5.740   1.588   0.259
   20CHTO   C32 8354   5.604   1.594   0.305
   20CHTO   H60 8355   5.603   1.632   0.407
   20CHTO   C36 8356   5.550   1.448   0.307
   20CHTO   O25 8357   5.556   1.385   0.178
   20CHTO   H40 8358   5.495   1.426   0.120
   20CHTO   O15 8359   5.956   1.684   0.202
   20CHTO   C19 8360   6.093   1.668   0.155
   20CHTO   H47 8361   6.090   1.706   0.052
   20CHTO   C20 8362   6.198   1.751   0.236
   20CHTO   H48 8363   6.199   1.723   0.342
   20CHTO   O19 8364   6.157   1.889   0.228
   20CHTO   H35 8365   6.212   1.942   0.282
   20CHTO   C21 8366   6.345   1.732   0.178
   20CHTO   H49 8367   6.349   1.779   0.080
   20CHTO    N4 8368   6.449   1.798   0.262
   20CHTO   H41 8369   6.429   1.904   0.268
   20CHTO   H42 8370   6.546   1.783   0.217
   20CHTO   C22 8371   6.375   1.581   0.156
   20CHTO   H50 8372   6.386   1.532   0.253
   20CHTO   O14 8373   6.269   1.518   0.082
   20CHTO   C23 8374   6.141   1.520   0.146
   20CHTO   H51 8375   6.152   1.474   0.246
   20CHTO   C34 8376   6.048   1.431   0.062
   20CHTO   O23 8377   5.927   1.401   0.132
   20CHTO   H38 8378   5.875   1.342   0.081
   20CHTO   O16 8379   6.493   1.563   0.076
   20CHTO   C24 8380   6.541   1.412   0.060
   20CHTO   H52 8381   6.462   1.341   0.083
   20CHTO   C26 8382   6.663   1.384   0.150
   20CHTO   H54 8383   6.743   1.458   0.123
   20CHTO   O20 8384   6.632   1.409   0.288
   20CHTO   H36 8385   6.563   1.352   0.317
   20CHTO   C30 8386   6.716   1.238   0.132
   20CHTO   H58 8387   6.676   1.175   0.213
   20CHTO    N6 8388   6.864   1.231   0.149
   20CHTO   H45 8389   6.891   1.264   0.248
   20CHTO   H46 8390   6.913   1.293   0.076
   20CHTO   C33 8391   6.669   1.172   2.865
   20CHTO   H61 8392   6.737   1.092   2.834
   20CHTO   O18 8393   6.662   1.269   2.758
   20CHTO   C28 8394   6.582   1.388   2.777
   20CHTO   H56 8395   6.641   1.474   2.743
   20CHTO   C35 8396   6.457   1.383   2.685
   20CHTO   O24 8397   6.370   1.273   2.712
   20CHTO   H39 8398   6.295   1.277   2.655
   20CHTO    O9 8399   6.542   1.108   0.019
   20CHTO   C13 8400   6.550   0.958   0.081
   20CHTO   H26 8401   6.633   0.955   0.154
   20CHTO   C11 8402   6.573   0.853   2.829
   20CHTO   H24 8403   6.678   0.861   2.797
   20CHTO    O8 8404   6.490   0.887   2.716
   20CHTO    H3 8405   6.509   0.830   2.644
   20CHTO    C9 8406   6.545   0.711   0.018
   20CHTO   H22 8407   6.608   0.701   0.108
   20CHTO    N2 8408   6.593   0.602   2.795
   20CHTO   H10 8409   6.586   0.507   2.845
   20CHTO   H11 8410   6.534   0.601   2.704
   20CHTO    C7 8411   6.393   0.700   0.063
   20CHTO   H20 8412   6.398   0.637   0.155
   20CHTO    O4 8413   6.334   0.828   0.096
   20CHTO   C14 8414   6.419   0.921   0.165
   20CHTO   H27 8415   6.450   0.875   0.260
   20CHTO   C18 8416   6.333   1.045   0.201
   20CHTO   O13 8417   6.405   1.136   0.285
   20CHTO    H7 8418   6.351   1.210   0.304
   20CHTO    O2 8419   6.294   0.626   2.817
   20CHTO    C1 8420   6.192   0.545   0.012
   20CHTO   H14 8421   6.181   0.574   0.119
   20CHTO    C2 8422   6.221   0.390   0.005
   20CHTO   H15 8423   6.229   0.364   2.764
   20CHTO    O6 8424   6.346   0.365   0.071
   20CHTO    H1 8425   6.370   0.275   0.062
   20CHTO    C3 8426   6.101   0.310   0.074
   20CHTO   H16 8427   6.101   0.333   0.181
   20CHTO    N1 8428   6.117   0.161   0.061
   20CHTO    H8 8429   6.035   0.110   0.109
   20CHTO    H9 8430   6.210   0.130   0.107
   20CHTO    C4 8431   5.961   0.360   0.020
   20CHTO   H17 8432   5.947   0.322   2.784
   20CHTO    O1 8433   5.952   0.504   0.020
   20CHTO    C5 8434   6.054   0.571   2.811
   20CHTO   H18 8435   6.058   0.531   2.710
   20CHTO   C16 8436   6.019   0.722   2.803
   20CHTO   O11 8437   6.022   0.784   0.066
   20CHTO    H5 8438   5.952   0.750   0.120
   20CHTO    O3 8439   5.854   0.315   0.106
   20CHTO    C6 8440   5.720   0.317   0.045
   20CHTO   H19 8441   5.714   0.381   2.823
   20CHTO    C8 8442   5.679   0.172   0.003
   20CHTO   H21 8443   5.690   0.106   0.090
   20CHTO    O7 8444   5.769   0.129   2.765
   20CHTO    H2 8445   5.760   0.183   2.689
   20CHTO   C12 8446   5.528   0.168   2.821
   20CHTO   H25 8447   5.524   0.227   2.727
   20CHTO    N3 8448   5.484   0.029   2.789
   20CHTO   H12 8449   5.381   0.029   2.757
   20CHTO   H13 8450   5.546   9.988   2.711
   20CHTO   C15 8451   5.437   0.239   0.062
   20CHTO   H28 8452   5.429   0.180   0.154
   20CHTO   O10 8453   5.293   0.268   0.008
   20CHTO    H4 8454   5.298   0.318   2.795
   20CHTO    O5 8455   5.485   0.370   0.093
   20CHTO   C10 8456   5.618   0.372   0.148
   20CHTO   H23 8457   5.619   0.310   0.238
   20CHTO   C17 8458   5.651   0.516   0.191
   20CHTO   O12 8459   5.567   0.557   0.300
   20CHTO    H6 8460   5.590   0.644   0.325
   21GLOH   H03 8461   3.474   0.541   1.397
   21GLOH    O1 8462   3.504   0.485   1.475
   21GLOH    C1 8463   3.648   0.475   1.466
   21GLOH   H02 8464   3.691   0.574   1.451
   21GLOH   H08 8465   3.676   0.415   1.380
   21GLOH    C2 8466   3.712   0.411   1.591
   21GLOH   H04 8467   3.673   0.309   1.601
   21GLOH    O2 8468   3.855   0.406   1.577
   21GLOH   H05 8469   3.884   0.470   1.505
   21GLOH    C3 8470   3.674   0.489   1.718
   21GLOH   H06 8471   3.726   0.585   1.717
   21GLOH   H07 8472   3.709   0.433   1.804
   21GLOH    O3 8473   3.532   0.510   1.726
   21GLOH   H01 8474   3.500   0.507   1.632
   22GLOH   H03 8475   2.516   1.238   1.177
   22GLOH    O1 8476   2.559   1.157   1.217
   22GLOH    C1 8477   2.643   1.099   1.115
   22GLOH   H02 8478   2.686   1.177   1.052
   22GLOH   H08 8479   2.583   1.037   1.049
   22GLOH    C2 8480   2.760   1.013   1.170
   22GLOH   H04 8481   2.822   0.985   1.083
   22GLOH    O2 8482   2.843   1.087   1.262
   22GLOH   H05 8483   2.798   1.172   1.289
   22GLOH    C3 8484   2.711   0.882   1.234
   22GLOH   H06 8485   2.652   0.905   1.322
   22GLOH   H07 8486   2.799   0.828   1.271
   22GLOH    O3 8487   2.637   0.797   1.144
   22GLOH   H01 8488   2.562   0.756   1.195
   23GLOH   H03 8489   2.851   0.203   2.116
   23GLOH    O1 8490   2.865   0.160   2.204
   23GLOH    C1 8491   3.004   0.120   2.217
   23GLOH   H02 8492   3.070   0.199   2.180
   23GLOH   H08 8493   3.024   0.032   2.156
   23GLOH    C2 8494   3.043   0.090   2.363
   23GLOH   H04 8495   2.975   0.013   2.402
   23GLOH    O2 8496   3.178   0.040   2.368
   23GLOH   H05 8497   3.241   0.114   2.396
   23GLOH    C3 8498   3.026   0.218   2.447
   23GLOH   H06 8499   3.097   0.293   2.412
   23GLOH   H07 8500   3.050   0.196   2.551
   23GLOH    O3 8501   2.892   0.268   2.435
   23GLOH   H01 8502   2.858   0.234   2.349
   24GLOH   H03 8503   3.983   0.433   1.669
   24GLOH    O1 8504   4.063   0.475   1.711
   24GLOH    C1 8505   4.156   0.511   1.607
   24GLOH   H02 8506   4.148   0.442   1.522
   24GLOH   H08 8507   4.258   0.504   1.644
   24GLOH    C2 8508   4.134   0.654   1.555
   24GLOH   H04 8509   4.158   0.722   1.637
   24GLOH    O2 8510   4.220   0.685   1.443
   24GLOH   H05 8511   4.170   0.671   1.358
   24GLOH    C3 8512   3.986   0.676   1.518
   24GLOH   H06 8513   3.973   0.778   1.483
   24GLOH   H07 8514   3.926   0.667   1.608
   24GLOH    O3 8515   3.940   0.582   1.418
   24GLOH   H01 8516   3.974   0.609   1.330
   25GLOH   H03 8517   2.470   2.373   2.590
   25GLOH    O1 8518   2.446   2.427   2.667
   25GLOH    C1 8519   2.559   2.448   2.753
   25GLOH   H02 8520   2.644   2.487   2.696
   25GLOH   H08 8521   2.592   2.354   2.797
   25GLOH    C2 8522   2.527   2.547   0.000
   25GLOH   H04 8523   2.439   2.509   0.054
   25GLOH    O2 8524   2.637   2.558   0.093
   25GLOH   H05 8525   2.624   2.643   0.140
   25GLOH    C3 8526   2.492   2.685   2.807
   25GLOH   H06 8527   2.402   2.674   2.745
   25GLOH   H07 8528   2.572   2.716   2.741
   25GLOH    O3 8529   2.469   2.783   0.043
   25GLOH   H01 8530   2.533   2.857   0.028
   26GLOH   H03 8531   3.987   2.590   2.266
   26GLOH    O1 8532   4.000   2.641   2.183
   26GLOH    C1 8533   3.917   2.759   2.187
   26GLOH   H02 8534   3.933   2.817   2.096
   26GLOH   H08 8535   3.946   2.823   2.270
   26GLOH    C2 8536   3.767   2.727   2.199
   26GLOH   H04 8537   3.738   2.664   2.114
   26GLOH    O2 8538   3.737   2.654   2.320
   26GLOH   H05 8539   3.773   2.560   2.309
   26GLOH    C3 8540   3.684   2.856   2.192
   26GLOH   H06 8541   3.714   2.921   2.274
   26GLOH   H07 8542   3.579   2.831   2.209
   26GLOH    O3 8543   3.698   2.924   2.067
   26GLOH   H01 8544   3.615   2.979   2.054
   27GLOH   H03 8545   2.790   5.272   0.745
   27GLOH    O1 8546   2.809   5.229   0.657
   27GLOH    C1 8547   2.948   5.251   0.625
   27GLOH   H02 8548   3.008   5.245   0.716
   27GLOH   H08 8549   2.962   5.351   0.584
   27GLOH    C2 8550   3.002   5.148   0.524
   27GLOH   H04 8551   2.968   5.049   0.555
   27GLOH    O2 8552   2.950   5.176   0.392
   27GLOH   H05 8553   2.861   5.133   0.385
   27GLOH    C3 8554   3.156   5.149   0.526
   27GLOH   H06 8555   3.190   5.167   0.628
   27GLOH   H07 8556   3.190   5.234   0.466
   27GLOH    O3 8557   3.215   5.028   0.476
   27GLOH   H01 8558   3.309   5.025   0.505
   28GLOH   H03 8559   3.848   0.760   0.353
   28GLOH    O1 8560   3.842   0.738   0.448
   28GLOH    C1 8561   3.926   0.827   0.524
   28GLOH   H02 8562   3.966   0.906   0.460
   28GLOH   H08 8563   4.011   0.773   0.564
   28GLOH    C2 8564   3.853   0.891   0.643
   28GLOH   H04 8565   3.820   0.809   0.709
   28GLOH    O2 8566   3.942   0.974   0.720
   28GLOH   H05 8567   3.895   1.055   0.755
   28GLOH    C3 8568   3.726   0.966   0.598
   28GLOH   H06 8569   3.682   1.015   0.685
   28GLOH   H07 8570   3.653   0.892   0.564
   28GLOH    O3 8571   3.747   1.063   0.494
   28GLOH   H01 8572   3.840   1.098   0.495
   29GLOH   H03 8573   2.953   0.450   0.339
   29GLOH    O1 8574   3.012   0.457   0.417
   29GLOH    C1 8575   3.063   0.327   0.451
   29GLOH   H02 8576   3.045   0.255   0.371
   29GLOH   H08 8577   3.011   0.288   0.539
   29GLOH    C2 8578   3.213   0.328   0.482
   29GLOH   H04 8579   3.231   0.398   0.566
   29GLOH    O2 8580   3.257   0.196   0.519
   29GLOH   H05 8581   3.354   0.200   0.538
   29GLOH    C3 8582   3.290   0.380   0.358
   29GLOH   H06 8583   3.244   0.473   0.325
   29GLOH   H07 8584   3.277   0.308   0.277
   29GLOH    O3 8585   3.430   0.402   0.383
   29GLOH   H01 8586   3.463   0.334   0.448
   30GLOH   H03 8587   4.019   4.465   0.183
   30GLOH    O1 8588   4.111   4.435   0.161
   30GLOH    C1 8589   4.113   4.410   0.018
   30GLOH   H02 8590   4.097   4.304   2.865
   30GLOH   H08 8591   4.212   4.435   2.844
   30GLOH    C2 8592   4.007   4.492   2.808
   30GLOH   H04 8593   4.032   4.598   2.820
   30GLOH    O2 8594   4.009   4.460   2.667
   30GLOH   H05 8595   3.934   4.506   2.622
   30GLOH    C3 8596   3.868   4.468   0.004
   30GLOH   H06 8597   3.841   4.363   2.854
   30GLOH   H07 8598   3.795   4.528   2.817
   30GLOH    O3 8599   3.866   4.499   0.145
   30GLOH   H01 8600   3.774   4.489   0.180
   31GLOH   H03 8601   2.330   1.844   0.165
   31GLOH    O1 8602   2.280   1.767   0.202
   31GLOH    C1 8603   2.271   1.786   0.344
   31GLOH   H02 8604   2.356   1.738   0.394
   31GLOH   H08 8605   2.181   1.737   0.383
   31GLOH    C2 8606   2.267   1.934   0.384
   31GLOH   H04 8607   2.178   1.980   0.339
   31GLOH    O2 8608   2.260   1.949   0.528
   31GLOH   H05 8609   2.346   1.916   0.568
   31GLOH    C3 8610   2.391   2.007   0.328
   31GLOH   H06 8611   2.480   1.965   0.375
   31GLOH   H07 8612   2.386   2.112   0.358
   31GLOH    O3 8613   2.402   1.996   0.185
   31GLOH   H01 8614   2.474   2.054   0.153
   32GLOH   H03 8615   4.307   1.430   1.404
   32GLOH    O1 8616   4.392   1.466   1.441
   32GLOH    C1 8617   4.391   1.452   1.584
   32GLOH   H02 8618   4.477   1.393   1.616
   32GLOH   H08 8619   4.302   1.399   1.618
   32GLOH    C2 8620   4.397   1.588   1.656
   32GLOH   H04 8621   4.310   1.648   1.624
   32GLOH    O2 8622   4.393   1.570   1.799
   32GLOH   H05 8623   4.391   1.659   1.844
   32GLOH    C3 8624   4.525   1.663   1.613
   32GLOH   H06 8625   4.612   1.606   1.647
   32GLOH   H07 8626   4.528   1.759   1.664
   32GLOH    O3 8627   4.529   1.681   1.471
   32GLOH   H01 8628   4.486   1.600   1.433
   33GLOH   H03 8629   2.895   8.846   1.585
   33GLOH    O1 8630   2.863   8.875   1.495
   33GLOH    C1 8631   2.971   8.858   1.401
   33GLOH   H02 8632   2.936   8.879   1.300
   33GLOH   H08 8633   3.007   8.755   1.402
   33GLOH    C2 8634   3.088   8.953   1.433
   33GLOH   H04 8635   3.106   8.950   1.541
   33GLOH    O2 8636   3.208   8.912   1.364
   33GLOH   H05 8637   3.245   8.833   1.412
   33GLOH    C3 8638   3.049   9.097   1.395
   33GLOH   H06 8639   2.947   9.115   1.429
   33GLOH   H07 8640   3.048   9.105   1.286
   33GLOH    O3 8641   3.139   9.193   1.453
   33GLOH   H01 8642   3.232   9.159   1.441
   34GLOH   H03 8643   4.037   3.120   2.325
   34GLOH    O1 8644   4.011   3.197   2.270
   34GLOH    C1 8645   3.969   3.149   2.141
   34GLOH   H02 8646   3.923   3.230   2.084
   34GLOH   H08 8647   3.892   3.072   2.152
   34GLOH    C2 8648   4.084   3.091   2.057
   34GLOH   H04 8649   4.138   3.018   2.119
   34GLOH    O2 8650   4.034   3.024   1.939
   34GLOH   H05 8651   4.109   2.973   1.899
   34GLOH    C3 8652   4.183   3.203   2.020
   34GLOH   H06 8653   4.265   3.158   1.963
   34GLOH   H07 8654   4.227   3.242   2.111
   34GLOH    O3 8655   4.123   3.310   1.945
   34GLOH   H01 8656   4.111   3.277   1.851
   35GLOH   H03 8657   3.378   4.766   0.782
   35GLOH    O1 8658   3.420   4.787   0.694
   35GLOH    C1 8659   3.449   4.664   0.627
   35GLOH   H02 8660   3.493   4.683   0.529
   35GLOH   H08 8661   3.356   4.609   0.609
   35GLOH    C2 8662   3.544   4.573   0.708
   35GLOH   H04 8663   3.494   4.551   0.804
   35GLOH    O2 8664   3.568   4.448   0.640
   35GLOH   H05 8665   3.479   4.408   0.615
   35GLOH    C3 8666   3.675   4.648   0.741
   35GLOH   H06 8667   3.730   4.589   0.814
   35GLOH   H07 8668   3.650   4.742   0.790
   35GLOH    O3 8669   3.758   4.672   0.625
   35GLOH   H01 8670   3.811   4.589   0.612
   36GLOH   H03 8671   2.335   1.572   1.846
   36GLOH    O1 8672   2.344   1.511   1.768
   36GLOH    C1 8673   2.297   1.381   1.808
   36GLOH   H02 8674   2.326   1.361   1.911
   36GLOH   H08 8675   2.346   1.305   1.748
   36GLOH    C2 8676   2.145   1.364   1.796
   36GLOH   H04 8677   2.120   1.265   1.838
   36GLOH    O2 8678   2.074   1.463   1.873
   36GLOH   H05 8679   2.090   1.555   1.834
   36GLOH    C3 8680   2.100   1.362   1.648
   36GLOH   H06 8681   2.138   1.452   1.600
   36GLOH   H07 8682   1.991   1.368   1.645
   36GLOH    O3 8683   2.145   1.244   1.578
   36GLOH   H01 8684   2.087   1.167   1.601
   37GLOH   H03 8685   3.187   4.513   2.502
   37GLOH    O1 8686   3.246   4.579   2.461
   37GLOH    C1 8687   3.267   4.547   2.322
   37GLOH   H02 8688   3.175   4.562   2.265
   37GLOH   H08 8689   3.294   4.442   2.312
   37GLOH    C2 8690   3.377   4.634   2.260
   37GLOH   H04 8691   3.470   4.618   2.317
   37GLOH    O2 8692   3.398   4.593   2.123
   37GLOH   H05 8693   3.454   4.661   2.076
   37GLOH    C3 8694   3.338   4.782   2.269
   37GLOH   H06 8695   3.304   4.803   2.371
   37GLOH   H07 8696   3.253   4.800   2.204
   37GLOH    O3 8697   3.447   4.872   2.236
   37GLOH   H01 8698   3.487   4.842   2.150
   38GLOH   H03 8699   2.869   3.437   2.716
   38GLOH    O1 8700   2.923   3.393   2.646
   38GLOH    C1 8701   2.840   3.377   2.530
   38GLOH   H02 8702   2.823   3.473   2.482
   38GLOH   H08 8703   2.742   3.337   2.557
   38GLOH    C2 8704   2.904   3.284   2.425
   38GLOH   H04 8705   2.985   3.338   2.374
   38GLOH    O2 8706   2.959   3.168   2.491
   38GLOH   H05 8707   3.001   3.204   2.573
   38GLOH    C3 8708   2.799   3.243   2.321
   38GLOH   H06 8709   2.721   3.185   2.370
   38GLOH   H07 8710   2.847   3.177   2.249
   38GLOH    O3 8711   2.742   3.358   2.255
   38GLOH   H01 8712   2.815   3.406   2.209
   39GLOH   H03 8713   3.600   4.609   1.598
   39GLOH    O1 8714   3.698   4.606   1.584
   39GLOH    C1 8715   3.725   4.536   1.461
   39GLOH   H02 8716   3.660   4.572   1.381
   39GLOH   H08 8717   3.705   4.429   1.473
   39GLOH    C2 8718   3.872   4.551   1.415
   39GLOH   H04 8719   3.936   4.518   1.498
   39GLOH    O2 8720   3.900   4.468   1.300
   39GLOH   H05 8721   3.994   4.484   1.271
   39GLOH    C3 8722   3.904   4.699   1.387
   39GLOH   H06 8723   4.007   4.706   1.352
   39GLOH   H07 8724   3.901   4.752   1.483
   39GLOH    O3 8725   3.816   4.763   1.294
   39GLOH   H01 8726   3.792   4.701   1.220
   40GLOH   H03 8727   2.806   0.559   0.943
   40GLOH    O1 8728   2.830   0.544   0.847
   40GLOH    C1 8729   2.783   0.413   0.809
   40GLOH   H02 8730   2.691   0.389   0.862
   40GLOH   H08 8731   2.856   0.337   0.836
   40GLOH    C2 8732   2.757   0.404   0.657
   40GLOH   H04 8733   2.851   0.427   0.605
   40GLOH    O2 8734   2.711   0.273   0.616
   40GLOH   H05 8735   2.785   0.206   0.629
   40GLOH    C3 8736   2.653   0.511   0.616
   40GLOH   H06 8737   2.559   0.490   0.667
   40GLOH   H07 8738   2.635   0.502   0.509
   40GLOH    O3 8739   2.700   0.643   0.648
   40GLOH   H01 8740   2.756   0.634   0.729
   41GLOH   H03 8741   3.509   0.160   1.935
   41GLOH    O1 8742   3.465   0.199   2.015
   41GLOH    C1 8743   3.565   0.223   2.116
   41GLOH   H02 8744   3.589   0.329   2.121
   41GLOH   H08 8745   3.658   0.171   2.093
   41GLOH    C2 8746   3.516   0.177   2.255
   41GLOH   H04 8747   3.491   0.070   2.249
   41GLOH    O2 8748   3.618   0.197   2.355
   41GLOH   H05 8749   3.649   0.110   2.392
   41GLOH    C3 8750   3.388   0.255   2.293
   41GLOH   H06 8751   3.311   0.233   2.220
   41GLOH   H07 8752   3.409   0.362   2.286
   41GLOH    O3 8753   3.343   0.221   2.425
   41GLOH   H01 8754   3.421   0.232   2.484
   42GLOH   H03 8755   4.783   3.855   2.789
   42GLOH    O1 8756   4.707   3.855   2.728
   42GLOH    C1 8757   4.737   3.931   2.609
   42GLOH   H02 8758   4.818   3.884   2.553
   42GLOH   H08 8759   4.770   4.032   2.635
   42GLOH    C2 8760   4.613   3.943   2.518
   42GLOH   H04 8761   4.531   3.986   2.577
   42GLOH    O2 8762   4.640   4.027   2.404
   42GLOH   H05 8763   4.554   4.061   2.371
   42GLOH    C3 8764   4.570   3.803   2.471
   42GLOH   H06 8765   4.646   3.763   2.403
   42GLOH   H07 8766   4.479   3.816   2.413
   42GLOH    O3 8767   4.547   3.711   2.579
   42GLOH   H01 8768   4.597   3.747   2.656
   43GLOH   H03 8769   3.201   3.072   1.911
   43GLOH    O1 8770   3.204   3.156   1.858
   43GLOH    C1 8771   3.282   3.133   1.738
   43GLOH   H02 8772   3.310   3.028   1.729
   43GLOH   H08 8773   3.376   3.189   1.743
   43GLOH    C2 8774   3.207   3.175   1.610
   43GLOH   H04 8775   3.278   3.168   1.526
   43GLOH    O2 8776   3.094   3.089   1.583
   43GLOH   H05 8777   3.018   3.116   1.643
   43GLOH    C3 8778   3.162   3.322   1.622
   43GLOH   H06 8779   3.087   3.329   1.701
   43GLOH   H07 8780   3.113   3.351   1.530
   43GLOH    O3 8781   3.271   3.412   1.650
   43GLOH   H01 8782   3.278   3.419   1.749
   44GLOH   H03 8783   3.821   4.859   2.038
   44GLOH    O1 8784   3.805   4.956   2.031
   44GLOH    C1 8785   3.817   4.993   1.892
   44GLOH   H02 8786   3.762   4.923   1.829
   44GLOH   H08 8787   3.921   4.989   1.862
   44GLOH    C2 8788   3.765   5.136   1.863
   44GLOH   H04 8789   3.834   5.207   1.911
   44GLOH    O2 8790   3.760   5.162   1.722
   44GLOH   H05 8791   3.848   5.136   1.681
   44GLOH    C3 8792   3.626   5.155   1.925
   44GLOH   H06 8793   3.558   5.079   1.885
   44GLOH   H07 8794   3.587   5.252   1.893
   44GLOH    O3 8795   3.633   5.146   2.068
   44GLOH   H01 8796   3.695   5.071   2.085
   45GLOH   H03 8797   3.008   3.365   1.334
   45GLOH    O1 8798   2.913   3.377   1.363
   45GLOH    C1 8799   2.827   3.333   1.257
   45GLOH   H02 8800   2.723   3.336   1.289
   45GLOH   H08 8801   2.849   3.230   1.231
   45GLOH    C2 8802   2.842   3.421   1.131
   45GLOH   H04 8803   2.947   3.420   1.100
   45GLOH    O2 8804   2.761   3.365   1.025
   45GLOH   H05 8805   2.779   3.266   1.018
   45GLOH    C3 8806   2.801   3.566   1.162
   45GLOH   H06 8807   2.861   3.601   1.246
   45GLOH   H07 8808   2.697   3.567   1.195
   45GLOH    O3 8809   2.818   3.656   1.051
   45GLOH   H01 8810   2.757   3.627   0.978
   46GLOH   H03 8811   2.959   9.448   0.209
   46GLOH    O1 8812   2.870   9.407   0.191
   46GLOH    C1 8813   2.892   9.284   0.118
   46GLOH   H02 8814   2.978   9.230   0.160
   46GLOH   H08 8815   2.918   9.306   0.015
   46GLOH    C2 8816   2.771   9.188   0.118
   46GLOH   H04 8817   2.804   9.095   0.068
   46GLOH    O2 8818   2.729   9.154   0.251
   46GLOH   H05 8819   2.810   9.114   0.298
   46GLOH    C3 8820   2.654   9.245   0.036
   46GLOH   H06 8821   2.626   9.341   0.079
   46GLOH   H07 8822   2.568   9.179   0.048
   46GLOH    O3 8823   2.687   9.260   2.763
   46GLOH   H01 8824   2.708   9.174   2.723
   47GLOH   H03 8825   3.694   9.105   0.839
   47GLOH    O1 8826   3.775   9.048   0.851
   47GLOH    C1 8827   3.761   8.976   0.975
   47GLOH   H02 8828   3.656   8.957   0.997
   47GLOH   H08 8829   3.800   9.037   1.057
   47GLOH    C2 8830   3.836   8.842   0.976
   47GLOH   H04 8831   3.944   8.864   0.967
   47GLOH    O2 8832   3.814   8.775   1.102
   47GLOH   H05 8833   3.775   8.683   1.086
   47GLOH    C3 8834   3.796   8.754   0.856
   47GLOH   H06 8835   3.867   8.672   0.849
   47GLOH   H07 8836   3.807   8.812   0.765
   47GLOH    O3 8837   3.661   8.702   0.864
   47GLOH   H01 8838   3.658   8.640   0.940
   48GLOH   H03 8839   3.543   9.261   2.413
   48GLOH    O1 8840   3.568   9.169   2.384
   48GLOH    C1 8841   3.608   9.166   2.245
   48GLOH   H02 8842   3.689   9.095   2.231
   48GLOH   H08 8843   3.645   9.264   2.213
   48GLOH    C2 8844   3.494   9.123   2.150
   48GLOH   H04 8845   3.412   9.197   2.157
   48GLOH    O2 8846   3.542   9.116   2.014
   48GLOH   H05 8847   3.537   9.205   1.969
   48GLOH    C3 8848   3.439   8.986   2.194
   48GLOH   H06 8849   3.515   8.910   2.174
   48GLOH   H07 8850   3.352   8.962   2.132
   48GLOH    O3 8851   3.402   8.985   2.332
   48GLOH   H01 8852   3.463   9.050   2.376
   49GLOH   H03 8853   4.780   2.583   2.677
   49GLOH    O1 8854   4.776   2.522   2.753
   49GLOH    C1 8855   4.712   2.398   2.716
   49GLOH   H02 8856   4.781   2.333   2.663
   49GLOH   H08 8857   4.628   2.417   2.649
   49GLOH    C2 8858   4.659   2.323   2.840
   49GLOH   H04 8859   4.586   2.389   0.024
   49GLOH    O2 8860   4.593   2.199   2.807
   49GLOH   H05 8861   4.567   2.198   2.712
   49GLOH    C3 8862   4.774   2.298   0.074
   49GLOH   H06 8863   4.851   2.238   0.024
   49GLOH   H07 8864   4.737   2.240   0.158
   49GLOH    O3 8865   4.830   2.423   0.118
   49GLOH   H01 8866   4.823   2.484   0.041
   50GLOH   H03 8867   3.177   5.101   1.724
   50GLOH    O1 8868   3.156   5.060   1.637
   50GLOH    C1 8869   3.266   4.976   1.596
   50GLOH   H02 8870   3.264   4.881   1.650
   50GLOH   H08 8871   3.360   5.024   1.622
   50GLOH    C2 8872   3.265   4.947   1.444
   50GLOH   H04 8873   3.286   5.042   1.392
   50GLOH    O2 8874   3.369   4.852   1.412
   50GLOH   H05 8875   3.457   4.889   1.441
   50GLOH    C3 8876   3.129   4.894   1.395
   50GLOH   H06 8877   3.124   4.786   1.414
   50GLOH   H07 8878   3.125   4.906   1.287
   50GLOH    O3 8879   3.019   4.962   1.457
   50GLOH   H01 8880   3.061   5.006   1.536
   51GLOH   H03 8881   3.196   0.775   2.604
   51GLOH    O1 8882   3.191   0.721   2.523
   51GLOH    C1 8883   3.195   0.806   2.407
   51GLOH   H02 8884   3.276   0.878   2.415
   51GLOH   H08 8885   3.103   0.863   2.398
   51GLOH    C2 8886   3.214   0.724   2.277
   51GLOH   H04 8887   3.230   0.795   2.195
   51GLOH    O2 8888   3.330   0.639   2.290
   51GLOH   H05 8889   3.327   0.602   2.381
   51GLOH    C3 8890   3.088   0.641   2.246
   51GLOH   H06 8891   3.069   0.575   2.331
   51GLOH   H07 8892   3.110   0.577   2.161
   51GLOH    O3 8893   2.972   0.722   2.218
   51GLOH   H01 8894   2.899   0.660   2.192
   52GLOH   H03 8895   4.604   3.154   0.344
   52GLOH    O1 8896   4.690   3.124   0.384
   52GLOH    C1 8897   4.769   3.239   0.418
   52GLOH   H02 8898   4.792   3.297   0.329
   52GLOH   H08 8899   4.865   3.206   0.459
   52GLOH    C2 8900   4.704   3.333   0.521
   52GLOH   H04 8901   4.774   3.415   0.543
   52GLOH    O2 8902   4.580   3.389   0.470
   52GLOH   H05 8903   4.595   3.482   0.432
   52GLOH    C3 8904   4.675   3.257   0.652
   52GLOH   H06 8905   4.596   3.185   0.631
   52GLOH   H07 8906   4.635   3.328   0.724
   52GLOH    O3 8907   4.789   3.191   0.707
   52GLOH   H01 8908   4.763   3.095   0.715
   53GLOH   H03 8909   3.632   1.881   1.988
   53GLOH    O1 8910   3.551   1.827   2.007
   53GLOH    C1 8911   3.581   1.687   1.996
   53GLOH   H02 8912   3.533   1.632   2.077
   53GLOH   H08 8913   3.688   1.670   2.007
   53GLOH    C2 8914   3.536   1.626   1.862
   53GLOH   H04 8915   3.440   1.671   1.834
   53GLOH    O2 8916   3.631   1.651   1.756
   53GLOH   H05 8917   3.607   1.738   1.711
   53GLOH    C3 8918   3.512   1.475   1.881
   53GLOH   H06 8919   3.604   1.429   1.917
   53GLOH   H07 8920   3.491   1.430   1.784
   53GLOH    O3 8921   3.404   1.450   1.972
   53GLOH   H01 8922   3.325   1.504   1.946
   54GLOH   H03 8923   4.178   1.723   2.462
   54GLOH    O1 8924   4.214   1.701   2.372
   54GLOH    C1 8925   4.256   1.824   2.309
   54GLOH   H02 8926   4.195   1.907   2.346
   54GLOH   H08 8927   4.239   1.819   2.202
   54GLOH    C2 8928   4.404   1.860   2.334
   54GLOH   H04 8929   4.427   1.948   2.272
   54GLOH    O2 8930   4.428   1.893   2.472
   54GLOH   H05 8931   4.410   1.814   2.531
   54GLOH    C3 8932   4.496   1.745   2.288
   54GLOH   H06 8933   4.490   1.664   2.361
   54GLOH   H07 8934   4.599   1.782   2.289
   54GLOH    O3 8935   4.462   1.697   2.156
   54GLOH   H01 8936   4.415   1.611   2.172
   55GLOH   H03 8937   2.750   9.158   2.286
   55GLOH    O1 8938   2.722   9.072   2.326
   55GLOH    C1 8939   2.580   9.078   2.347
   55GLOH   H02 8940   2.535   9.156   2.285
   55GLOH   H08 8941   2.558   9.103   2.451
   55GLOH    C2 8942   2.511   8.944   2.314
   55GLOH   H04 8943   2.550   8.867   2.383
   55GLOH    O2 8944   2.368   8.955   2.330
   55GLOH   H05 8945   2.345   8.958   2.425
   55GLOH    C3 8946   2.545   8.901   2.170
   55GLOH   H06 8947   2.506   8.976   2.101
   55GLOH   H07 8948   2.493   8.808   2.148
   55GLOH    O3 8949   2.687   8.886   2.153
   55GLOH   H01 8950   2.728   8.936   2.228
   56GLOH   H03 8951   3.694   1.786   0.475
   56GLOH    O1 8952   3.755   1.715   0.445
   56GLOH    C1 8953   3.753   1.602   0.535
   56GLOH   H02 8954   3.819   1.621   0.619
   56GLOH   H08 8955   3.793   1.514   0.484
   56GLOH    C2 8956   3.615   1.564   0.590
   56GLOH   H04 8957   3.625   1.470   0.647
   56GLOH    O2 8958   3.565   1.667   0.679
   56GLOH   H05 8959   3.477   1.639   0.717
   56GLOH    C3 8960   3.515   1.538   0.475
   56GLOH   H06 8961   3.497   1.632   0.423
   56GLOH   H07 8962   3.420   1.507   0.519
   56GLOH    O3 8963   3.561   1.438   0.383
   56GLOH   H01 8964   3.548   1.347   0.420
   57GLOH   H03 8965   3.342   4.368   0.460
   57GLOH    O1 8966   3.348   4.357   0.558
   57GLOH    C1 8967   3.216   4.370   0.614
   57GLOH   H02 8968   3.147   4.300   0.567
   57GLOH   H08 8969   3.177   4.470   0.596
   57GLOH    C2 8970   3.215   4.344   0.766
   57GLOH   H04 8971   3.293   4.406   0.813
   57GLOH    O2 8972   3.086   4.381   0.821
   57GLOH   H05 8973   3.099   4.456   0.886
   57GLOH    C3 8974   3.243   4.196   0.798
   57GLOH   H06 8975   3.173   4.135   0.740
   57GLOH   H07 8976   3.219   4.179   0.903
   57GLOH    O3 8977   3.378   4.154   0.771
   57GLOH   H01 8978   3.397   4.154   0.674
   58GLOH   H03 8979   4.017   2.173   2.207
   58GLOH    O1 8980   4.009   2.118   2.125
   58GLOH    C1 8981   3.945   1.995   2.164
   58GLOH   H02 8982   3.840   2.014   2.189
   58GLOH   H08 8983   3.992   1.956   2.254
   58GLOH    C2 8984   3.950   1.886   2.056
   58GLOH   H04 8985   4.056   1.870   2.030
   58GLOH    O2 8986   3.896   1.763   2.107
   58GLOH   H05 8987   3.924   1.688   2.045
   58GLOH    C3 8988   3.877   1.931   1.927
   58GLOH   H06 8989   3.876   1.847   1.858
   58GLOH   H07 8990   3.936   2.009   1.880
   58GLOH    O3 8991   3.743   1.977   1.951
   58GLOH   H01 8992   3.712   2.032   1.874
   59GLOH   H03 8993   3.298   0.840   1.549
   59GLOH    O1 8994   3.282   0.800   1.639
   59GLOH    C1 8995   3.348   0.882   1.738
   59GLOH   H02 8996   3.321   0.987   1.724
   59GLOH   H08 8997   3.456   0.876   1.726
   59GLOH    C2 8998   3.312   0.843   1.883
   59GLOH   H04 8999   3.364   0.912   1.951
   59GLOH    O2 9000   3.170   0.854   1.905
   59GLOH   H05 9001   3.127   0.787   1.844
   59GLOH    C3 9002   3.362   0.700   1.913
   59GLOH   H06 9003   3.312   0.632   1.845
   59GLOH   H07 9004   3.330   0.673   2.014
   59GLOH    O3 9005   3.504   0.686   1.900
   59GLOH   H01 9006   3.518   0.609   1.838
   60GLOH   H03 9007   3.538   2.376   2.459
   60GLOH    O1 9008   3.531   2.291   2.506
   60GLOH    C1 9009   3.575   2.309   2.642
   60GLOH   H02 9010   3.550   2.222   2.702
   60GLOH   H08 9011   3.525   2.395   2.687
   60GLOH    C2 9012   3.727   2.332   2.650
   60GLOH   H04 9013   3.752   2.418   2.587
   60GLOH    O2 9014   3.768   2.362   2.786
   60GLOH   H05 9015   3.733   2.296   2.849
   60GLOH    C3 9016   3.804   2.210   2.596
   60GLOH   H06 9017   3.772   2.190   2.494
   60GLOH   H07 9018   3.778   2.122   2.656
   60GLOH    O3 9019   3.946   2.234   2.601
   60GLOH   H01 9020   3.962   2.280   2.686
   61GLOH   H03 9021   2.902   3.022   2.494
   61GLOH    O1 9022   2.866   2.932   2.513
   61GLOH    C1 9023   2.803   2.932   2.642
   61GLOH   H02 9024   2.876   2.955   2.720
   61GLOH   H08 9025   2.764   2.833   2.665
   61GLOH    C2 9026   2.687   3.033   2.653
   61GLOH   H04 9027   2.721   3.124   2.603
   61GLOH    O2 9028   2.567   2.990   2.584
   61GLOH   H05 9029   2.577   2.896   2.552
   61GLOH    C3 9030   2.660   3.073   2.799
   61GLOH   H06 9031   2.569   3.133   2.802
   61GLOH   H07 9032   2.741   3.140   2.831
   61GLOH    O3 9033   2.649   2.963   0.026
   61GLOH   H01 9034   2.670   2.996   0.116
   62GLOH   H03 9035   3.758   0.935   1.696
   62GLOH    O1 9036   3.748   0.999   1.622
   62GLOH    C1 9037   3.871   1.068   1.595
   62GLOH   H02 9038   3.867   1.116   1.497
   62GLOH   H08 9039   3.954   0.997   1.591
   62GLOH    C2 9040   3.904   1.177   1.699
   62GLOH   H04 9041   3.813   1.237   1.714
   62GLOH    O2 9042   3.944   1.122   1.826
   62GLOH   H05 9043   3.876   1.150   1.895
   62GLOH    C3 9044   4.013   1.271   1.644
   62GLOH   H06 9045   4.093   1.211   1.600
   62GLOH   H07 9046   4.057   1.327   1.727
   62GLOH    O3 9047   3.960   1.363   1.546
   62GLOH   H01 9048   3.924   1.440   1.598
   63GLOH   H03 9049   4.747   2.841   2.324
   63GLOH    O1 9050   4.685   2.803   2.260
   63GLOH    C1 9051   4.706   2.863   2.130
   63GLOH   H02 9052   4.659   2.802   2.053
   63GLOH   H08 9053   4.813   2.866   2.107
   63GLOH    C2 9054   4.650   3.006   2.122
   63GLOH   H04 9055   4.700   3.068   2.197
   63GLOH    O2 9056   4.676   3.060   1.990
   63GLOH   H05 9057   4.623   3.144   1.980
   63GLOH    C3 9058   4.499   3.006   2.152
   63GLOH   H06 9059   4.482   2.952   2.246
   63GLOH   H07 9060   4.447   2.949   2.074
   63GLOH    O3 9061   4.444   3.138   2.162
   63GLOH   H01 9062   4.467   3.190   2.081
   64GLOH   H03 9063   4.591   4.226   1.304
   64GLOH    O1 9064   4.661   4.207   1.236
   64GLOH    C1 9065   4.783   4.275   1.271
   64GLOH   H02 9066   4.834   4.223   1.352
   64GLOH   H08 9067   4.761   4.376   1.307
   64GLOH    C2 9068   4.880   4.288   1.152
   64GLOH   H04 9069   4.834   4.352   1.076
   64GLOH    O2 9070   5.004   4.347   1.196
   64GLOH   H05 9071   5.038   4.409   1.127
   64GLOH    C3 9072   4.906   4.150   1.088
   64GLOH   H06 9073   4.960   4.087   1.158
   64GLOH   H07 9074   4.971   4.164   1.001
   64GLOH    O3 9075   4.782   4.089   1.049
   64GLOH   H01 9076   4.716   4.117   1.117
   65GLOH   H03 9077   2.959   0.105   0.710
   65GLOH    O1 9078   2.888   0.088   0.642
   65GLOH    C1 9079   2.817   9.968   0.677
   65GLOH   H02 9080   2.710   9.980   0.659
   65GLOH   H08 9081   2.828   9.947   0.784
   65GLOH    C2 9082   2.866   9.843   0.600
   65GLOH   H04 9083   2.973   9.828   0.620
   65GLOH    O2 9084   2.792   9.727   0.642
   65GLOH   H05 9085   2.844   9.644   0.624
   65GLOH    C3 9086   2.848   9.866   0.448
   65GLOH   H06 9087   2.741   9.869   0.426
   65GLOH   H07 9088   2.889   9.780   0.395
   65GLOH    O3 9089   2.912   9.987   0.406
   65GLOH   H01 9090   2.918   0.043   0.487
   66GLOH   H03 9091   3.155   0.732   1.676
   66GLOH    O1 9092   3.077   0.698   1.728
   66GLOH    C1 9093   2.958   0.764   1.682
   66GLOH   H02 9094   2.932   0.733   1.581
   66GLOH   H08 9095   2.974   0.872   1.680
   66GLOH    C2 9096   2.837   0.735   1.774
   66GLOH   H04 9097   2.751   0.792   1.735
   66GLOH    O2 9098   2.805   0.595   1.774
   66GLOH   H05 9099   2.721   0.582   1.828
   66GLOH    C3 9100   2.865   0.781   1.918
   66GLOH   H06 9101   2.938   0.713   1.962
   66GLOH   H07 9102   2.773   0.770   1.976
   66GLOH    O3 9103   2.911   0.916   1.926
   66GLOH   H01 9104   3.009   0.912   1.939
   67GLOH   H03 9105   2.720   0.670   1.110
   67GLOH    O1 9106   2.765   0.586   1.082
   67GLOH    C1 9107   2.780   0.500   1.197
   67GLOH   H02 9108   2.689   0.443   1.212
   67GLOH   H08 9109   2.796   0.559   1.287
   67GLOH    C2 9110   2.897   0.401   1.182
   67GLOH   H04 9111   2.888   0.354   1.083
   67GLOH    O2 9112   3.025   0.469   1.187
   67GLOH   H05 9113   3.098   0.400   1.192
   67GLOH    C3 9114   2.886   0.290   1.287
   67GLOH   H06 9115   2.972   0.224   1.278
   67GLOH   H07 9116   2.799   0.230   1.262
   67GLOH    O3 9117   2.874   0.339   1.422
   67GLOH   H01 9118   2.956   0.388   1.448
   68GLOH   H03 9119   3.688   0.453   1.165
   68GLOH    O1 9120   3.757   0.524   1.166
   68GLOH    C1 9121   3.714   0.632   1.081
   68GLOH   H02 9122   3.785   0.714   1.085
   68GLOH   H08 9123   3.619   0.672   1.115
   68GLOH    C2 9124   3.698   0.589   0.934
   68GLOH   H04 9125   3.626   0.506   0.930
   68GLOH    O2 9126   3.649   0.700   0.856
   68GLOH   H05 9127   3.644   0.671   0.760
   68GLOH    C3 9128   3.834   0.539   0.881
   68GLOH   H06 9129   3.880   0.474   0.955
   68GLOH   H07 9130   3.899   0.626   0.871
   68GLOH    O3 9131   3.824   0.470   0.754
   68GLOH   H01 9132   3.766   0.524   0.694
   69GLOH   H03 9133   2.946   5.529   1.622
   69GLOH    O1 9134   3.028   5.513   1.569
   69GLOH    C1 9135   3.117   5.438   1.654
   69GLOH   H02 9136   3.071   5.343   1.681
   69GLOH   H08 9137   3.135   5.492   1.747
   69GLOH    C2 9138   3.253   5.412   1.588
   69GLOH   H04 9139   3.301   5.509   1.573
   69GLOH    O2 9140   3.338   5.331   1.673
   69GLOH   H05 9141   3.281   5.284   1.741
   69GLOH    C3 9142   3.234   5.346   1.450
   69GLOH   H06 9143   3.187   5.249   1.463
   69GLOH   H07 9144   3.332   5.329   1.406
   69GLOH    O3 9145   3.155   5.430   1.364
   69GLOH   H01 9146   3.095   5.480   1.426
   70GLOH   H03 9147   3.644   9.865   0.580
   70GLOH    O1 9148   3.630   9.813   0.497
   70GLOH    C1 9149   3.696   9.686   0.509
   70GLOH   H02 9150   3.769   9.689   0.590
   70GLOH   H08 9151   3.751   9.665   0.418
   70GLOH    C2 9152   3.600   9.568   0.534
   70GLOH   H04 9153   3.532   9.596   0.615
   70GLOH    O2 9154   3.522   9.535   0.417
   70GLOH   H05 9155   3.442   9.594   0.412
   70GLOH    C3 9156   3.680   9.445   0.582
   70GLOH   H06 9157   3.759   9.425   0.509
   70GLOH   H07 9158   3.615   9.358   0.582
   70GLOH    O3 9159   3.736   9.466   0.713
   70GLOH   H01 9160   3.804   9.395   0.733
   71GLOH   H03 9161   4.413   1.758   2.024
   71GLOH    O1 9162   4.372   1.788   1.938
   71GLOH    C1 9163   4.430   1.914   1.899
   71GLOH   H02 9164   4.519   1.898   1.838
   71GLOH   H08 9165   4.462   1.969   1.988
   71GLOH    C2 9166   4.333   2.006   1.822
   71GLOH   H04 9167   4.261   2.046   1.894
   71GLOH    O2 9168   4.405   2.117   1.763
   71GLOH   H05 9169   4.339   2.192   1.749
   71GLOH    C3 9170   4.254   1.929   1.715
   71GLOH   H06 9171   4.325   1.885   1.643
   71GLOH   H07 9172   4.192   2.000   1.659
   71GLOH    O3 9173   4.173   1.828   1.775
   71GLOH   H01 9174   4.226   1.792   1.851
   72GLOH   H03 9175   3.468   9.396   2.583
   72GLOH    O1 9176   3.490   9.388   2.487
   72GLOH    C1 9177   3.379   9.439   2.410
   72GLOH   H02 9178   3.323   9.513   2.467
   72GLOH   H08 9179   3.310   9.358   2.386
   72GLOH    C2 9180   3.426   9.503   2.278
   72GLOH   H04 9181   3.476   9.425   2.219
   72GLOH    O2 9182   3.314   9.553   2.202
   72GLOH   H05 9183   3.283   9.640   2.240
   72GLOH    C3 9184   3.528   9.615   2.304
   72GLOH   H06 9185   3.553   9.660   2.208
   72GLOH   H07 9186   3.619   9.570   2.343
   72GLOH    O3 9187   3.479   9.716   2.394
   72GLOH   H01 9188   3.520   9.699   2.483
   73GLOH   H03 9189   3.933   8.752   1.449
   73GLOH    O1 9190   3.919   8.696   1.529
   73GLOH    C1 9191   3.894   8.782   1.642
   73GLOH   H02 9192   3.979   8.847   1.659
   73GLOH   H08 9193   3.882   8.722   1.733
   73GLOH    C2 9194   3.767   8.869   1.625
   73GLOH   H04 9195   3.754   8.928   1.717
   73GLOH    O2 9196   3.780   8.961   1.514
   73GLOH   H05 9197   3.834   8.917   1.442
   73GLOH    C3 9198   3.644   8.780   1.609
   73GLOH   H06 9199   3.659   8.716   1.522
   73GLOH   H07 9200   3.557   8.842   1.587
   73GLOH    O3 9201   3.620   8.700   1.726
   73GLOH   H01 9202   3.604   8.763   1.801
   74GLOH   H03 9203   4.541   1.741   0.709
   74GLOH    O1 9204   4.447   1.766   0.728
   74GLOH    C1 9205   4.426   1.762   0.871
   74GLOH   H02 9206   4.462   1.854   0.916
   74GLOH   H08 9207   4.484   1.681   0.915
   74GLOH    C2 9208   4.278   1.743   0.913
   74GLOH   H04 9209   4.278   1.693   1.012
   74GLOH    O2 9210   4.210   1.870   0.925
   74GLOH   H05 9211   4.215   1.917   0.836
   74GLOH    C3 9212   4.204   1.651   0.814
   74GLOH   H06 9213   4.260   1.558   0.804
   74GLOH   H07 9214   4.205   1.698   0.716
   74GLOH    O3 9215   4.069   1.622   0.853
   74GLOH   H01 9216   4.014   1.700   0.823
   75GLOH   H03 9217   3.130   1.357   2.367
   75GLOH    O1 9218   3.119   1.417   2.290
   75GLOH    C1 9219   3.251   1.470   2.266
   75GLOH   H02 9220   3.247   1.554   2.196
   75GLOH   H08 9221   3.313   1.394   2.219
   75GLOH    C2 9222   3.324   1.516   2.394
   75GLOH   H04 9223   3.432   1.502   2.379
   75GLOH    O2 9224   3.298   1.655   2.425
   75GLOH   H05 9225   3.254   1.702   2.348
   75GLOH    C3 9226   3.280   1.430   2.514
   75GLOH   H06 9227   3.188   1.473   2.556
   75GLOH   H07 9228   3.356   1.438   2.592
   75GLOH    O3 9229   3.257   1.291   2.480
   75GLOH   H01 9230   3.331   1.234   2.512
   76GLOH   H03 9231   4.669   3.547   0.830
   76GLOH    O1 9232   4.760   3.577   0.807
   76GLOH    C1 9233   4.821   3.632   0.926
   76GLOH   H02 9234   4.927   3.607   0.929
   76GLOH   H08 9235   4.776   3.589   1.016
   76GLOH    C2 9236   4.806   3.785   0.932
   76GLOH   H04 9237   4.699   3.810   0.924
   76GLOH    O2 9238   4.857   3.839   1.055
   76GLOH   H05 9239   4.831   3.936   1.057
   76GLOH    C3 9240   4.878   3.848   0.812
   76GLOH   H06 9241   4.986   3.831   0.822
   76GLOH   H07 9242   4.862   3.956   0.812
   76GLOH    O3 9243   4.830   3.790   0.690
   76GLOH   H01 9244   4.807   3.696   0.715
   77GLOH   H03 9245   3.481   8.951   1.145
   77GLOH    O1 9246   3.420   9.009   1.092
   77GLOH    C1 9247   3.312   8.927   1.044
   77GLOH   H02 9248   3.225   8.990   1.021
   77GLOH   H08 9249   3.279   8.858   1.122
   77GLOH    C2 9250   3.348   8.843   0.920
   77GLOH   H04 9251   3.421   8.768   0.953
   77GLOH    O2 9252   3.233   8.773   0.869
   77GLOH   H05 9253   3.231   8.777   0.769
   77GLOH    C3 9254   3.416   8.927   0.810
   77GLOH   H06 9255   3.427   8.865   0.721
   77GLOH   H07 9256   3.517   8.948   0.843
   77GLOH    O3 9257   3.347   9.050   0.777
   77GLOH   H01 9258   3.251   9.038   0.797
   78GLOH   H03 9259   4.240   3.520   2.214
   78GLOH    O1 9260   4.319   3.579   2.201
   78GLOH    C1 9261   4.382   3.589   2.330
   78GLOH   H02 9262   4.332   3.663   2.392
   78GLOH   H08 9263   4.486   3.621   2.317
   78GLOH    C2 9264   4.384   3.455   2.406
   78GLOH   H04 9265   4.443   3.383   2.348
   78GLOH    O2 9266   4.443   3.472   2.537
   78GLOH   H05 9267   4.482   3.563   2.548
   78GLOH    C3 9268   4.241   3.400   2.420
   78GLOH   H06 9269   4.187   3.460   2.494
   78GLOH   H07 9270   4.247   3.299   2.460
   78GLOH    O3 9271   4.168   3.399   2.295
   78GLOH   H01 9272   4.110   3.319   2.289
   79GLOH   H03 9273   2.438   3.586   2.668
   79GLOH    O1 9274   2.498   3.553   2.737
   79GLOH    C1 9275   2.526   3.656   2.834
   79GLOH   H02 9276   2.532   3.613   0.068
   79GLOH   H08 9277   2.445   3.730   2.836
   79GLOH    C2 9278   2.658   3.731   2.804
   79GLOH   H04 9279   2.636   3.807   2.728
   79GLOH    O2 9280   2.705   3.799   0.056
   79GLOH   H05 9281   2.756   3.739   0.113
   79GLOH    C3 9282   2.765   3.637   2.744
   79GLOH   H06 9283   2.864   3.676   2.767
   79GLOH   H07 9284   2.754   3.638   2.636
   79GLOH    O3 9285   2.751   3.503   2.794
   79GLOH   H01 9286   2.654   3.483   2.786
   80GLOH   H03 9287   2.638   9.476   0.526
   80GLOH    O1 9288   2.560   9.502   0.581
   80GLOH    C1 9289   2.493   9.609   0.511
   80GLOH   H02 9290   2.544   9.704   0.528
   80GLOH   H08 9291   2.391   9.620   0.549
   80GLOH    C2 9292   2.486   9.581   0.360
   80GLOH   H04 9293   2.437   9.484   0.344
   80GLOH    O2 9294   2.410   9.684   0.293
   80GLOH   H05 9295   2.387   9.654   0.202
   80GLOH    C3 9296   2.629   9.574   0.303
   80GLOH   H06 9297   2.674   9.673   0.311
   80GLOH   H07 9298   2.622   9.551   0.196
   80GLOH    O3 9299   2.712   9.476   0.369
   80GLOH   H01 9300   2.769   9.436   0.298
   81GLOH   H03 9301   4.930   3.093   1.419
   81GLOH    O1 9302   4.896   3.027   1.352
   81GLOH    C1 9303   4.981   2.911   1.362
   81GLOH   H02 9304   5.063   2.930   1.432
   81GLOH   H08 9305   5.028   2.892   1.266
   81GLOH    C2 9306   4.911   2.781   1.407
   81GLOH   H04 9307   4.986   2.701   1.407
   81GLOH    O2 9308   4.854   2.791   1.540
   81GLOH   H05 9309   4.919   2.838   1.601
   81GLOH    C3 9310   4.799   2.742   1.309
   81GLOH   H06 9311   4.719   2.815   1.317
   81GLOH   H07 9312   4.759   2.646   1.341
   81GLOH    O3 9313   4.846   2.733   1.172
   81GLOH   H01 9314   4.843   2.824   1.135
   82GLOH   H03 9315   2.962   9.990   0.261
   82GLOH    O1 9316   2.991   9.998   0.166
   82GLOH    C1 9317   3.090   9.896   0.139
   82GLOH   H02 9318   3.066   9.846   0.045
   82GLOH   H08 9319   3.090   9.819   0.216
   82GLOH    C2 9320   3.232   9.955   0.128
   82GLOH   H04 9321   3.256   0.003   0.224
   82GLOH    O2 9322   3.328   9.850   0.103
   82GLOH   H05 9323   3.397   9.851   0.175
   82GLOH    C3 9324   3.237   0.061   0.017
   82GLOH   H06 9325   3.220   0.012   2.787
   82GLOH   H07 9326   3.337   0.104   0.014
   82GLOH    O3 9327   3.139   0.163   0.040
   82GLOH   H01 9328   3.062   0.116   0.081
   83GLOH   H03 9329   4.163   3.018   0.935
   83GLOH    O1 9330   4.221   3.087   0.979
   83GLOH    C1 9331   4.248   3.047   1.115
   83GLOH   H02 9332   4.155   3.023   1.167
   83GLOH   H08 9333   4.293   3.130   1.170
   83GLOH    C2 9334   4.342   2.926   1.127
   83GLOH   H04 9335   4.362   2.911   1.234
   83GLOH    O2 9336   4.277   2.808   1.075
   83GLOH   H05 9337   4.291   2.804   0.976
   83GLOH    C3 9338   4.476   2.956   1.058
   83GLOH   H06 9339   4.511   3.054   1.091
   83GLOH   H07 9340   4.458   2.964   0.951
   83GLOH    O3 9341   4.578   2.857   1.082
   83GLOH   H01 9342   4.664   2.906   1.092
   84GLOH   H03 9343   3.414   1.770   2.457
   84GLOH    O1 9344   3.493   1.827   2.443
   84GLOH    C1 9345   3.565   1.775   2.329
   84GLOH   H02 9346   3.598   1.857   2.265
   84GLOH   H08 9347   3.501   1.711   2.269
   84GLOH    C2 9348   3.689   1.695   2.374
   84GLOH   H04 9349   3.658   1.622   2.450
   84GLOH    O2 9350   3.749   1.625   2.263
   84GLOH   H05 9351   3.802   1.689   2.206
   84GLOH    C3 9352   3.790   1.791   2.439
   84GLOH   H06 9353   3.830   1.857   2.362
   84GLOH   H07 9354   3.874   1.733   2.478
   84GLOH    O3 9355   3.729   1.869   2.543
   84GLOH   H01 9356   3.632   1.870   2.523
   85GLOH   H03 9357   4.091   1.848   2.648
   85GLOH    O1 9358   4.112   1.773   2.590
   85GLOH    C1 9359   4.087   1.649   2.660
   85GLOH   H02 9360   4.076   1.568   2.588
   85GLOH   H08 9361   3.993   1.656   2.715
   85GLOH    C2 9362   4.199   1.611   2.759
   85GLOH   H04 9363   4.214   1.696   2.827
   85GLOH    O2 9364   4.161   1.495   2.836
   85GLOH   H05 9365   4.104   1.521   0.044
   85GLOH    C3 9366   4.332   1.585   2.684
   85GLOH   H06 9367   4.310   1.530   2.593
   85GLOH   H07 9368   4.394   1.520   2.746
   85GLOH    O3 9369   4.404   1.706   2.654
   85GLOH   H01 9370   4.467   1.720   2.729
   86GLOH   H03 9371   3.567   5.279   1.411
   86GLOH    O1 9372   3.571   5.305   1.315
   86GLOH    C1 9373   3.525   5.195   1.233
   86GLOH   H02 9374   3.416   5.189   1.236
   86GLOH   H08 9375   3.563   5.100   1.270
   86GLOH    C2 9376   3.569   5.215   1.087
   86GLOH   H04 9377   3.678   5.230   1.085
   86GLOH    O2 9378   3.537   5.100   1.006
   86GLOH   H05 9379   3.490   5.131   0.922
   86GLOH    C3 9380   3.503   5.341   1.031
   86GLOH   H06 9381   3.396   5.323   1.021
   86GLOH   H07 9382   3.544   5.358   0.931
   86GLOH    O3 9383   3.526   5.457   1.112
   86GLOH   H01 9384   3.549   5.423   1.202
   87GLOH   H03 9385   3.835   4.681   1.913
   87GLOH    O1 9386   3.813   4.695   2.009
   87GLOH    C1 9387   3.886   4.594   2.082
   87GLOH   H02 9388   3.986   4.630   2.104
   87GLOH   H08 9389   3.897   4.504   2.020
   87GLOH    C2 9390   3.820   4.551   2.214
   87GLOH   H04 9391   3.721   4.509   2.191
   87GLOH    O2 9392   3.902   4.449   2.275
   87GLOH   H05 9393   3.972   4.496   2.328
   87GLOH    C3 9394   3.802   4.673   2.306
   87GLOH   H06 9395   3.738   4.745   2.254
   87GLOH   H07 9396   3.899   4.722   2.319
   87GLOH    O3 9397   3.745   4.641   2.434
   87GLOH   H01 9398   3.675   4.709   2.453
   88GLOH   H03 9399   2.270   3.466   1.115
   88GLOH    O1 9400   2.356   3.419   1.098
   88GLOH    C1 9401   2.454   3.514   1.053
   88GLOH   H02 9402   2.549   3.464   1.040
   88GLOH   H08 9403   2.470   3.591   1.128
   88GLOH    C2 9404   2.417   3.582   0.919
   88GLOH   H04 9405   2.401   3.503   0.844
   88GLOH    O2 9406   2.295   3.659   0.933
   88GLOH   H05 9407   2.236   3.617   1.000
   88GLOH    C3 9408   2.532   3.673   0.872
   88GLOH   H06 9409   2.541   3.756   0.942
   88GLOH   H07 9410   2.505   3.716   0.776
   88GLOH    O3 9411   2.658   3.604   0.863
   88GLOH   H01 9412   2.646   3.519   0.813
   89GLOH   H03 9413   3.059   0.272   1.703
   89GLOH    O1 9414   3.114   0.192   1.724
   89GLOH    C1 9415   3.222   0.235   1.809
   89GLOH   H02 9416   3.298   0.287   1.751
   89GLOH   H08 9417   3.270   0.148   1.854
   89GLOH    C2 9418   3.174   0.328   1.922
   89GLOH   H04 9419   3.104   0.271   1.986
   89GLOH    O2 9420   3.283   0.376   2.003
   89GLOH   H05 9421   3.356   0.307   2.009
   89GLOH    C3 9422   3.099   0.447   1.862
   89GLOH   H06 9423   3.166   0.491   1.789
   89GLOH   H07 9424   3.080   0.521   1.940
   89GLOH    O3 9425   2.975   0.410   1.797
   89GLOH   H01 9426   2.919   0.491   1.782
   90GLOH   H03 9427   3.398   8.968   2.755
   90GLOH    O1 9428   3.407   9.044   2.815
   90GLOH    C1 9429   3.410   9.166   2.737
   90GLOH   H02 9430   3.312   9.183   2.691
   90GLOH   H08 9431   3.482   9.157   2.656
   90GLOH    C2 9432   3.447   9.290   2.822
   90GLOH   H04 9433   3.551   9.278   2.855
   90GLOH    O2 9434   3.439   9.408   2.739
   90GLOH   H05 9435   3.446   9.489   2.795
   90GLOH    C3 9436   3.357   9.299   0.081
   90GLOH   H06 9437   3.254   9.315   0.049
   90GLOH   H07 9438   3.387   9.387   0.139
   90GLOH    O3 9439   3.368   9.180   0.161
   90GLOH   H01 9440   3.377   9.106   0.094
   91GLOH   H03 9441   2.444   1.279   2.303
   91GLOH    O1 9442   2.451   1.378   2.295
   91GLOH    C1 9443   2.514   1.430   2.414
   91GLOH   H02 9444   2.547   1.533   2.396
   91GLOH   H08 9445   2.604   1.373   2.437
   91GLOH    C2 9446   2.423   1.430   2.538
   91GLOH   H04 9447   2.396   1.325   2.560
   91GLOH    O2 9448   2.493   1.486   2.650
   91GLOH   H05 9449   2.453   1.455   2.734
   91GLOH    C3 9450   2.293   1.508   2.511
   91GLOH   H06 9451   2.235   1.512   2.604
   91GLOH   H07 9452   2.232   1.452   2.440
   91GLOH    O3 9453   2.316   1.640   2.460
   91GLOH   H01 9454   2.380   1.685   2.519
   92GLOH   H03 9455   2.842   2.812   2.140
   92GLOH    O1 9456   2.799   2.735   2.186
   92GLOH    C1 9457   2.692   2.787   2.266
   92GLOH   H02 9458   2.601   2.797   2.206
   92GLOH   H08 9459   2.716   2.887   2.302
   92GLOH    C2 9460   2.660   2.699   2.389
   92GLOH   H04 9461   2.751   2.693   2.450
   92GLOH    O2 9462   2.555   2.760   2.468
   92GLOH   H05 9463   2.474   2.767   2.410
   92GLOH    C3 9464   2.622   2.555   2.348
   92GLOH   H06 9465   2.612   2.497   2.439
   92GLOH   H07 9466   2.706   2.512   2.293
   92GLOH    O3 9467   2.501   2.544   2.270
   92GLOH   H01 9468   2.513   2.583   2.180
   93GLOH   H03 9469   4.249   4.157   2.002
   93GLOH    O1 9470   4.259   4.253   2.022
   93GLOH    C1 9471   4.137   4.321   1.990
   93GLOH   H02 9472   4.139   4.423   2.028
   93GLOH   H08 9473   4.052   4.271   2.038
   93GLOH    C2 9474   4.112   4.325   1.838
   93GLOH   H04 9475   4.109   4.221   1.802
   93GLOH    O2 9476   3.985   4.387   1.810
   93GLOH   H05 9477   3.915   4.317   1.823
   93GLOH    C3 9478   4.229   4.397   1.769
   93GLOH   H06 9479   4.322   4.346   1.794
   93GLOH   H07 9480   4.236   4.497   1.811
   93GLOH    O3 9481   4.215   4.406   1.626
   93GLOH   H01 9482   4.175   4.320   1.594
   94GLOH   H03 9483   2.403   0.587   1.131
   94GLOH    O1 9484   2.370   0.538   1.051
   94GLOH    C1 9485   2.417   0.602   0.931
   94GLOH   H02 9486   2.385   0.545   0.844
   94GLOH   H08 9487   2.526   0.602   0.929
   94GLOH    C2 9488   2.367   0.747   0.918
   94GLOH   H04 9489   2.400   0.803   1.006
   94GLOH    O2 9490   2.426   0.805   0.800
   94GLOH   H05 9491   2.384   0.762   0.719
   94GLOH    C3 9492   2.213   0.750   0.913
   94GLOH   H06 9493   2.174   0.698   1.000
   94GLOH   H07 9494   2.179   0.694   0.826
   94GLOH    O3 9495   2.158   0.884   0.909
   94GLOH   H01 9496   2.156   0.917   0.816
   95GLOH   H03 9497   2.385   3.855   1.140
   95GLOH    O1 9498   2.426   3.812   1.220
   95GLOH    C1 9499   2.506   3.911   1.287
   95GLOH   H02 9500   2.441   3.983   1.338
   95GLOH   H08 9501   2.565   3.968   1.214
   95GLOH    C2 9502   2.601   3.849   1.390
   95GLOH   H04 9503   2.674   3.787   1.335
   95GLOH    O2 9504   2.672   3.952   1.461
   95GLOH   H05 9505   2.690   3.922   1.555
   95GLOH    C3 9506   2.525   3.756   1.486
   95GLOH   H06 9507   2.456   3.816   1.546
   95GLOH   H07 9508   2.596   3.710   1.554
   95GLOH    O3 9509   2.453   3.655   1.414
   95GLOH   H01 9510   2.431   3.700   1.327
   96GLOH   H03 9511   3.695   9.077   1.475
   96GLOH    O1 9512   3.640   9.154   1.443
   96GLOH    C1 9513   3.682   9.189   1.309
   96GLOH   H02 9514   3.604   9.246   1.259
   96GLOH   H08 9515   3.700   9.100   1.250
   96GLOH    C2 9516   3.811   9.274   1.310
   96GLOH   H04 9517   3.890   9.216   1.361
   96GLOH    O2 9518   3.852   9.302   1.175
   96GLOH   H05 9519   3.788   9.370   1.135
   96GLOH    C3 9520   3.789   9.405   1.389
   96GLOH   H06 9521   3.727   9.473   1.330
   96GLOH   H07 9522   3.886   9.453   1.401
   96GLOH    O3 9523   3.728   9.382   1.517
   96GLOH   H01 9524   3.686   9.293   1.510
   97GLOH   H03 9525   2.714   5.213   0.918
   97GLOH    O1 9526   2.768   5.294   0.895
   97GLOH    C1 9527   2.871   5.316   0.993
   97GLOH   H02 9528   2.845   5.401   1.056
   97GLOH   H08 9529   2.964   5.343   0.942
   97GLOH    C2 9530   2.900   5.196   1.086
   97GLOH   H04 9531   2.804   5.168   1.133
   97GLOH    O2 9532   2.949   5.081   1.014
   97GLOH   H05 9533   3.035   5.107   0.969
   97GLOH    C3 9534   2.996   5.237   1.198
   97GLOH   H06 9535   3.020   5.148   1.257
   97GLOH   H07 9536   2.943   5.304   1.265
   97GLOH    O3 9537   3.118   5.299   1.152
   97GLOH   H01 9538   3.146   5.359   1.225
   98GLOH   H03 9539   3.493   4.774   0.059
   98GLOH    O1 9540   3.496   4.699   2.862
   98GLOH    C1 9541   3.556   4.746   2.740
   98GLOH   H02 9542   3.553   4.667   2.664
   98GLOH   H08 9543   3.661   4.769   2.756
   98GLOH    C2 9544   3.487   4.871   2.682
   98GLOH   H04 9545   3.385   4.843   2.651
   98GLOH    O2 9546   3.481   4.976   2.780
   98GLOH   H05 9547   3.389   5.008   2.790
   98GLOH    C3 9548   3.564   4.921   2.559
   98GLOH   H06 9549   3.664   4.949   2.591
   98GLOH   H07 9550   3.515   5.012   2.522
   98GLOH    O3 9551   3.572   4.823   2.454
   98GLOH   H01 9552   3.520   4.853   2.375
   99GLOH   H03 9553   2.412   0.269   2.630
   99GLOH    O1 9554   2.451   0.317   2.555
   99GLOH    C1 9555   2.561   0.395   2.607
   99GLOH   H02 9556   2.601   0.459   2.530
   99GLOH   H08 9557   2.642   0.329   2.639
   99GLOH    C2 9558   2.520   0.483   2.727
   99GLOH   H04 9559   2.438   0.549   2.695
   99GLOH    O2 9560   2.473   0.401   2.838
   99GLOH   H05 9561   2.423   0.457   0.035
   99GLOH    C3 9562   2.639   0.570   2.771
   99GLOH   H06 9563   2.721   0.504   2.800
   99GLOH   H07 9564   2.610   0.627   2.859
   99GLOH    O3 9565   2.680   0.659   2.666
   99GLOH   H01 9566   2.768   0.696   2.688
  100GLOH   H03 9567   3.568   0.228   0.616
  100GLOH    O1 9568   3.511   0.220   0.535
  100GLOH    C1 9569   3.556   0.106   0.460
  100GLOH   H02 9570   3.505   0.017   0.497
  100GLOH   H08 9571   3.663   0.090   0.473
  100GLOH    C2 9572   3.527   0.116   0.309
  100GLOH   H04 9573   3.418   0.124   0.295
  100GLOH    O2 9574   3.589   0.233   0.251
  100GLOH   H05 9575   3.540   0.313   0.279
  100GLOH    C3 9576   3.576   9.990   0.236
  100GLOH   H06 9577   3.684   9.982   0.250
  100GLOH   H07 9578   3.560   0.004   0.129
  100GLOH    O3 9579   3.510   9.871   0.281
  100GLOH   H01 9580   3.553   9.840   0.365
  101GLOH   H03 9581   2.344   2.181   1.375
  101GLOH    O1 9582   2.313   2.157   1.466
  101GLOH    C1 9583   2.339   2.018   1.491
  101GLOH   H02 9584   2.446   1.997   1.484
  101GLOH   H08 9585   2.291   1.956   1.414
  101GLOH    C2 9586   2.289   1.971   1.629
  101GLOH   H04 9587   2.179   1.979   1.630
  101GLOH    O2 9588   2.325   1.833   1.652
  101GLOH   H05 9589   2.424   1.829   1.669
  101GLOH    C3 9590   2.344   2.062   1.740
  101GLOH   H06 9591   2.453   2.052   1.744
  101GLOH   H07 9592   2.305   2.028   1.836
  101GLOH    O3 9593   2.308   2.199   1.716
  101GLOH   H01 9594   2.305   2.207   1.617
  102GLOH   H03 9595   2.882   4.324   1.670
  102GLOH    O1 9596   2.907   4.414   1.635
  102GLOH    C1 9597   2.896   4.505   1.746
  102GLOH   H02 9598   2.963   4.477   1.827
  102GLOH   H08 9599   2.794   4.502   1.787
  102GLOH    C2 9600   2.926   4.651   1.706
  102GLOH   H04 9601   2.857   4.678   1.625
  102GLOH    O2 9602   2.905   4.740   1.816
  102GLOH   H05 9603   2.882   4.830   1.780
  102GLOH    C3 9604   3.069   4.663   1.649
  102GLOH   H06 9605   3.083   4.768   1.623
  102GLOH   H07 9606   3.075   4.606   1.556
  102GLOH    O3 9607   3.174   4.621   1.739
  102GLOH   H01 9608   3.188   4.693   1.806
  103GLOH   H03 9609   3.842   3.213   1.559
  103GLOH    O1 9610   3.843   3.301   1.605
  103GLOH    C1 9611   3.715   3.325   1.666
  103GLOH   H02 9612   3.641   3.253   1.631
  103GLOH   H08 9613   3.677   3.423   1.636
  103GLOH    C2 9614   3.720   3.318   1.820
  103GLOH   H04 9615   3.814   3.365   1.854
  103GLOH    O2 9616   3.607   3.390   1.873
  103GLOH   H05 9617   3.603   3.378   1.972
  103GLOH    C3 9618   3.717   3.173   1.870
  103GLOH   H06 9619   3.616   3.135   1.856
  103GLOH   H07 9620   3.735   3.173   1.977
  103GLOH    O3 9621   3.812   3.086   1.805
  103GLOH   H01 9622   3.894   3.075   1.859
  104GLOH   H03 9623   4.885   4.027   0.428
  104GLOH    O1 9624   4.958   4.094   0.426
  104GLOH    C1 9625   4.940   4.192   0.321
  104GLOH   H02 9626   4.983   4.154   0.228
  104GLOH   H08 9627   4.996   4.283   0.346
  104GLOH    C2 9628   4.794   4.232   0.295
  104GLOH   H04 9629   4.794   4.326   0.238
  104GLOH    O2 9630   4.724   4.131   0.219
  104GLOH   H05 9631   4.747   4.137   0.124
  104GLOH    C3 9632   4.720   4.258   0.428
  104GLOH   H06 9633   4.768   4.342   0.478
  104GLOH   H07 9634   4.731   4.171   0.493
  104GLOH    O3 9635   4.582   4.285   0.404
  104GLOH   H01 9636   4.557   4.230   0.326
  105GLOH   H03 9637   4.065   5.149   1.495
  105GLOH    O1 9638   4.114   5.176   1.413
  105GLOH    C1 9639   4.106   5.071   1.315
  105GLOH   H02 9640   4.099   4.974   1.363
  105GLOH   H08 9641   4.197   5.070   1.255
  105GLOH    C2 9642   3.986   5.087   1.220
  105GLOH   H04 9643   3.998   5.181   1.165
  105GLOH    O2 9644   3.982   4.978   1.125
  105GLOH   H05 9645   3.927   5.005   1.046
  105GLOH    C3 9646   3.853   5.097   1.298
  105GLOH   H06 9647   3.773   5.100   1.225
  105GLOH   H07 9648   3.851   5.193   1.351
  105GLOH    O3 9649   3.831   4.989   1.391
  105GLOH   H01 9650   3.829   4.904   1.340
  106GLOH   H03 9651   2.891   1.281   2.043
  106GLOH    O1 9652   2.808   1.311   1.998
  106GLOH    C1 9653   2.727   1.381   2.095
  106GLOH   H02 9654   2.789   1.443   2.159
  106GLOH   H08 9655   2.676   1.310   2.160
  106GLOH    C2 9656   2.620   1.470   2.029
  106GLOH   H04 9657   2.548   1.405   1.976
  106GLOH    O2 9658   2.549   1.546   2.130
  106GLOH   H05 9659   2.504   1.481   2.193
  106GLOH    C3 9660   2.683   1.566   1.926
  106GLOH   H06 9661   2.748   1.636   1.979
  106GLOH   H07 9662   2.604   1.625   1.879
  106GLOH    O3 9663   2.759   1.495   1.826
  106GLOH   H01 9664   2.800   1.419   1.875
  107GLOH   H03 9665   3.421   4.103   1.917
  107GLOH    O1 9666   3.452   4.135   1.827
  107GLOH    C1 9667   3.593   4.106   1.819
  107GLOH   H02 9668   3.619   4.075   1.718
  107GLOH   H08 9669   3.619   4.023   1.885
  107GLOH    C2 9670   3.679   4.228   1.857
  107GLOH   H04 9671   3.658   4.254   1.962
  107GLOH    O2 9672   3.819   4.197   1.844
  107GLOH   H05 9673   3.843   4.134   1.919
  107GLOH    C3 9674   3.644   4.349   1.769
  107GLOH   H06 9675   3.668   4.326   1.665
  107GLOH   H07 9676   3.706   4.434   1.799
  107GLOH    O3 9677   3.505   4.383   1.781
  107GLOH   H01 9678   3.458   4.299   1.804
  108GLOH   H03 9679   4.378   3.899   0.301
  108GLOH    O1 9680   4.455   3.838   0.318
  108GLOH    C1 9681   4.548   3.911   0.400
  108GLOH   H02 9682   4.510   3.918   0.502
  108GLOH   H08 9683   4.561   4.013   0.364
  108GLOH    C2 9684   4.686   3.842   0.405
  108GLOH   H04 9685   4.723   3.832   0.302
  108GLOH    O2 9686   4.780   3.919   0.482
  108GLOH   H05 9687   4.803   3.870   0.567
  108GLOH    C3 9688   4.667   3.700   0.464
  108GLOH   H06 9689   4.622   3.709   0.563
  108GLOH   H07 9690   4.763   3.652   0.477
  108GLOH    O3 9691   4.582   3.622   0.379
  108GLOH   H01 9692   4.517   3.687   0.340
  109GLOH   H03 9693   2.912   0.942   0.350
  109GLOH    O1 9694   2.934   0.845   0.345
  109GLOH    C1 9695   2.901   0.783   0.470
  109GLOH   H02 9696   2.861   0.683   0.452
  109GLOH   H08 9697   2.822   0.839   0.520
  109GLOH    C2 9698   3.019   0.770   0.569
  109GLOH   H04 9699   2.977   0.746   0.668
  109GLOH    O2 9700   3.113   0.666   0.533
  109GLOH   H05 9701   3.066   0.590   0.488
  109GLOH    C3 9702   3.093   0.904   0.579
  109GLOH   H06 9703   3.139   0.926   0.482
  109GLOH   H07 9704   3.175   0.892   0.650
  109GLOH    O3 9705   3.009   1.013   0.620
  109GLOH   H01 9706   3.058   1.096   0.598
  110GLOH   H03 9707   3.669   9.581   2.600
  110GLOH    O1 9708   3.606   9.657   2.603
  110GLOH    C1 9709   3.672   9.764   2.673
  110GLOH   H02 9710   3.690   9.736   2.777
  110GLOH   H08 9711   3.608   9.852   2.676
  110GLOH    C2 9712   3.807   9.803   2.609
  110GLOH   H04 9713   3.857   9.873   2.677
  110GLOH    O2 9714   3.891   9.686   2.594
  110GLOH   H05 9715   3.985   9.711   2.597
  110GLOH    C3 9716   3.785   9.873   2.474
  110GLOH   H06 9717   3.721   9.810   2.413
  110GLOH   H07 9718   3.881   9.882   2.423
  110GLOH    O3 9719   3.725   0.003   2.489
  110GLOH   H01 9720   3.784   0.062   2.541
  111GLOH   H03 9721   2.098   1.025   2.355
  111GLOH    O1 9722   2.146   0.970   2.423
  111GLOH    C1 9723   2.158   1.049   2.543
  111GLOH   H02 9724   2.262   1.078   2.558
  111GLOH   H08 9725   2.129   0.990   2.630
  111GLOH    C2 9726   2.071   1.176   2.540
  111GLOH   H04 9727   1.966   1.146   2.551
  111GLOH    O2 9728   2.107   1.266   2.647
  111GLOH   H05 9729   2.027   1.311   2.679
  111GLOH    C3 9730   2.088   1.244   2.403
  111GLOH   H06 9731   2.195   1.262   2.388
  111GLOH   H07 9732   2.038   1.341   2.405
  111GLOH    O3 9733   2.040   1.164   2.294
  111GLOH   H01 9734   2.047   1.222   2.214
  112GLOH   H03 9735   2.509   0.087   1.623
  112GLOH    O1 9736   2.595   0.054   1.585
  112GLOH    C1 9737   2.578   9.927   1.518
  112GLOH   H02 9738   2.511   9.937   1.432
  112GLOH   H08 9739   2.532   9.854   1.585
  112GLOH    C2 9740   2.713   9.871   1.470
  112GLOH   H04 9741   2.780   9.867   1.558
  112GLOH    O2 9742   2.702   9.738   1.415
  112GLOH   H05 9743   2.796   9.709   1.390
  112GLOH    C3 9744   2.777   9.969   1.369
  112GLOH   H06 9745   2.876   9.932   1.343
  112GLOH   H07 9746   2.792   0.065   1.419
  112GLOH    O3 9747   2.698   9.986   1.250
  112GLOH   H01 9748   2.715   9.908   1.191
  113GLOH   H03 9749   2.432   3.296   1.134
  113GLOH    O1 9750   2.476   3.212   1.162
  113GLOH    C1 9751   2.430   3.177   1.294
  113GLOH   H02 9752   2.322   3.185   1.300
  113GLOH   H08 9753   2.472   3.245   1.368
  113GLOH    C2 9754   2.470   3.033   1.332
  113GLOH   H04 9755   2.580   3.027   1.332
  113GLOH    O2 9756   2.422   3.001   1.465
  113GLOH   H05 9757   2.450   2.906   1.486
  113GLOH    C3 9758   2.416   2.933   1.228
  113GLOH   H06 9759   2.307   2.931   1.236
  113GLOH   H07 9760   2.452   2.833   1.253
  113GLOH    O3 9761   2.456   2.970   1.095
  113GLOH   H01 9762   2.472   3.068   1.099
  114GLOH   H03 9763   3.810   1.126   2.831
  114GLOH    O1 9764   3.818   1.029   2.825
  114GLOH    C1 9765   3.915   0.996   2.723
  114GLOH   H02 9766   4.014   1.032   2.752
  114GLOH   H08 9767   3.889   1.045   2.629
  114GLOH    C2 9768   3.924   0.844   2.699
  114GLOH   H04 9769   3.826   0.808   2.664
  114GLOH    O2 9770   4.023   0.818   2.597
  114GLOH   H05 9771   3.991   0.856   2.510
  114GLOH    C3 9772   3.961   0.770   2.829
  114GLOH   H06 9773   4.062   0.797   2.857
  114GLOH   H07 9774   3.960   0.663   2.810
  114GLOH    O3 9775   3.869   0.803   0.069
  114GLOH   H01 9776   3.833   0.892   0.046
  115GLOH   H03 9777   4.492   4.306   0.524
  115GLOH    O1 9778   4.422   4.303   0.594
  115GLOH    C1 9779   4.478   4.330   0.724
  115GLOH   H02 9780   4.401   4.317   0.800
  115GLOH   H08 9781   4.510   4.435   0.730
  115GLOH    C2 9782   4.599   4.242   0.763
  115GLOH   H04 9783   4.682   4.270   0.697
  115GLOH    O2 9784   4.640   4.267   0.899
  115GLOH   H05 9785   4.713   4.205   0.923
  115GLOH    C3 9786   4.570   4.093   0.741
  115GLOH   H06 9787   4.658   4.036   0.772
  115GLOH   H07 9788   4.559   4.077   0.634
  115GLOH    O3 9789   4.453   4.045   0.810
  115GLOH   H01 9790   4.473   4.030   0.906
  116GLOH   H03 9791   3.449   1.184   2.179
  116GLOH    O1 9792   3.509   1.181   2.260
  116GLOH    C1 9793   3.600   1.069   2.245
  116GLOH   H02 9794   3.702   1.102   2.264
  116GLOH   H08 9795   3.597   1.031   2.143
  116GLOH    C2 9796   3.567   0.952   2.340
  116GLOH   H04 9797   3.470   0.910   2.310
  116GLOH    O2 9798   3.668   0.850   2.328
  116GLOH   H05 9799   3.636   0.780   2.264
  116GLOH    C3 9800   3.555   1.003   2.485
  116GLOH   H06 9801   3.653   1.036   2.520
  116GLOH   H07 9802   3.525   0.919   2.549
  116GLOH    O3 9803   3.458   1.110   2.493
  116GLOH   H01 9804   3.468   1.153   2.404
  117GLOH   H03 9805   3.198   2.479   1.782
  117GLOH    O1 9806   3.291   2.445   1.784
  117GLOH    C1 9807   3.379   2.546   1.730
  117GLOH   H02 9808   3.338   2.586   1.637
  117GLOH   H08 9809   3.475   2.502   1.706
  117GLOH    C2 9810   3.404   2.665   1.826
  117GLOH   H04 9811   3.471   2.735   1.775
  117GLOH    O2 9812   3.282   2.734   1.860
  117GLOH   H05 9813   3.236   2.764   1.775
  117GLOH    C3 9814   3.475   2.617   1.954
  117GLOH   H06 9815   3.412   2.543   2.003
  117GLOH   H07 9816   3.484   2.701   2.022
  117GLOH    O3 9817   3.606   2.561   1.926
  117GLOH   H01 9818   3.664   2.637   1.899
  118GLOH   H03 9819   4.118   1.080   1.041
  118GLOH    O1 9820   4.177   1.000   1.045
  118GLOH    C1 9821   4.200   0.967   1.184
  118GLOH   H02 9822   4.252   1.048   1.233
  118GLOH   H08 9823   4.265   0.879   1.190
  118GLOH    C2 9824   4.071   0.937   1.263
  118GLOH   H04 9825   4.101   0.915   1.366
  118GLOH    O2 9826   3.979   1.049   1.265
  118GLOH   H05 9827   3.989   1.103   1.181
  118GLOH    C3 9828   4.000   0.811   1.208
  118GLOH   H06 9829   3.974   0.830   1.104
  118GLOH   H07 9830   3.905   0.799   1.262
  118GLOH    O3 9831   4.079   0.692   1.220
  118GLOH   H01 9832   4.112   0.671   1.127
  119GLOH   H03 9833   4.633   2.061   0.015
  119GLOH    O1 9834   4.653   1.967   0.038
  119GLOH    C1 9835   4.628   1.942   0.178
  119GLOH   H02 9836   4.526   1.972   0.205
  119GLOH   H08 9837   4.696   2.000   0.241
  119GLOH    C2 9838   4.644   1.793   0.211
  119GLOH   H04 9839   4.747   1.764   0.184
  119GLOH    O2 9840   4.626   1.769   0.353
  119GLOH   H05 9841   4.532   1.788   0.382
  119GLOH    C3 9842   4.548   1.708   0.127
  119GLOH   H06 9843   4.446   1.725   0.161
  119GLOH   H07 9844   4.570   1.602   0.144
  119GLOH    O3 9845   4.560   1.740   2.853
  119GLOH   H01 9846   4.605   1.828   2.851
  120GLOH   H03 9847   3.956   3.766   1.018
  120GLOH    O1 9848   3.869   3.721   1.039
  120GLOH    C1 9849   3.773   3.822   1.079
  120GLOH   H02 9850   3.806   3.920   1.046
  120GLOH   H08 9851   3.765   3.826   1.187
  120GLOH    C2 9852   3.633   3.797   1.019
  120GLOH   H04 9853   3.606   3.692   1.037
  120GLOH    O2 9854   3.538   3.884   1.084
  120GLOH   H05 9855   3.578   3.976   1.093
  120GLOH    C3 9856   3.638   3.823   0.867
  120GLOH   H06 9857   3.734   3.786   0.829
  120GLOH   H07 9858   3.638   3.931   0.851
  120GLOH    O3 9859   3.530   3.762   0.793
  120GLOH   H01 9860   3.445   3.810   0.811
  121ACOH    H4 9861   4.739   1.699   0.421
  121ACOH    O2 9862   4.812   1.643   0.458
  121ACOH    C2 9863   4.781   1.615   0.585
  121ACOH    O1 9864   4.698   1.671   0.655
  121ACOH    C1 9865   4.874   1.514   0.641
  121ACOH    H1 9866   4.943   1.562   0.710
  121ACOH    H2 9867   4.931   1.466   0.562
  121ACOH    H3 9868   4.818   1.438   0.695
  122ACOH    H4 9869   2.053   0.247   1.446
  122ACOH    O2 9870   2.019   0.296   1.366
  122ACOH    C2 9871   2.029   0.428   1.393
  122ACOH    O1 9872   2.066   0.481   1.496
  122ACOH    C1 9873   1.983   0.506   1.276
  122ACOH    H1 9874   2.047   0.485   1.191
  122ACOH    H2 9875   1.986   0.613   1.296
  122ACOH    H3 9876   1.881   0.478   1.251
  123ACOH    H4 9877   5.053   3.548   1.630
  123ACOH    O2 9878   5.111   3.608   1.684
  123ACOH    C2 9879   5.205   3.532   1.741
  123ACOH    O1 9880   5.220   3.412   1.729
  123ACOH    C1 9881   5.294   3.614   1.828
  123ACOH    H1 9882   5.369   3.551   1.876
  123ACOH    H2 9883   5.234   3.662   1.904
  123ACOH    H3 9884   5.343   3.689   1.767
  124ACOH    H4 9885   5.282   9.199   2.309
  124ACOH    O2 9886   5.341   9.191   2.386
  124ACOH    C2 9887   5.466   9.210   2.340
  124ACOH    O1 9888   5.496   9.232   2.224
  124ACOH    C1 9889   5.566   9.202   2.448
  124ACOH    H1 9890   5.519   9.180   2.543
  124ACOH    H2 9891   5.619   9.296   2.455
  124ACOH    H3 9892   5.638   9.123   2.425
  125ACOH    H4 9893   4.326   1.357   2.309
  125ACOH    O2 9894   4.334   1.267   2.350
  125ACOH    C2 9895   4.231   1.252   2.435
  125ACOH    O1 9896   4.153   1.338   2.470
  125ACOH    C1 9897   4.227   1.114   2.488
  125ACOH    H1 9898   4.209   1.044   2.406
  125ACOH    H2 9899   4.148   1.102   2.562
  125ACOH    H3 9900   4.323   1.089   2.534
  126ACOH    H4 9901   3.613   8.668   0.726
  126ACOH    O2 9902   3.589   8.649   0.631
  126ACOH    C2 9903   3.520   8.533   0.631
  126ACOH    O1 9904   3.496   8.463   0.727
  126ACOH    C1 9905   3.478   8.494   0.494
  126ACOH    H1 9906   3.512   8.568   0.421
  126ACOH    H2 9907   3.370   8.488   0.490
  126ACOH    H3 9908   3.521   8.397   0.469
  127ACOH    H4 9909   5.066   4.147   0.513
  127ACOH    O2 9910   5.140   4.192   0.562
  127ACOH    C2 9911   5.097   4.213   0.687
  127ACOH    O1 9912   4.988   4.186   0.734
  127ACOH    C1 9913   5.204   4.278   0.766
  127ACOH    H1 9914   5.229   4.374   0.721
  127ACOH    H2 9915   5.293   4.216   0.766
  127ACOH    H3 9916   5.173   4.294   0.869
  128ACOH    H4 9917   4.980   3.215   1.048
  128ACOH    O2 9918   5.059   3.196   1.105
  128ACOH    C2 9919   5.089   3.309   1.171
  128ACOH    O1 9920   5.032   3.416   1.163
  128ACOH    C1 9921   5.205   3.287   1.261
  128ACOH    H1 9922   5.292   3.261   1.202
  128ACOH    H2 9923   5.183   3.204   1.328
  128ACOH    H3 9924   5.226   3.376   1.320
  129ACOH    H4 9925   4.320   0.800   1.451
  129ACOH    O2 9926   4.381   0.877   1.436
  129ACOH    C2 9927   4.343   0.976   1.518
  129ACOH    O1 9928   4.251   0.975   1.598
  129ACOH    C1 9929   4.425   1.098   1.497
  129ACOH    H1 9930   4.504   1.080   1.424
  129ACOH    H2 9931   4.470   1.128   1.591
  129ACOH    H3 9932   4.362   1.179   1.460
  130ACOH    H4 9933   3.603   5.291   2.104
  130ACOH    O2 9934   3.585   5.389   2.110
  130ACOH    C2 9935   3.460   5.410   2.068
  130ACOH    O1 9936   3.374   5.325   2.051
  130ACOH    C1 9937   3.430   5.554   2.052
  130ACOH    H1 9938   3.396   5.574   1.951
  130ACOH    H2 9939   3.519   5.614   2.072
  130ACOH    H3 9940   3.352   5.583   2.122
  131ACOH    H4 9941   2.969   2.247   2.081
  131ACOH    O2 9942   2.988   2.343   2.064
  131ACOH    C2 9943   3.099   2.372   2.133
  131ACOH    O1 9944   3.160   2.299   2.209
  131ACOH    C1 9945   3.136   2.514   2.113
  131ACOH    H1 9946   3.230   2.537   2.162
  131ACOH    H2 9947   3.058   2.579   2.152
  131ACOH    H3 9948   3.147   2.534   2.006
  132ACOH    H4 9949   2.410   2.450   2.334
  132ACOH    O2 9950   2.352   2.384   2.384
  132ACOH    C2 9951   2.250   2.456   2.435
  132ACOH    O1 9952   2.224   2.573   2.412
  132ACOH    C1 9953   2.162   2.372   2.520
  132ACOH    H1 9954   2.163   2.412   2.621
  132ACOH    H2 9955   2.197   2.269   2.522
  132ACOH    H3 9956   2.061   2.374   2.481
  133ACOH    H4 9957   4.146   4.452   2.599
  133ACOH    O2 9958   4.234   4.453   2.554
  133ACOH    C2 9959   4.220   4.525   2.441
  133ACOH    O1 9960   4.116   4.570   2.397
  133ACOH    C1 9961   4.349   4.538   2.369
  133ACOH    H1 9962   4.424   4.579   2.437
  133ACOH    H2 9963   4.338   4.605   2.284
  133ACOH    H3 9964   4.380   4.441   2.334
  134ACOH    H4 9965   3.587   8.563   1.682
  134ACOH    O2 9966   3.560   8.475   1.642
  134ACOH    C2 9967   3.444   8.441   1.701
  134ACOH    O1 9968   3.393   8.493   1.799
  134ACOH    C1 9969   3.386   8.321   1.635
  134ACOH    H1 9970   3.358   8.347   1.534
  134ACOH    H2 9971   3.298   8.286   1.689
  134ACOH    H3 9972   3.460   8.242   1.632
  135ACOH    H4 9973   2.097   1.921   2.037
  135ACOH    O2 9974   2.062   1.954   1.949
  135ACOH    C2 9975   2.067   2.088   1.957
  135ACOH    O1 9976   2.126   2.155   2.040
  135ACOH    C1 9977   1.996   2.152   1.843
  135ACOH    H1 9978   1.948   2.077   1.781
  135ACOH    H2 9979   2.068   2.207   1.783
  135ACOH    H3 9980   1.922   2.221   1.880
  136ACOH    H4 9981   3.969   9.249   1.099
  136ACOH    O2 9982   4.046   9.223   1.041
  136ACOH    C2 9983   4.113   9.127   1.109
  136ACOH    O1 9984   4.072   9.064   1.204
  136ACOH    C1 9985   4.240   9.091   1.043
  136ACOH    H1 9986   4.321   9.096   1.115
  136ACOH    H2 9987   4.261   9.159   0.961
  136ACOH    H3 9988   4.234   8.990   1.004
  137ACOH    H4 9989   4.792   2.873   2.822
  137ACOH    O2 9990   4.864   2.811   2.800
  137ACOH    C2 9991   4.924   2.782   0.051
  137ACOH    O1 9992   4.892   2.825   0.160
  137ACOH    C1 9993   5.039   2.691   0.033
  137ACOH    H1 9994   5.052   2.665   2.794
  137ACOH    H2 9995   5.022   2.600   0.090
  137ACOH    H3 9996   5.130   2.738   0.069
  138ACOH    H4 9997   4.709   3.970   2.276
  138ACOH    O2 9998   4.741   3.930   2.191
  138ACOH    C2 9999   4.632   3.889   2.124
  138ACOH    O110000   4.517   3.895   2.163
  138ACOH    C110001   4.667   3.830   1.993
  138ACOH    H110002   4.615   3.884   1.914
  138ACOH    H210003   4.637   3.726   1.991
  138ACOH    H310004   4.774   3.836   1.976
  139ACOH    H410005   3.898   8.551   1.542
  139ACOH    O210006   3.886   8.452   1.555
  139ACOH    C210007   3.805   8.409   1.457
  139ACOH    O110008   3.762   8.472   1.362
  139ACOH    C110009   3.778   8.264   1.475
  139ACOH    H110010   3.718   8.226   1.393
  139ACOH    H210011   3.724   8.250   1.568
  139ACOH    H310012   3.872   8.211   1.480
  140ACOH    H410013   2.886   5.037   1.487
  140ACOH    O210014   2.810   5.095   1.513
  140ACOH    C210015   2.784   5.073   1.643
  140ACOH    O110016   2.838   4.993   1.716
  140ACOH    C110017   2.673   5.160   1.688
  140ACOH    H110018   2.702   5.264   1.678
  140ACOH    H210019   2.647   5.140   1.792
  140ACOH    H310020   2.585   5.142   1.626
  141ACOH    H410021   3.484   1.908   1.217
  141ACOH    O210022   3.394   1.947   1.201
  141ACOH    C210023   3.337   1.967   1.321
  141ACOH    O110024   3.374   1.919   1.426
  141ACOH    C110025   3.209   2.041   1.306
  141ACOH    H110026   3.147   1.991   1.233
  141ACOH    H210027   3.230   2.142   1.272
  141ACOH    H310028   3.156   2.045   1.401
  142ACOH    H410029   3.431   5.553   1.035
  142ACOH    O210030   3.360   5.616   1.005
  142ACOH    C210031   3.309   5.574   0.888
  142ACOH    O110032   3.350   5.483   0.818
  142ACOH    C110033   3.193   5.656   0.848
  142ACOH    H110034   3.105   5.593   0.838
  142ACOH    H210035   3.213   5.703   0.752
  142ACOH    H310036   3.173   5.733   0.922
  143ACOH    H410037   5.137   4.288   1.250
  143ACOH    O210038   5.231   4.260   1.266
  143ACOH    C210039   5.308   4.329   1.182
  143ACOH    O110040   5.269   4.405   1.095
  143ACOH    C110041   5.451   4.301   1.203
  143ACOH    H110042   5.502   4.391   1.234
  143ACOH    H210043   5.495   4.266   1.110
  143ACOH    H310044   5.465   4.224   1.279
  144ACOH    H410045   4.002   4.922   0.658
  144ACOH    O210046   4.101   4.932   0.654
  144ACOH    C210047   4.154   4.847   0.743
  144ACOH    O110048   4.095   4.761   0.806
  144ACOH    C110049   4.301   4.865   0.753
  144ACOH    H110050   4.328   4.886   0.856
  144ACOH    H210051   4.333   4.949   0.691
  144ACOH    H310052   4.350   4.775   0.720
  145ACOH    H410053   2.824   4.626   0.646
  145ACOH    O210054   2.893   4.696   0.629
  145ACOH    C210055   2.926   4.748   0.748
  145ACOH    O110056   2.881   4.716   0.857
  145ACOH    C110057   3.030   4.853   0.735
  145ACOH    H110058   2.990   4.948   0.769
  145ACOH    H210059   3.062   4.863   0.632
  145ACOH    H310060   3.116   4.828   0.796
  146ACOH    H410061   3.567   2.417   1.921
  146ACOH    O210062   3.535   2.323   1.918
  146ACOH    C210063   3.522   2.281   2.045
  146ACOH    O110064   3.572   2.333   2.143
  146ACOH    C110065   3.452   2.150   2.052
  146ACOH    H110066   3.416   2.121   1.953
  146ACOH    H210067   3.367   2.158   2.119
  146ACOH    H310068   3.519   2.074   2.089
  147ACOH    H410069   4.715   2.141   1.537
  147ACOH    O210070   4.779   2.079   1.490
  147ACOH    C210071   4.863   2.157   1.419
  147ACOH    O110072   4.849   2.274   1.391
  147ACOH    C110073   4.972   2.076   1.357
  147ACOH    H110074   4.959   2.076   1.249
  147ACOH    H210075   4.968   1.974   1.393
  147ACOH    H310076   5.068   2.119   1.382
  148ACOH    H410077   3.603   2.600   2.380
  148ACOH    O210078   3.534   2.539   2.418
  148ACOH    C210079   3.414   2.592   2.389
  148ACOH    O110080   3.390   2.699   2.336
  148ACOH    C110081   3.307   2.503   2.441
  148ACOH    H110082   3.315   2.406   2.393
  148ACOH    H210083   3.208   2.544   2.419
  148ACOH    H310084   3.318   2.491   2.548
  149ACOH    H410085   2.972   5.449   2.029
  149ACOH    O210086   2.975   5.484   1.936
  149ACOH    C210087   2.852   5.480   1.881
  149ACOH    O110088   2.830   5.504   1.764
  149ACOH    C110089   2.741   5.438   1.971
  149ACOH    H110090   2.663   5.515   1.969
  149ACOH    H210091   2.774   5.425   2.073
  149ACOH    H310092   2.699   5.345   1.935
  150ACOH    H410093   4.847   2.225   0.855
  150ACOH    O210094   4.886   2.152   0.909
  150ACOH    C210095   4.825   2.038   0.870
  150ACOH    O110096   4.744   2.027   0.780
  150ACOH    C110097   4.866   1.922   0.952
  150ACOH    H110098   4.904   1.843   0.887
  150ACOH    H210099   4.781   1.885   1.007
  150ACOH    H310100   4.944   1.950   1.022
  151ACOH    H410101   2.744   5.098   0.640
  151ACOH    O210102   2.701   5.008   0.648
  151ACOH    C210103   2.682   4.964   0.522
  151ACOH    O110104   2.710   5.023   0.419
  151ACOH    C110105   2.617   4.831   0.520
  151ACOH    H110106   2.599   4.795   0.621
  151ACOH    H210107   2.682   4.761   0.469
  151ACOH    H310108   2.522   4.837   0.467
  152ACOH    H410109   4.235   4.546   1.594
  152ACOH    O210110   4.242   4.644   1.573
  152ACOH    C210111   4.323   4.655   1.466
  152ACOH    O110112   4.378   4.564   1.407
  152ACOH    C110113   4.330   4.795   1.419
  152ACOH    H110114   4.434   4.827   1.416
  152ACOH    H210115   4.275   4.862   1.484
  152ACOH    H310116   4.288   4.802   1.318
  153ACOH    H410117   3.432   4.468   1.366
  153ACOH    O210118   3.482   4.383   1.380
  153ACOH    C210119   3.402   4.303   1.451
  153ACOH    O110120   3.309   4.337   1.522
  153ACOH    C110121   3.455   4.164   1.453
  153ACOH    H110122   3.486   4.138   1.554
  153ACOH    H210123   3.539   4.154   1.385
  153ACOH    H310124   3.376   4.096   1.422
  154ACOH    H410125   3.415   9.160   0.305
  154ACOH    O210126   3.466   9.151   0.390
  154ACOH    C210127   3.471   9.019   0.417
  154ACOH    O110128   3.384   8.938   0.393
  154ACOH    C110129   3.583   8.989   0.509
  154ACOH    H110130   3.677   9.006   0.458
  154ACOH    H210131   3.579   8.886   0.543
  154ACOH    H310132   3.578   9.055   0.596
  155SOL     OW10133   3.768   0.511   2.042
  155SOL    HW110134   3.714   0.568   2.104
  155SOL    HW210135   3.838   0.567   1.998
  156SOL     OW10136   3.202   5.199   1.856
  156SOL    HW110137   3.259   5.236   1.929
  156SOL    HW210138   3.107   5.194   1.886
  157SOL     OW10139   3.102   4.579   0.997
  157SOL    HW110140   3.012   4.620   0.982
  157SOL    HW210141   3.104   4.535   1.087
  158SOL     OW10142   3.903   9.278   0.793
  158SOL    HW110143   3.863   9.187   0.801
  158SOL    HW210144   3.974   9.290   0.862
  159SOL     OW10145   3.869   3.080   1.472
  159SOL    HW110146   3.855   3.063   1.374
  159SOL    HW210147   3.890   2.994   1.518
  160SOL     OW10148   2.250   0.164   0.774
  160SOL    HW110149   2.344   0.197   0.786
  160SOL    HW210150   2.226   0.103   0.849
  161SOL     OW10151   3.348   3.559   0.416
  161SOL    HW110152   3.326   3.488   0.483
  161SOL    HW210153   3.360   3.517   0.326
  162SOL     OW10154   3.207   1.815   2.234
  162SOL    HW110155   3.226   1.902   2.280
  162SOL    HW210156   3.233   1.821   2.138
  163SOL     OW10157   2.932   1.835   2.196
  163SOL    HW110158   2.919   1.928   2.163
  163SOL    HW210159   3.025   1.825   2.231
  164SOL     OW10160   3.473   3.050   2.057
  164SOL    HW110161   3.395   3.011   2.008
  164SOL    HW210162   3.440   3.108   2.131
  165SOL     OW10163   2.445   1.014   1.878
  165SOL    HW110164   2.542   1.039   1.881
  165SOL    HW210165   2.407   1.037   1.789
  166SOL     OW10166   4.139   2.700   1.275
  166SOL    HW110167   4.193   2.731   1.196
  166SOL    HW210168   4.141   2.770   1.346
  167SOL     OW10169   3.865   1.555   1.688
  167SOL    HW110170   3.909   1.639   1.655
  167SOL    HW210171   3.771   1.577   1.716
  168SOL     OW10172   3.208   3.444   2.189
  168SOL    HW110173   3.225   3.529   2.238
  168SOL    HW210174   3.254   3.368   2.235
  169SOL     OW10175   4.608   3.581   1.659
  169SOL    HW110176   4.610   3.664   1.716
  169SOL    HW210177   4.521   3.578   1.609
  170SOL     OW10178   4.006   2.669   1.790
  170SOL    HW110179   3.972   2.593   1.846
  170SOL    HW210180   4.101   2.652   1.766
  171SOL     OW10181   2.600   0.562   1.932
  171SOL    HW110182   2.524   0.623   1.908
  171SOL    HW210183   2.570   0.467   1.921
  172SOL     OW10184   2.426   9.144   0.837
  172SOL    HW110185   2.380   9.212   0.780
  172SOL    HW210186   2.517   9.175   0.861
  173SOL     OW10187   3.416   5.190   0.789
  173SOL    HW110188   3.430   5.134   0.707
  173SOL    HW210189   3.405   5.286   0.762
  174SOL     OW10190   2.710   1.083   1.909
  174SOL    HW110191   2.787   1.019   1.907
  174SOL    HW210192   2.741   1.171   1.943
  175SOL     OW10193   4.076   1.424   0.488
  175SOL    HW110194   4.046   1.507   0.441
  175SOL    HW210195   4.172   1.406   0.467
  176SOL     OW10196   3.372   1.139   0.698
  176SOL    HW110197   3.285   1.172   0.662
  176SOL    HW210198   3.360   1.048   0.737
  177SOL     OW10199   2.340   1.642   1.991
  177SOL    HW110200   2.424   1.618   2.041
  177SOL    HW210201   2.264   1.647   2.056
  178SOL     OW10202   4.263   4.010   0.301
  178SOL    HW110203   4.232   4.104   0.319
  178SOL    HW210204   4.189   3.946   0.324
  179SOL     OW10205   2.582   1.828   1.671
  179SOL    HW110206   2.646   1.806   1.597
  179SOL    HW210207   2.632   1.848   1.755
  180SOL     OW10208   4.637   3.376   1.075
  180SOL    HW110209   4.590   3.407   0.993
  180SOL    HW210210   4.634   3.448   1.145
  181SOL     OW10211   4.223   2.813   0.305
  181SOL    HW110212   4.294   2.745   0.320
  181SOL    HW210213   4.133   2.769   0.307
  182SOL     OW10214   5.155   3.141   1.782
  182SOL    HW110215   5.065   3.151   1.824
  182SOL    HW210216   5.197   3.231   1.773
  183SOL     OW10217   2.413   2.166   0.683
  183SOL    HW110218   2.444   2.072   0.667
  183SOL    HW210219   2.316   2.173   0.660
  184SOL     OW10220   3.153   2.459   1.240
  184SOL    HW110221   3.226   2.417   1.294
  184SOL    HW210222   3.137   2.552   1.273
  185SOL     OW10223   2.346   2.812   2.302
  185SOL    HW110224   2.291   2.736   2.337
  185SOL    HW210225   2.327   2.825   2.205
  186SOL     OW10226   2.622   0.297   1.468
  186SOL    HW110227   2.718   0.320   1.456
  186SOL    HW210228   2.614   0.211   1.519
  187SOL     OW10229   3.968   3.563   0.639
  187SOL    HW110230   4.061   3.560   0.601
  187SOL    HW210231   3.922   3.646   0.607
  188SOL     OW10232   2.677   0.863   0.883
  188SOL    HW110233   2.667   0.838   0.979
  188SOL    HW210234   2.595   0.835   0.832
  189SOL     OW10235   2.657   4.364   1.306
  189SOL    HW110236   2.634   4.386   1.211
  189SOL    HW210237   2.744   4.409   1.330
  190SOL     OW10238   3.547   3.061   1.399
  190SOL    HW110239   3.586   3.151   1.382
  190SOL    HW210240   3.563   3.035   1.494
  191SOL     OW10241   2.835   4.187   1.737
  191SOL    HW110242   2.736   4.180   1.749
  191SOL    HW210243   2.874   4.096   1.730
  192SOL     OW10244   4.884   2.551   0.985
  192SOL    HW110245   4.940   2.472   1.011
  192SOL    HW210246   4.874   2.612   1.063
  193SOL     OW10247   2.487   1.385   1.118
  193SOL    HW110248   2.505   1.400   1.021
  193SOL    HW210249   2.489   1.472   1.167
  194SOL     OW10250   2.521   3.458   1.602
  194SOL    HW110251   2.615   3.424   1.593
  194SOL    HW210252   2.505   3.529   1.533
  195SOL     OW10253   3.559   9.540   1.651
  195SOL    HW110254   3.638   9.494   1.610
  195SOL    HW210255   3.585   9.631   1.683
  196SOL     OW10256   3.257   9.802   2.283
  196SOL    HW110257   3.220   9.889   2.316
  196SOL    HW210258   3.341   9.781   2.333
  197SOL     OW10259   3.950   1.412   0.733
  197SOL    HW110260   3.988   1.489   0.784
  197SOL    HW210261   3.992   1.408   0.643
  198SOL     OW10262   3.972   3.907   1.813
  198SOL    HW110263   3.940   3.952   1.896
  198SOL    HW210264   3.901   3.845   1.779
  199SOL     OW10265   2.964   1.804   0.527
  199SOL    HW110266   2.922   1.778   0.614
  199SOL    HW210267   2.998   1.898   0.533
  200SOL     OW10268   3.757   2.760   1.864
  200SOL    HW110269   3.854   2.750   1.844
  200SOL    HW210270   3.744   2.836   1.929
  201SOL     OW10271   3.161   9.874   0.809
  201SOL    HW110272   3.108   9.814   0.869
  201SOL    HW210273   3.129   9.968   0.818
  202SOL     OW10274   2.890   2.098   2.100
  202SOL    HW110275   2.829   2.131   2.172
  202SOL    HW210276   2.841   2.098   2.013
  203SOL     OW10277   3.393   2.682   1.325
  203SOL    HW110278   3.437   2.765   1.290
  203SOL    HW210279   3.459   2.629   1.379
  204SOL     OW10280   2.954   4.451   2.152
  204SOL    HW110281   2.989   4.379   2.092
  204SOL    HW210282   2.896   4.410   2.223
  205SOL     OW10283   2.124   1.286   0.630
  205SOL    HW110284   2.206   1.334   0.598
  205SOL    HW210285   2.043   1.341   0.609
  206SOL     OW10286   3.407   8.673   2.029
  206SOL    HW110287   3.404   8.613   1.949
  206SOL    HW210288   3.432   8.620   2.110
  207SOL     OW10289   3.556   5.231   1.564
  207SOL    HW110290   3.479   5.277   1.609
  207SOL    HW210291   3.632   5.224   1.628
  208SOL     OW10292   3.523   0.892   1.250
  208SOL    HW110293   3.527   0.896   1.150
  208SOL    HW210294   3.590   0.955   1.289
  209SOL     OW10295   2.209   0.242   2.017
  209SOL    HW110296   2.221   0.336   1.986
  209SOL    HW210297   2.229   0.236   2.114
  210SOL     OW10298   4.552   1.937   1.396
  210SOL    HW110299   4.638   1.972   1.433
  210SOL    HW210300   4.544   1.840   1.420
  211SOL     OW10301   3.415   9.098   1.710
  211SOL    HW110302   3.407   9.107   1.611
  211SOL    HW210303   3.488   9.157   1.744
  212SOL     OW10304   2.305   0.285   1.099
  212SOL    HW110305   2.383   0.244   1.147
  212SOL    HW210306   2.329   0.378   1.071
  213SOL     OW10307   2.690   0.111   0.967
  213SOL    HW110308   2.783   0.104   1.004
  213SOL    HW210309   2.633   0.041   1.009
  214SOL     OW10310   2.356   1.087   1.634
  214SOL    HW110311   2.283   1.153   1.615
  214SOL    HW210312   2.395   1.054   1.548
  215SOL     OW10313   3.243   4.051   1.684
  215SOL    HW110314   3.275   3.975   1.627
  215SOL    HW210315   3.319   4.087   1.738
  216SOL     OW10316   3.237   3.414   1.001
  216SOL    HW110317   3.146   3.388   0.969
  216SOL    HW210318   3.306   3.385   0.934
  217SOL     OW10319   2.475   2.636   2.023
  217SOL    HW110320   2.419   2.719   2.021
  217SOL    HW210321   2.431   2.565   1.968
  218SOL     OW10322   4.512   3.510   0.869
  218SOL    HW110323   4.478   3.602   0.889
  218SOL    HW210324   4.461   3.470   0.793
  219SOL     OW10325   3.212   0.284   1.209
  219SOL    HW110326   3.192   0.186   1.207
  219SOL    HW210327   3.255   0.307   1.296
  220SOL     OW10328   3.570   8.865   1.916
  220SOL    HW110329   3.563   8.960   1.947
  220SOL    HW210330   3.504   8.809   1.965
  221SOL     OW10331   2.653   1.802   2.157
  221SOL    HW110332   2.618   1.708   2.160
  221SOL    HW210333   2.747   1.803   2.191
  222SOL     OW10334   4.006   1.194   1.046
  222SOL    HW110335   3.941   1.185   0.971
  222SOL    HW210336   4.029   1.290   1.059
  223SOL     OW10337   2.161   0.862   0.436
  223SOL    HW110338   2.101   0.928   0.392
  223SOL    HW210339   2.215   0.815   0.366
  224SOL     OW10340   2.563   2.329   2.047
  224SOL    HW110341   2.483   2.357   1.994
  224SOL    HW210342   2.629   2.404   2.047
  225SOL     OW10343   2.342   0.711   0.285
  225SOL    HW110344   2.430   0.750   0.311
  225SOL    HW210345   2.334   0.618   0.321
  226SOL     OW10346   2.952   9.674   1.376
  226SOL    HW110347   2.982   9.579   1.372
  226SOL    HW210348   3.027   9.732   1.407
  227SOL     OW10349   2.994   1.806   1.121
  227SOL    HW110350   2.927   1.848   1.059
  227SOL    HW210351   2.953   1.793   1.211
  228SOL     OW10352   2.788   0.555   2.140
  228SOL    HW110353   2.716   0.568   2.072
  228SOL    HW210354   2.795   0.457   2.163
  229SOL     OW10355   3.211   3.766   0.535
  229SOL    HW110356   3.271   3.699   0.491
  229SOL    HW210357   3.260   3.811   0.610
  230SOL     OW10358   2.286   0.774   2.319
  230SOL    HW110359   2.235   0.841   2.374
  230SOL    HW210360   2.228   0.740   2.246
  231SOL     OW10361   3.647   0.259   0.759
  231SOL    HW110362   3.567   0.319   0.770
  231SOL    HW210363   3.730   0.314   0.761
  232SOL     OW10364   3.584   3.503   0.807
  232SOL    HW110365   3.554   3.598   0.794
  232SOL    HW210366   3.682   3.503   0.829
  233SOL     OW10367   3.255   1.987   1.743
  233SOL    HW110368   3.297   2.071   1.708
  233SOL    HW210369   3.206   1.940   1.669
  234SOL     OW10370   2.483   8.928   1.009
  234SOL    HW110371   2.443   8.995   0.947
  234SOL    HW210372   2.465   8.957   1.104
  235SOL     OW10373   3.527   4.845   1.751
  235SOL    HW110374   3.490   4.756   1.724
  235SOL    HW210375   3.558   4.894   1.670
  236SOL     OW10376   2.888   1.730   1.761
  236SOL    HW110377   2.837   1.791   1.822
  236SOL    HW210378   2.858   1.636   1.776
  237SOL     OW10379   2.865   3.981   2.018
  237SOL    HW110380   2.876   3.890   2.058
  237SOL    HW210381   2.773   3.991   1.982
  238SOL     OW10382   4.221   3.587   0.540
  238SOL    HW110383   4.279   3.513   0.574
  238SOL    HW210384   4.242   3.671   0.589
  239SOL     OW10385   2.865   1.719   0.763
  239SOL    HW110386   2.923   1.644   0.794
  239SOL    HW210387   2.857   1.787   0.835
  240SOL     OW10388   2.253   2.628   1.762
  240SOL    HW110389   2.274   2.607   1.667
  240SOL    HW210390   2.224   2.724   1.769
  241SOL     OW10391   3.027   4.246   1.983
  241SOL    HW110392   3.087   4.283   1.912
  241SOL    HW210393   2.952   4.195   1.939
  242SOL     OW10394   2.423   4.123   0.565
  242SOL    HW110395   2.458   4.193   0.504
  242SOL    HW210396   2.456   4.033   0.535
  243SOL     OW10397   2.459   9.895   1.988
  243SOL    HW110398   2.538   9.929   1.937
  243SOL    HW210399   2.486   9.872   2.082
  244SOL     OW10400   3.504   8.613   1.346
  244SOL    HW110401   3.586   8.558   1.361
  244SOL    HW210402   3.429   8.554   1.317
  245SOL     OW10403   2.716   1.894   1.902
  245SOL    HW110404   2.688   1.864   1.993
  245SOL    HW210405   2.703   1.993   1.894
  246SOL     OW10406   2.826   0.277   1.976
  246SOL    HW110407   2.730   0.283   1.952
  246SOL    HW210408   2.880   0.333   1.913
  247SOL     OW10409   4.120   4.184   1.528
  247SOL    HW110410   4.138   4.088   1.552
  247SOL    HW210411   4.144   4.199   1.432
  248SOL     OW10412   2.497   2.763   1.527
  248SOL    HW110413   2.426   2.694   1.513
  248SOL    HW210414   2.582   2.719   1.556
  249SOL     OW10415   2.460   2.541   1.015
  249SOL    HW110416   2.493   2.630   0.981
  249SOL    HW210417   2.366   2.527   0.984
  250SOL     OW10418   2.234   2.590   0.266
  250SOL    HW110419   2.274   2.584   0.174
  250SOL    HW210420   2.143   2.550   0.265
  251SOL     OW10421   2.765   2.508   2.045
  251SOL    HW110422   2.781   2.593   2.095
  251SOL    HW210423   2.851   2.458   2.036
  252SOL     OW10424   2.220   3.520   1.400
  252SOL    HW110425   2.305   3.572   1.410
  252SOL    HW210426   2.209   3.459   1.479
  253SOL     OW10427   3.939   2.156   1.313
  253SOL    HW110428   3.998   2.078   1.330
  253SOL    HW210429   3.949   2.185   1.218
  254SOL     OW10430   2.404   0.171   1.708
  254SOL    HW110431   2.340   0.112   1.757
  254SOL    HW210432   2.358   0.257   1.685
  255SOL     OW10433   3.053   0.127   0.836
  255SOL    HW110434   3.008   0.102   0.921
  255SOL    HW210435   3.134   0.182   0.855
  256SOL     OW10436   4.446   2.679   2.310
  256SOL    HW110437   4.535   2.719   2.286
  256SOL    HW210438   4.377   2.707   2.243
  257SOL     OW10439   3.810   3.094   1.187
  257SOL    HW110440   3.752   3.160   1.235
  257SOL    HW210441   3.826   3.126   1.093
  258SOL     OW10442   3.711   1.087   1.296
  258SOL    HW110443   3.707   1.181   1.330
  258SOL    HW210444   3.806   1.059   1.288
  259SOL     OW10445   5.006   3.190   1.522
  259SOL    HW110446   5.057   3.158   1.602
  259SOL    HW210447   4.997   3.289   1.526
  260SOL     OW10448   3.530   2.262   0.350
  260SOL    HW110449   3.519   2.353   0.389
  260SOL    HW210450   3.440   2.220   0.338
  261SOL     OW10451   4.000   4.033   0.671
  261SOL    HW110452   4.097   4.052   0.655
  261SOL    HW210453   3.976   4.058   0.765
  262SOL     OW10454   3.122   9.577   1.809
  262SOL    HW110455   3.089   9.663   1.848
  262SOL    HW210456   3.045   9.515   1.794
  263SOL     OW10457   2.449   4.465   0.604
  263SOL    HW110458   2.461   4.419   0.517
  263SOL    HW210459   2.371   4.425   0.653
  264SOL     OW10460   2.797   1.424   1.001
  264SOL    HW110461   2.873   1.360   0.988
  264SOL    HW210462   2.828   1.499   1.059
  265SOL     OW10463   2.195   2.066   0.947
  265SOL    HW110464   2.168   2.090   0.854
  265SOL    HW210465   2.284   2.109   0.968
  266SOL     OW10466   3.429   0.628   1.275
  266SOL    HW110467   3.385   0.612   1.186
  266SOL    HW210468   3.468   0.720   1.277
  267SOL     OW10469   2.159   1.009   0.672
  267SOL    HW110470   2.131   1.103   0.651
  267SOL    HW210471   2.157   0.954   0.588
  268SOL     OW10472   2.483   3.111   1.868
  268SOL    HW110473   2.558   3.065   1.819
  268SOL    HW210474   2.401   3.111   1.811
  269SOL     OW10475   2.646   5.064   0.920
  269SOL    HW110476   2.648   5.027   0.827
  269SOL    HW210477   2.672   4.994   0.985
  270SOL     OW10478   3.665   4.037   2.274
  270SOL    HW110479   3.754   4.078   2.294
  270SOL    HW210480   3.599   4.108   2.249
  271SOL     OW10481   2.351   9.837   0.779
  271SOL    HW110482   2.295   9.884   0.847
  271SOL    HW210483   2.347   9.887   0.692
  272SOL     OW10484   4.460   4.009   1.501
  272SOL    HW110485   4.444   3.990   1.598
  272SOL    HW210486   4.461   4.108   1.487
  273SOL     OW10487   4.806   2.984   1.107
  273SOL    HW110488   4.843   3.007   1.197
  273SOL    HW210489   4.822   3.059   1.043
  274SOL     OW10490   3.717   2.331   0.880
  274SOL    HW110491   3.618   2.326   0.871
  274SOL    HW210492   3.741   2.367   0.971
  275SOL     OW10493   3.122   4.090   2.197
  275SOL    HW110494   3.138   3.999   2.160
  275SOL    HW210495   3.096   4.152   2.123
  276SOL     OW10496   4.339   2.100   1.341
  276SOL    HW110497   4.323   2.101   1.242
  276SOL    HW210498   4.422   2.047   1.361
  277SOL     OW10499   3.218   9.507   0.657
  277SOL    HW110500   3.121   9.498   0.678
  277SOL    HW210501   3.258   9.416   0.644
  278SOL     OW10502   3.221   8.792   0.602
  278SOL    HW110503   3.126   8.798   0.572
  278SOL    HW210504   3.280   8.829   0.530
  279SOL     OW10505   2.313   0.692   0.594
  279SOL    HW110506   2.317   0.603   0.549
  279SOL    HW210507   2.243   0.749   0.549
  280SOL     OW10508   2.937   3.474   2.131
  280SOL    HW110509   3.036   3.467   2.147
  280SOL    HW210510   2.911   3.571   2.126
  281SOL     OW10511   2.961   3.224   0.416
  281SOL    HW110512   2.975   3.274   0.501
  281SOL    HW210513   2.997   3.278   0.339
  282SOL     OW10514   2.875   2.199   0.700
  282SOL    HW110515   2.801   2.226   0.761
  282SOL    HW210516   2.962   2.231   0.737
  283SOL     OW10517   3.094   9.067   0.826
  283SOL    HW110518   3.087   9.160   0.861
  283SOL    HW210519   3.016   9.048   0.766
  284SOL     OW10520   2.916   0.986   2.235
  284SOL    HW110521   2.947   0.891   2.232
  284SOL    HW210522   2.817   0.990   2.223
  285SOL     OW10523   4.444   4.277   1.370
  285SOL    HW110524   4.355   4.248   1.336
  285SOL    HW210525   4.438   4.370   1.405
  286SOL     OW10526   3.173   5.168   0.922
  286SOL    HW110527   3.263   5.174   0.877
  286SOL    HW210528   3.173   5.226   1.003
  287SOL     OW10529   3.480   2.503   0.474
  287SOL    HW110530   3.501   2.517   0.570
  287SOL    HW210531   3.519   2.578   0.420
  288SOL     OW10532   2.758   9.266   0.643
  288SOL    HW110533   2.720   9.267   0.736
  288SOL    HW210534   2.688   9.238   0.578
  289SOL     OW10535   2.114   1.348   2.115
  289SOL    HW110536   2.186   1.283   2.092
  289SOL    HW210537   2.084   1.395   2.031
  290SOL     OW10538   3.050   0.652   0.998
  290SOL    HW110539   2.997   0.633   0.916
  290SOL    HW210540   3.026   0.587   1.070
  291SOL     OW10541   2.500   3.041   2.323
  291SOL    HW110542   2.526   3.050   2.419
  291SOL    HW210543   2.433   2.967   2.313
  292SOL     OW10544   3.688   9.478   1.081
  292SOL    HW110545   3.687   9.575   1.106
  292SOL    HW210546   3.628   9.463   1.003
  293SOL     OW10547   2.791   9.069   1.993
  293SOL    HW110548   2.890   9.059   2.005
  293SOL    HW210549   2.744   8.997   2.042
  294SOL     OW10550   2.819   3.617   1.720
  294SOL    HW110551   2.914   3.646   1.709
  294SOL    HW210552   2.805   3.529   1.674
  295SOL     OW10553   3.458   5.020   0.579
  295SOL    HW110554   3.541   5.018   0.524
  295SOL    HW210555   3.444   4.931   0.622
  296SOL     OW10556   2.375   3.055   0.683
  296SOL    HW110557   2.320   3.137   0.697
  296SOL    HW210558   2.403   3.049   0.588
  297SOL     OW10559   2.938   0.054   1.866
  297SOL    HW110560   3.011   0.088   1.806
  297SOL    HW210561   2.898   0.130   1.917
  298SOL     OW10562   3.521   1.198   0.476
  298SOL    HW110563   3.608   1.148   0.472
  298SOL    HW210564   3.474   1.176   0.562
  299SOL     OW10565   3.027   9.201   1.694
  299SOL    HW110566   3.096   9.186   1.765
  299SOL    HW210567   3.071   9.194   1.604
  300SOL     OW10568   4.262   4.084   0.640
  300SOL    HW110569   4.329   4.067   0.713
  300SOL    HW210570   4.288   4.168   0.592
  301SOL     OW10571   2.992   3.668   0.667
  301SOL    HW110572   3.002   3.698   0.762
  301SOL    HW210573   3.069   3.702   0.613
  302SOL     OW10574   2.989   2.916   1.062
  302SOL    HW110575   2.912   2.852   1.064
  302SOL    HW210576   3.013   2.941   1.156
  303SOL     OW10577   3.353   0.900   0.826
  303SOL    HW110578   3.268   0.907   0.878
  303SOL    HW210579   3.431   0.904   0.889
  304SOL     OW10580   2.826   3.727   2.129
  304SOL    HW110581   2.781   3.769   2.208
  304SOL    HW210582   2.756   3.693   2.066
  305SOL     OW10583   3.025   1.491   0.785
  305SOL    HW110584   3.029   1.405   0.836
  305SOL    HW210585   3.015   1.471   0.688
  306SOL     OW10586   2.758   9.281   2.170
  306SOL    HW110587   2.755   9.215   2.095
  306SOL    HW210588   2.830   9.349   2.151
  307SOL     OW10589   3.458   2.593   1.071
  307SOL    HW110590   3.419   2.606   1.162
  307SOL    HW210591   3.450   2.679   1.019
  308SOL     OW10592   2.741   1.316   1.347
  308SOL    HW110593   2.715   1.364   1.432
  308SOL    HW210594   2.658   1.285   1.300
  309SOL     OW10595   3.115   9.258   2.200
  309SOL    HW110596   3.093   9.172   2.154
  309SOL    HW210597   3.063   9.332   2.157
  310SOL     OW10598   4.606   2.376   0.998
  310SOL    HW110599   4.674   2.375   0.924
  310SOL    HW210600   4.543   2.453   0.984
  311SOL     OW10601   3.813   2.378   1.435
  311SOL    HW110602   3.821   2.354   1.531
  311SOL    HW210603   3.842   2.302   1.378
  312SOL     OW10604   3.372   2.352   1.391
  312SOL    HW110605   3.416   2.302   1.316
  312SOL    HW210606   3.435   2.420   1.427
  313SOL     OW10607   3.515   1.134   1.623
  313SOL    HW110608   3.507   1.221   1.574
  313SOL    HW210609   3.600   1.088   1.596
  314SOL     OW10610   2.791   8.731   1.955
  314SOL    HW110611   2.811   8.793   1.880
  314SOL    HW210612   2.745   8.781   2.028
  315SOL     OW10613   4.031   2.250   2.351
  315SOL    HW110614   3.996   2.234   2.443
  315SOL    HW210615   4.128   2.273   2.356
  316SOL     OW10616   2.466   3.795   2.044
  316SOL    HW110617   2.536   3.738   2.000
  316SOL    HW210618   2.412   3.739   2.107
  317SOL     OW10619   4.382   2.991   0.440
  317SOL    HW110620   4.314   2.935   0.394
  317SOL    HW210621   4.394   3.077   0.390
  318SOL     OW10622   2.783   3.376   1.590
  318SOL    HW110623   2.815   3.297   1.642
  318SOL    HW210624   2.831   3.381   1.503
  319SOL     OW10625   2.942   2.739   1.903
  319SOL    HW110626   2.957   2.821   1.958
  319SOL    HW210627   2.844   2.727   1.886
  320SOL     OW10628   3.442   4.603   1.660
  320SOL    HW110629   3.343   4.612   1.655
  320SOL    HW210630   3.466   4.518   1.708
  321SOL     OW10631   3.595   3.375   2.136
  321SOL    HW110632   3.537   3.313   2.188
  321SOL    HW210633   3.682   3.388   2.183
  322SOL     OW10634   2.901   9.487   0.574
  322SOL    HW110635   2.864   9.499   0.482
  322SOL    HW210636   2.854   9.411   0.619
  323SOL     OW10637   2.515   0.261   2.188
  323SOL    HW110638   2.471   0.350   2.199
  323SOL    HW210639   2.539   0.225   2.278
  324SOL     OW10640   4.730   2.398   0.499
  324SOL    HW110641   4.711   2.489   0.536
  324SOL    HW210642   4.796   2.405   0.425
  325SOL     OW10643   3.094   9.320   0.924
  325SOL    HW110644   3.177   9.315   0.980
  325SOL    HW210645   3.024   9.373   0.973
  326SOL     OW10646   3.312   9.485   1.217
  326SOL    HW110647   3.236   9.464   1.278
  326SOL    HW210648   3.329   9.407   1.157
  327SOL     OW10649   3.563   0.675   2.161
  327SOL    HW110650   3.479   0.652   2.210
  327SOL    HW210651   3.545   0.678   2.063
  328SOL     OW10652   3.241   1.443   1.681
  328SOL    HW110653   3.185   1.360   1.678
  328SOL    HW210654   3.220   1.494   1.764
  329SOL     OW10655   3.552   4.289   0.934
  329SOL    HW110656   3.511   4.368   0.979
  329SOL    HW210657   3.484   4.245   0.875
  330SOL     OW10658   2.590   2.672   0.549
  330SOL    HW110659   2.505   2.707   0.509
  330SOL    HW210660   2.579   2.576   0.572
  331SOL     OW10661   3.865   3.599   1.287
  331SOL    HW110662   3.954   3.603   1.332
  331SOL    HW210663   3.874   3.637   1.194
  332SOL     OW10664   4.465   3.525   1.988
  332SOL    HW110665   4.421   3.573   1.912
  332SOL    HW210666   4.416   3.545   2.073
  333SOL     OW10667   4.013   3.319   1.325
  333SOL    HW110668   4.026   3.312   1.227
  333SOL    HW210669   3.917   3.300   1.347
  334SOL     OW10670   3.835   5.040   0.917
  334SOL    HW110671   3.745   5.082   0.925
  334SOL    HW210672   3.844   4.999   0.826
  335SOL     OW10673   2.834   4.301   0.772
  335SOL    HW110674   2.813   4.208   0.803
  335SOL    HW210675   2.930   4.322   0.793
  336SOL     OW10676   3.996   3.654   2.159
  336SOL    HW110677   4.026   3.629   2.067
  336SOL    HW210678   3.919   3.717   2.153
  337SOL     OW10679   3.683   4.730   0.372
  337SOL    HW110680   3.709   4.705   0.465
  337SOL    HW210681   3.669   4.646   0.318
  338SOL     OW10682   3.920   2.713   0.923
  338SOL    HW110683   3.873   2.656   0.855
  338SOL    HW210684   3.855   2.745   0.991
  339SOL     OW10685   4.517   2.233   0.442
  339SOL    HW110686   4.596   2.290   0.460
  339SOL    HW210687   4.504   2.224   0.343
  340SOL     OW10688   2.109   1.257   1.308
  340SOL    HW110689   2.127   1.259   1.406
  340SOL    HW210690   2.109   1.162   1.276
  341SOL     OW10691   4.208   4.004   1.954
  341SOL    HW110692   4.214   3.955   2.041
  341SOL    HW210693   4.130   3.970   1.902
  342SOL     OW10694   4.111   4.747   1.103
  342SOL    HW110695   4.061   4.832   1.124
  342SOL    HW210696   4.107   4.729   1.005
  343SOL     OW10697   3.508   2.893   1.194
  343SOL    HW110698   3.597   2.864   1.159
  343SOL    HW210699   3.522   2.957   1.270
  344SOL     OW10700   3.172   3.038   0.897
  344SOL    HW110701   3.094   2.992   0.940
  344SOL    HW210702   3.176   3.014   0.800
  345SOL     OW10703   2.163   1.042   1.120
  345SOL    HW110704   2.186   1.134   1.089
  345SOL    HW210705   2.153   0.981   1.042
  346SOL     OW10706   3.349   9.273   1.049
  346SOL    HW110707   3.415   9.310   0.984
  346SOL    HW210708   3.370   9.176   1.066
  347SOL     OW10709   3.274   0.249   0.943
  347SOL    HW110710   3.358   0.196   0.950
  347SOL    HW210711   3.248   0.283   1.033
  348SOL     OW10712   4.183   0.904   0.800
  348SOL    HW110713   4.196   0.943   0.891
  348SOL    HW210714   4.090   0.923   0.769
  349SOL     OW10715   3.721   1.340   1.406
  349SOL    HW110716   3.644   1.360   1.467
  349SOL    HW210717   3.807   1.347   1.458
  350SOL     OW10718   2.397   0.738   1.853
  350SOL    HW110719   2.408   0.832   1.887
  350SOL    HW210720   2.392   0.740   1.753
  351SOL     OW10721   4.526   2.926   1.802
  351SOL    HW110722   4.560   2.847   1.751
  351SOL    HW210723   4.595   2.954   1.869
  352SOL     OW10724   2.172   2.894   1.801
  352SOL    HW110725   2.213   2.970   1.750
  352SOL    HW210726   2.073   2.904   1.802
  353SOL     OW10727   4.162   2.278   1.454
  353SOL    HW110728   4.073   2.248   1.419
  353SOL    HW210729   4.234   2.218   1.418
  354SOL     OW10730   2.392   0.505   2.209
  354SOL    HW110731   2.457   0.581   2.200
  354SOL    HW210732   2.348   0.509   2.299
  355SOL     OW10733   3.198   4.360   1.798
  355SOL    HW110734   3.229   4.318   1.713
  355SOL    HW210735   3.182   4.458   1.783
  356SOL     OW10736   3.812   4.332   0.855
  356SOL    HW110737   3.860   4.248   0.880
  356SOL    HW210738   3.714   4.322   0.874
  357SOL     OW10739   3.249   3.406   1.919
  357SOL    HW110740   3.237   3.423   2.017
  357SOL    HW210741   3.230   3.310   1.899
  358SOL     OW10742   4.697   2.721   0.872
  358SOL    HW110743   4.637   2.750   0.947
  358SOL    HW210744   4.768   2.661   0.909
  359SOL     OW10745   3.443   2.378   0.897
  359SOL    HW110746   3.390   2.296   0.919
  359SOL    HW210747   3.437   2.442   0.973
  360SOL     OW10748   3.359   1.208   2.056
  360SOL    HW110749   3.299   1.167   1.988
  360SOL    HW210750   3.387   1.299   2.025
  361SOL     OW10751   2.331   0.018   0.557
  361SOL    HW110752   2.289   0.073   0.629
  361SOL    HW210753   2.380   0.078   0.494
  362SOL     OW10754   2.666   2.542   1.192
  362SOL    HW110755   2.661   2.470   1.261
  362SOL    HW210756   2.584   2.540   1.135
  363SOL     OW10757   4.305   1.499   2.228
  363SOL    HW110758   4.251   1.481   2.146
  363SOL    HW210759   4.259   1.567   2.284
  364SOL     OW10760   4.115   2.249   0.673
  364SOL    HW110761   4.161   2.318   0.729
  364SOL    HW210762   4.018   2.271   0.666
  365SOL     OW10763   3.425   0.408   0.776
  365SOL    HW110764   3.388   0.495   0.745
  365SOL    HW210765   3.356   0.360   0.830
  366SOL     OW10766   3.761   3.760   1.705
  366SOL    HW110767   3.675   3.727   1.744
  366SOL    HW210768   3.744   3.803   1.616
  367SOL     OW10769   3.534   3.647   1.815
  367SOL    HW110770   3.436   3.666   1.815
  367SOL    HW210771   3.549   3.548   1.819
  368SOL     OW10772   3.036   9.715   1.000
  368SOL    HW110773   3.106   9.730   1.069
  368SOL    HW210774   2.998   9.623   1.010
  369SOL     OW10775   4.413   3.339   1.367
  369SOL    HW110776   4.498   3.291   1.347
  369SOL    HW210777   4.378   3.381   1.283
  370SOL     OW10778   3.885   4.038   2.036
  370SOL    HW110779   3.845   3.952   2.067
  370SOL    HW210780   3.904   4.097   2.114
  371SOL     OW10781   2.355   9.240   1.095
  371SOL    HW110782   2.363   9.202   1.003
  371SOL    HW210783   2.381   9.171   1.162
  372SOL     OW10784   3.248   2.354   0.519
  372SOL    HW110785   3.326   2.416   0.507
  372SOL    HW210786   3.255   2.278   0.454
  373SOL     OW10787   3.955   2.830   1.569
  373SOL    HW110788   4.042   2.858   1.528
  373SOL    HW210789   3.973   2.774   1.651
  374SOL     OW10790   2.337   3.250   0.300
  374SOL    HW110791   2.282   3.180   0.254
  374SOL    HW210792   2.302   3.340   0.275
  375SOL     OW10793   2.203   2.440   1.294
  375SOL    HW110794   2.183   2.520   1.237
  375SOL    HW210795   2.118   2.389   1.310
  376SOL     OW10796   4.434   4.272   1.065
  376SOL    HW110797   4.509   4.279   0.999
  376SOL    HW210798   4.466   4.304   1.155
  377SOL     OW10799   3.935   3.549   1.676
  377SOL    HW110800   3.865   3.619   1.686
  377SOL    HW210801   3.892   3.462   1.653
  378SOL     OW10802   3.168   2.727   0.367
  378SOL    HW110803   3.144   2.669   0.289
  378SOL    HW210804   3.115   2.811   0.363
  379SOL     OW10805   3.085   1.220   1.652
  379SOL    HW110806   2.985   1.218   1.647
  379SOL    HW210807   3.114   1.178   1.738
  380SOL     OW10808   2.864   4.767   1.335
  380SOL    HW110809   2.826   4.800   1.248
  380SOL    HW210810   2.914   4.841   1.380
  381SOL     OW10811   3.690   8.547   1.082
  381SOL    HW110812   3.598   8.514   1.063
  381SOL    HW210813   3.724   8.504   1.166
  382SOL     OW10814   2.233   0.839   1.288
  382SOL    HW110815   2.195   0.908   1.226
  382SOL    HW210816   2.171   0.826   1.365
  383SOL     OW10817   3.289   9.568   1.599
  383SOL    HW110818   3.383   9.550   1.625
  383SOL    HW210819   3.231   9.570   1.681
  384SOL     OW10820   4.117   1.681   1.380
  384SOL    HW110821   4.170   1.597   1.384
  384SOL    HW210822   4.039   1.669   1.319
  385SOL     OW10823   2.548   0.774   0.475
  385SOL    HW110824   2.620   0.732   0.531
  385SOL    HW210825   2.459   0.754   0.515
  386SOL     OW10826   3.516   9.336   1.862
  386SOL    HW110827   3.549   9.401   1.794
  386SOL    HW210828   3.434   9.373   1.907
  387SOL     OW10829   3.560   0.351   1.143
  387SOL    HW110830   3.548   0.264   1.096
  387SOL    HW210831   3.473   0.401   1.145
  388SOL     OW10832   4.429   2.192   0.900
  388SOL    HW110833   4.461   2.146   0.817
  388SOL    HW210834   4.504   2.243   0.941
  389SOL     OW10835   3.371   2.224   1.653
  389SOL    HW110836   3.367   2.255   1.558
  389SOL    HW210837   3.346   2.299   1.714
  390SOL     OW10838   3.117   0.691   1.373
  390SOL    HW110839   3.180   0.768   1.378
  390SOL    HW210840   3.107   0.661   1.278
  391SOL     OW10841   3.012   1.216   2.122
  391SOL    HW110842   2.988   1.134   2.174
  391SOL    HW210843   3.063   1.279   2.180
  392SOL     OW10844   3.516   2.245   1.185
  392SOL    HW110845   3.592   2.307   1.165
  392SOL    HW210846   3.518   2.168   1.122
  393SOL     OW10847   2.738   9.705   1.827
  393SOL    HW110848   2.834   9.707   1.856
  393SOL    HW210849   2.701   9.798   1.826
  394SOL     OW10850   2.675   9.036   1.386
  394SOL    HW110851   2.737   8.971   1.430
  394SOL    HW210852   2.685   9.126   1.430
  395SOL     OW10853   2.110   0.139   1.554
  395SOL    HW110854   2.122   0.100   1.645
  395SOL    HW210855   2.120   0.068   1.485
  396SOL     OW10856   4.069   3.292   1.055
  396SOL    HW110857   3.981   3.286   1.009
  396SOL    HW210858   4.129   3.218   1.023
  397SOL     OW10859   1.893   1.756   0.545
  397SOL    HW110860   1.951   1.716   0.617
  397SOL    HW210861   1.951   1.802   0.477
  398SOL     OW10862   3.841   3.417   2.246
  398SOL    HW110863   3.895   3.500   2.233
  398SOL    HW210864   3.902   3.340   2.264
  399SOL     OW10865   4.029   2.693   0.552
  399SOL    HW110866   4.123   2.666   0.572
  399SOL    HW210867   3.966   2.645   0.613
  400SOL     OW10868   3.222   2.930   2.281
  400SOL    HW110869   3.281   2.853   2.302
  400SOL    HW210870   3.133   2.917   2.326
  401SOL     OW10871   4.151   4.509   1.229
  401SOL    HW110872   4.131   4.587   1.170
  401SOL    HW210873   4.239   4.523   1.275
  402SOL     OW10874   2.659   1.438   1.584
  402SOL    HW110875   2.693   1.471   1.671
  402SOL    HW210876   2.576   1.488   1.559
  403SOL     OW10877   3.622   3.583   0.453
  403SOL    HW110878   3.641   3.678   0.475
  403SOL    HW210879   3.523   3.571   0.438
  404SOL     OW10880   3.090   1.102   1.176
  404SOL    HW110881   2.997   1.090   1.210
  404SOL    HW210882   3.150   1.128   1.251
  405SOL     OW10883   2.061   1.681   0.745
  405SOL    HW110884   2.148   1.636   0.763
  405SOL    HW210885   2.040   1.744   0.820
  406SOL     OW10886   3.884   4.632   1.768
  406SOL    HW110887   3.929   4.543   1.776
  406SOL    HW210888   3.813   4.627   1.698
  407SOL     OW10889   3.968   3.034   0.609
  407SOL    HW110890   3.988   3.022   0.512
  407SOL    HW210891   3.950   3.131   0.628
  408SOL     OW10892   2.915   3.962   1.351
  408SOL    HW110893   2.823   3.962   1.390
  408SOL    HW210894   2.970   4.032   1.396
  409SOL     OW10895   3.299   3.064   1.137
  409SOL    HW110896   3.262   3.057   1.045
  409SOL    HW210897   3.371   2.995   1.150
  410SOL     OW10898   2.649   3.356   0.784
  410SOL    HW110899   2.690   3.360   0.876
  410SOL    HW210900   2.644   3.261   0.755
  411SOL     OW10901   4.077   2.924   0.839
  411SOL    HW110902   4.019   2.849   0.870
  411SOL    HW210903   4.040   2.961   0.753
  412SOL     OW10904   2.348   9.953   1.192
  412SOL    HW110905   2.404   0.033   1.215
  412SOL    HW210906   2.402   9.870   1.206
  413SOL     OW10907   3.699   2.727   1.599
  413SOL    HW110908   3.786   2.754   1.557
  413SOL    HW210909   3.710   2.724   1.699
  414SOL     OW10910   3.045   2.541   0.527
  414SOL    HW110911   3.111   2.465   0.531
  414SOL    HW210912   3.082   2.614   0.470
  415SOL     OW10913   3.279   9.660   0.433
  415SOL    HW110914   3.269   9.758   0.451
  415SOL    HW210915   3.256   9.608   0.516
  416SOL     OW10916   3.136   0.914   0.978
  416SOL    HW110917   3.094   0.825   0.994
  416SOL    HW210918   3.119   0.974   1.056
  417SOL     OW10919   2.837   3.921   1.090
  417SOL    HW110920   2.822   3.823   1.085
  417SOL    HW210921   2.870   3.946   1.181
  418SOL     OW10922   3.632   2.100   1.748
  418SOL    HW110923   3.553   2.161   1.747
  418SOL    HW210924   3.610   2.016   1.700
  419SOL     OW10925   2.908   2.045   1.652
  419SOL    HW110926   2.973   1.982   1.610
  419SOL    HW210927   2.889   2.015   1.746
  420SOL     OW10928   4.180   4.276   0.958
  420SOL    HW110929   4.142   4.368   0.949
  420SOL    HW210930   4.273   4.282   0.995
  421SOL     OW10931   2.551   1.914   0.972
  421SOL    HW110932   2.482   1.844   0.990
  421SOL    HW210933   2.508   2.004   0.975
  422SOL     OW10934   3.578   1.893   0.541
  422SOL    HW110935   3.484   1.915   0.516
  422SOL    HW210936   3.579   1.819   0.608
  423SOL     OW10937   4.089   3.242   1.701
  423SOL    HW110938   4.143   3.209   1.623
  423SOL    HW210939   3.994   3.257   1.672
  424SOL     OW10940   3.573   0.092   1.806
  424SOL    HW110941   3.648   0.135   1.754
  424SOL    HW210942   3.566   9.996   1.778
  425SOL     OW10943   3.258   2.058   2.343
  425SOL    HW110944   3.217   2.141   2.304
  425SOL    HW210945   3.339   2.083   2.395
  426SOL     OW10946   3.452   3.291   1.147
  426SOL    HW110947   3.398   3.360   1.099
  426SOL    HW210948   3.399   3.206   1.155
  427SOL     OW10949   3.379   2.826   0.513
  427SOL    HW110950   3.468   2.808   0.470
  427SOL    HW210951   3.307   2.784   0.458
  428SOL     OW10952   2.773   9.817   1.066
  428SOL    HW110953   2.708   9.797   0.992
  428SOL    HW210954   2.847   9.751   1.064
  429SOL     OW10955   3.533   4.271   2.216
  429SOL    HW110956   3.463   4.294   2.149
  429SOL    HW210957   3.557   4.353   2.268
  430SOL     OW10958   4.531   2.480   1.521
  430SOL    HW110959   4.433   2.499   1.507
  430SOL    HW210960   4.573   2.460   1.433
  431SOL     OW10961   4.391   1.805   0.462
  431SOL    HW110962   4.410   1.796   0.559
  431SOL    HW210963   4.294   1.825   0.448
  432SOL     OW10964   3.096   8.529   1.510
  432SOL    HW110965   3.003   8.539   1.475
  432SOL    HW210966   3.094   8.521   1.610
  433SOL     OW10967   2.601   1.038   0.438
  433SOL    HW110968   2.688   1.049   0.389
  433SOL    HW210969   2.580   0.941   0.447
  434SOL     OW10970   3.305   8.715   1.506
  434SOL    HW110971   3.233   8.644   1.508
  434SOL    HW210972   3.384   8.680   1.457
  435SOL     OW10973   3.012   4.705   2.060
  435SOL    HW110974   2.993   4.616   2.102
  435SOL    HW210975   2.961   4.713   1.975
  436SOL     OW10976   3.690   3.315   0.478
  436SOL    HW110977   3.672   3.413   0.465
  436SOL    HW210978   3.771   3.304   0.536
  437SOL     OW10979   3.149   1.221   0.553
  437SOL    HW110980   3.096   1.305   0.540
  437SOL    HW210981   3.196   1.198   0.468
  438SOL     OW10982   2.657   3.631   1.935
  438SOL    HW110983   2.720   3.629   1.858
  438SOL    HW210984   2.606   3.545   1.939
  439SOL     OW10985   3.633   2.745   0.434
  439SOL    HW110986   3.661   2.774   0.525
  439SOL    HW210987   3.710   2.752   0.371
  440SOL     OW10988   3.882   3.813   0.562
  440SOL    HW110989   3.923   3.895   0.602
  440SOL    HW210990   3.784   3.828   0.549
  441SOL     OW10991   2.186   1.606   2.223
  441SOL    HW110992   2.235   1.608   2.311
  441SOL    HW210993   2.160   1.512   2.202
  442SOL     OW10994   3.289   1.159   0.332
  442SOL    HW110995   3.380   1.176   0.372
  442SOL    HW210996   3.299   1.115   0.243
  443SOL     OW10997   2.849   3.594   0.439
  443SOL    HW110998   2.773   3.530   0.451
  443SOL    HW210999   2.887   3.617   0.528
  444SOL     OW11000   2.487   4.077   0.835
  444SOL    HW111001   2.470   4.089   0.737
  444SOL    HW211002   2.449   4.155   0.885
  445SOL     OW11003   3.079   9.284   0.464
  445SOL    HW111004   3.019   9.343   0.517
  445SOL    HW211005   3.163   9.266   0.515
  446SOL     OW11006   3.224   1.175   1.410
  446SOL    HW111007   3.175   1.190   1.496
  446SOL    HW211008   3.296   1.244   1.400
  447SOL     OW11009   3.274   2.140   0.341
  447SOL    HW111010   3.298   2.054   0.386
  447SOL    HW211011   3.248   2.123   0.246
  448SOL     OW11012   2.961   2.605   1.515
  448SOL    HW111013   3.017   2.659   1.452
  448SOL    HW211014   2.939   2.518   1.473
  449SOL     OW11015   2.995   9.792   1.907
  449SOL    HW111016   2.999   9.767   2.003
  449SOL    HW211017   2.975   9.890   1.899
  450SOL     OW11018   2.340   0.471   0.425
  450SOL    HW111019   2.250   0.428   0.424
  450SOL    HW211020   2.411   0.400   0.423
  451SOL     OW11021   2.357   1.426   0.584
  451SOL    HW111022   2.351   1.489   0.662
  451SOL    HW211023   2.428   1.358   0.601
  452SOL     OW11024   2.640   0.985   2.167
  452SOL    HW111025   2.654   1.008   2.071
  452SOL    HW211026   2.610   0.890   2.176
  453SOL     OW11027   2.358   2.768   0.443
  453SOL    HW111028   2.381   2.859   0.410
  453SOL    HW211029   2.311   2.717   0.371
  454SOL     OW11030   3.632   4.466   0.263
  454SOL    HW111031   3.535   4.465   0.239
  454SOL    HW211032   3.651   4.395   0.330
  455SOL     OW11033   3.327   4.716   0.924
  455SOL    HW111034   3.370   4.772   0.994
  455SOL    HW211035   3.241   4.679   0.958
  456SOL     OW11036   5.000   2.923   1.707
  456SOL    HW111037   5.094   2.951   1.727
  456SOL    HW211038   4.936   2.991   1.744
  457SOL     OW11039   3.569   3.650   2.090
  457SOL    HW111040   3.553   3.662   1.992
  457SOL    HW211041   3.571   3.552   2.112
  458SOL     OW11042   2.927   8.906   1.008
  458SOL    HW111043   3.002   8.942   0.952
  458SOL    HW211044   2.847   8.892   0.950
  459SOL     OW11045   3.012   2.949   0.386
  459SOL    HW111046   3.020   3.048   0.395
  459SOL    HW211047   2.916   2.924   0.373
  460SOL     OW11048   2.875   2.312   1.745
  460SOL    HW111049   2.918   2.241   1.689
  460SOL    HW211050   2.941   2.386   1.760
  461SOL     OW11051   3.965   3.058   0.330
  461SOL    HW111052   3.899   3.131   0.315
  461SOL    HW211053   4.041   3.069   0.265
  462SOL     OW11054   2.021   1.858   0.956
  462SOL    HW111055   2.084   1.936   0.961
  462SOL    HW211056   2.037   1.797   1.033
  463SOL     OW11057   2.900   9.482   1.059
  463SOL    HW111058   2.809   9.494   1.019
  463SOL    HW211059   2.893   9.431   1.144
  464SOL     OW11060   4.454   3.224   0.306
  464SOL    HW111061   4.411   3.268   0.228
  464SOL    HW211062   4.489   3.294   0.368
  465SOL     OW11063   2.616   9.764   0.843
  465SOL    HW111064   2.523   9.789   0.817
  465SOL    HW211065   2.671   9.749   0.760
  466SOL     OW11066   2.696   8.880   0.850
  466SOL    HW111067   2.632   8.886   0.926
  466SOL    HW211068   2.646   8.885   0.763
  467SOL     OW11069   3.664   3.296   1.309
  467SOL    HW111070   3.664   3.383   1.357
  467SOL    HW211071   3.589   3.294   1.243
  468SOL     OW11072   2.528   0.265   0.418
  468SOL    HW111073   2.567   0.230   0.332
  468SOL    HW211074   2.598   0.265   0.489
  469SOL     OW11075   2.131   2.647   1.136
  469SOL    HW111076   2.083   2.735   1.135
  469SOL    HW211077   2.159   2.623   1.043
  470SOL     OW11078   4.444   3.779   1.357
  470SOL    HW111079   4.456   3.865   1.407
  470SOL    HW211080   4.420   3.707   1.422
  471SOL     OW11081   2.645   3.091   2.094
  471SOL    HW111082   2.595   3.083   2.180
  471SOL    HW211083   2.579   3.103   2.019
  472SOL     OW11084   3.069   1.825   1.583
  472SOL    HW111085   3.012   1.786   1.655
  472SOL    HW211086   3.127   1.754   1.543
  473SOL     OW11087   2.937   8.665   1.140
  473SOL    HW111088   2.940   8.756   1.098
  473SOL    HW211089   2.843   8.633   1.144
  474SOL     OW11090   4.110   1.957   1.370
  474SOL    HW111091   4.199   2.001   1.366
  474SOL    HW211092   4.122   1.858   1.367
  475SOL     OW11093   3.232   3.641   1.194
  475SOL    HW111094   3.280   3.596   1.269
  475SOL    HW211095   3.228   3.579   1.115
  476SOL     OW11096   4.320   3.651   1.787
  476SOL    HW111097   4.322   3.605   1.698
  476SOL    HW211098   4.235   3.628   1.835
  477SOL     OW11099   4.288   3.447   1.136
  477SOL    HW111100   4.206   3.398   1.106
  477SOL    HW211101   4.351   3.458   1.058
  478SOL     OW11102   3.283   5.082   2.187
  478SOL    HW111103   3.330   5.162   2.150
  478SOL    HW211104   3.350   5.012   2.211
  479SOL     OW11105   3.670   0.619   0.605
  479SOL    HW111106   3.740   0.659   0.546
  479SOL    HW211107   3.581   0.626   0.560
  480SOL     OW11108   3.192   9.783   1.460
  480SOL    HW111109   3.221   9.873   1.494
  480SOL    HW211110   3.233   9.711   1.515
  481SOL     OW11111   4.644   2.430   1.268
  481SOL    HW111112   4.720   2.381   1.309
  481SOL    HW211113   4.629   2.397   1.174
  482SOL     OW11114   4.094   3.809   0.380
  482SOL    HW111115   4.008   3.810   0.431
  482SOL    HW211116   4.142   3.723   0.396
  483SOL     OW11117   3.724   2.126   0.486
  483SOL    HW111118   3.681   2.041   0.515
  483SOL    HW211119   3.660   2.178   0.429
  484SOL     OW11120   2.860   1.106   0.342
  484SOL    HW111121   2.923   1.143   0.274
  484SOL    HW211122   2.826   1.179   0.400
  485SOL     OW11123   3.254   8.869   1.732
  485SOL    HW111124   3.283   8.810   1.657
  485SOL    HW211125   3.318   8.946   1.740
  486SOL     OW11126   2.129   9.956   1.356
  486SOL    HW111127   2.209   9.958   1.296
  486SOL    HW211128   2.061   9.891   1.319
  487SOL     OW11129   2.325   2.786   0.722
  487SOL    HW111130   2.328   2.755   0.627
  487SOL    HW211131   2.331   2.886   0.724
  488SOL     OW11132   2.506   1.636   1.270
  488SOL    HW111133   2.470   1.602   1.356
  488SOL    HW211134   2.563   1.716   1.287
  489SOL     OW11135   3.257   3.673   1.863
  489SOL    HW111136   3.251   3.577   1.887
  489SOL    HW211137   3.193   3.693   1.789
  490SOL     OW11138   2.562   4.195   1.497
  490SOL    HW111139   2.589   4.262   1.428
  490SOL    HW211140   2.603   4.106   1.475
  491SOL     OW11141   2.706   9.544   1.610
  491SOL    HW111142   2.692   9.604   1.532
  491SOL    HW211143   2.705   9.598   1.694
  492SOL     OW11144   3.425   2.822   0.784
  492SOL    HW111145   3.479   2.903   0.809
  492SOL    HW211146   3.403   2.826   0.686
  493SOL     OW11147   4.098   0.481   0.765
  493SOL    HW111148   4.143   0.455   0.679
  493SOL    HW211149   3.999   0.468   0.756
  494SOL     OW11150   3.838   4.922   0.658
  494SOL    HW111151   3.811   4.826   0.657
  494SOL    HW211152   3.791   4.971   0.585
  495SOL     OW11153   2.453   2.182   0.955
  495SOL    HW111154   2.542   2.228   0.965
  495SOL    HW211155   2.428   2.180   0.858
  496SOL     OW11156   3.541   3.818   1.354
  496SOL    HW111157   3.531   3.839   1.256
  496SOL    HW211158   3.625   3.859   1.389
  497SOL     OW11159   4.885   3.645   1.252
  497SOL    HW111160   4.888   3.721   1.187
  497SOL    HW211161   4.944   3.571   1.219
  498SOL     OW11162   2.435   0.992   1.394
  498SOL    HW111163   2.363   0.944   1.343
  498SOL    HW211164   2.483   1.054   1.332
  499SOL     OW11165   2.800   4.875   1.082
  499SOL    HW111166   2.857   4.954   1.063
  499SOL    HW211167   2.813   4.807   1.010
  500SOL     OW11168   3.910   1.638   1.214
  500SOL    HW111169   3.814   1.615   1.221
  500SOL    HW211170   3.921   1.717   1.153
  501SOL     OW11171   2.985   1.435   0.514
  501SOL    HW111172   2.965   1.506   0.446
  501SOL    HW211173   2.906   1.375   0.524
  502SOL     OW11174   2.548   2.397   0.588
  502SOL    HW111175   2.640   2.384   0.552
  502SOL    HW211176   2.514   2.310   0.624
  503SOL     OW11177   2.526   2.788   0.920
  503SOL    HW111178   2.464   2.785   0.841
  503SOL    HW211179   2.496   2.859   0.984
  504SOL     OW11180   3.321   0.589   1.027
  504SOL    HW111181   3.225   0.616   1.014
  504SOL    HW211182   3.369   0.594   0.939
  505SOL     OW11183   2.748   2.075   1.207
  505SOL    HW111184   2.826   2.093   1.146
  505SOL    HW211185   2.711   2.161   1.241
  506SOL     OW11186   3.092   3.758   1.403
  506SOL    HW111187   3.126   3.712   1.321
  506SOL    HW211188   3.025   3.827   1.377
  507SOL     OW11189   4.493   2.659   1.245
  507SOL    HW111190   4.554   2.580   1.250
  507SOL    HW211191   4.533   2.729   1.185
  508SOL     OW11192   2.993   9.711   2.164
  508SOL    HW111193   3.069   9.725   2.228
  508SOL    HW211194   2.915   9.768   2.191
  509SOL     OW11195   3.970   4.117   0.929
  509SOL    HW111196   3.952   4.086   1.023
  509SOL    HW211197   4.051   4.175   0.928
  510SOL     OW11198   4.736   3.344   1.684
  510SOL    HW111199   4.666   3.274   1.672
  510SOL    HW211200   4.694   3.434   1.686
  511SOL     OW11201   3.868   2.050   0.902
  511SOL    HW111202   3.770   2.055   0.922
  511SOL    HW211203   3.913   2.132   0.939
  512SOL     OW11204   3.818   3.239   0.931
  512SOL    HW111205   3.803   3.338   0.929
  512SOL    HW211206   3.744   3.192   0.884
  513SOL     OW11207   3.517   9.893   1.448
  513SOL    HW111208   3.495   9.807   1.402
  513SOL    HW211209   3.439   9.955   1.442
  514SOL     OW11210   4.310   2.785   0.814
  514SOL    HW111211   4.228   2.842   0.809
  514SOL    HW211212   4.316   2.727   0.733
  515SOL     OW11213   3.406   1.323   1.172
  515SOL    HW111214   3.450   1.383   1.104
  515SOL    HW211215   3.460   1.240   1.182
  516SOL     OW11216   3.922   0.931   2.381
  516SOL    HW111217   3.950   0.995   2.309
  516SOL    HW211218   3.832   0.894   2.359
  517SOL     OW11219   3.127   2.725   1.336
  517SOL    HW111220   3.226   2.712   1.342
  517SOL    HW211221   3.107   2.823   1.328
  518SOL     OW11222   2.722   2.023   0.540
  518SOL    HW111223   2.772   2.082   0.604
  518SOL    HW211224   2.786   1.980   0.477
  519SOL     OW11225   3.119   2.480   0.966
  519SOL    HW111226   3.148   2.571   0.939
  519SOL    HW211227   3.144   2.464   1.062
  520SOL     OW11228   2.941   9.065   0.366
  520SOL    HW111229   3.000   9.138   0.400
  520SOL    HW211230   2.967   8.979   0.410
  521SOL     OW11231   4.195   4.279   0.362
  521SOL    HW111232   4.172   4.336   0.283
  521SOL    HW211233   4.259   4.329   0.421
  522SOL     OW11234   4.262   2.532   1.470
  522SOL    HW111235   4.232   2.586   1.392
  522SOL    HW211236   4.223   2.440   1.464
  523SOL     OW11237   2.578   1.407   0.846
  523SOL    HW111238   2.582   1.333   0.780
  523SOL    HW211239   2.663   1.411   0.899
  524SOL     OW11240   3.985   1.163   0.486
  524SOL    HW111241   4.004   1.261   0.478
  524SOL    HW211242   4.068   1.115   0.514
  525SOL     OW11243   3.077   0.474   1.526
  525SOL    HW111244   3.052   0.505   1.617
  525SOL    HW211245   3.093   0.553   1.467
  526SOL     OW11246   3.154   1.420   1.124
  526SOL    HW111247   3.114   1.362   1.053
  526SOL    HW211248   3.243   1.382   1.150
  527SOL     OW11249   4.455   3.990   1.069
  527SOL    HW111250   4.431   4.086   1.084
  527SOL    HW211251   4.470   3.946   1.157
  528SOL     OW11252   2.981   2.742   0.706
  528SOL    HW111253   3.050   2.742   0.779
  528SOL    HW211254   2.995   2.663   0.646
  529SOL     OW11255   2.013   1.026   1.621
  529SOL    HW111256   1.926   1.007   1.667
  529SOL    HW211257   2.054   0.940   1.591
  530SOL     OW11258   3.797   1.926   1.444
  530SOL    HW111259   3.834   2.013   1.410
  530SOL    HW211260   3.868   1.878   1.496
  531SOL     OW11261   2.544   0.738   2.245
  531SOL    HW111262   2.454   0.759   2.284
  531SOL    HW211263   2.607   0.711   2.318
  532SOL     OW11264   3.835   1.187   0.830
  532SOL    HW111265   3.873   1.269   0.789
  532SOL    HW211266   3.737   1.199   0.846
  533SOL     OW11267   3.239   3.686   2.317
  533SOL    HW111268   3.186   3.716   2.396
  533SOL    HW211269   3.328   3.732   2.316
  534SOL     OW11270   3.968   5.059   1.602
  534SOL    HW111271   4.014   4.979   1.641
  534SOL    HW211272   3.913   5.031   1.523
  535SOL     OW11273   3.122   2.293   0.762
  535SOL    HW111274   3.125   2.364   0.832
  535SOL    HW211275   3.177   2.320   0.684
  536SOL     OW11276   2.887   2.959   2.072
  536SOL    HW111277   2.952   3.029   2.042
  536SOL    HW211278   2.796   2.999   2.079
  537SOL     OW11279   3.193   1.590   1.912
  537SOL    HW111280   3.224   1.685   1.922
  537SOL    HW211281   3.111   1.576   1.969
  538SOL     OW11282   4.033   2.328   0.280
  538SOL    HW111283   4.117   2.328   0.334
  538SOL    HW211284   3.978   2.408   0.304
  539SOL     OW11285   2.297   1.561   0.825
  539SOL    HW111286   2.280   1.471   0.866
  539SOL    HW211287   2.332   1.624   0.895
  540SOL     OW11288   3.905   2.494   1.978
  540SOL    HW111289   3.806   2.483   1.989
  540SOL    HW211290   3.941   2.543   2.058
  541SOL     OW11291   3.337   4.350   2.043
  541SOL    HW111292   3.353   4.446   2.069
  541SOL    HW211293   3.286   4.347   1.957
  542SOL     OW11294   4.415   3.756   0.905
  542SOL    HW111295   4.357   3.780   0.827
  542SOL    HW211296   4.427   3.837   0.963
  543SOL     OW11297   2.716   4.507   0.647
  543SOL    HW111298   2.616   4.501   0.647
  543SOL    HW211299   2.754   4.430   0.699
  544SOL     OW11300   3.577   2.529   1.459
  544SOL    HW111301   3.615   2.603   1.514
  544SOL    HW211302   3.649   2.462   1.440
  545SOL     OW11303   3.004   1.246   0.955
  545SOL    HW111304   3.047   1.189   1.026
  545SOL    HW211305   2.947   1.188   0.896
  546SOL     OW11306   4.085   3.567   1.907
  546SOL    HW111307   4.027   3.566   1.825
  546SOL    HW211308   4.104   3.473   1.936
  547SOL     OW11309   4.685   2.954   0.727
  547SOL    HW111310   4.660   2.924   0.635
  547SOL    HW211311   4.696   2.874   0.786
  548SOL     OW11312   2.532   1.211   0.636
  548SOL    HW111313   2.549   1.148   0.560
  548SOL    HW211314   2.482   1.163   0.708
  549SOL     OW11315   4.250   2.758   2.124
  549SOL    HW111316   4.250   2.801   2.034
  549SOL    HW211317   4.163   2.710   2.138
  550SOL     OW11318   4.444   2.651   0.374
  550SOL    HW111319   4.487   2.572   0.330
  550SOL    HW211320   4.514   2.718   0.398
  551SOL     OW11321   2.043   0.321   0.696
  551SOL    HW111322   1.979   0.330   0.772
  551SOL    HW211323   2.121   0.265   0.724
  552SOL     OW11324   4.015   2.260   1.897
  552SOL    HW111325   4.016   2.196   1.973
  552SOL    HW211326   3.978   2.348   1.928
  553SOL     OW11327   3.215   2.944   2.004
  553SOL    HW111328   3.207   2.929   2.102
  553SOL    HW211329   3.230   2.857   1.957
  554SOL     OW11330   3.032   3.271   0.882
  554SOL    HW111331   2.944   3.235   0.911
  554SOL    HW211332   3.100   3.198   0.881
  555SOL     OW11333   2.444   0.670   1.264
  555SOL    HW111334   2.450   0.607   1.341
  555SOL    HW211335   2.364   0.729   1.274
  556SOL     OW11336   4.297   2.409   0.800
  556SOL    HW111337   4.319   2.478   0.869
  556SOL    HW211338   4.337   2.322   0.827
  557SOL     OW11339   2.571   9.180   0.464
  557SOL    HW111340   2.488   9.231   0.445
  557SOL    HW211341   2.624   9.171   0.379
  558SOL     OW11342   2.241   0.022   1.858
  558SOL    HW111343   2.213   0.095   1.920
  558SOL    HW211344   2.303   9.959   1.906
  559SOL     OW11345   2.393   9.509   1.080
  559SOL    HW111346   2.374   9.413   1.100
  559SOL    HW211347   2.337   9.539   1.003
  560SOL     OW11348   4.622   2.717   1.645
  560SOL    HW111349   4.713   2.742   1.609
  560SOL    HW211350   4.600   2.624   1.618
  561SOL     OW11351   3.220   9.182   1.882
  561SOL    HW111352   3.245   9.268   1.927
  561SOL    HW211353   3.298   9.148   1.830
  562SOL     OW11354   2.550   4.211   1.765
  562SOL    HW111355   2.546   4.203   1.665
  562SOL    HW211356   2.505   4.295   1.794
  563SOL     OW11357   3.494   9.628   1.362
  563SOL    HW111358   3.432   9.572   1.308
  563SOL    HW211359   3.508   9.585   1.451
  564SOL     OW11360   2.373   2.410   1.865
  564SOL    HW111361   2.336   2.325   1.829
  564SOL    HW211362   2.318   2.487   1.831
  565SOL     OW11363   2.104   0.342   0.432
  565SOL    HW111364   2.077   0.341   0.529
  565SOL    HW211365   2.047   0.278   0.381
  566SOL     OW11366   3.939   1.824   0.746
  566SOL    HW111367   3.965   1.841   0.651
  566SOL    HW211368   3.914   1.911   0.789
  567SOL     OW11369   3.965   1.840   1.046
  567SOL    HW111370   4.059   1.833   1.012
  567SOL    HW211371   3.921   1.920   1.006
  568SOL     OW11372   3.981   4.059   1.195
  568SOL    HW111373   3.999   3.980   1.253
  568SOL    HW211374   3.909   4.115   1.237
  569SOL     OW11375   4.289   2.612   0.605
  569SOL    HW111376   4.298   2.524   0.651
  569SOL    HW211377   4.345   2.612   0.522
  570SOL     OW11378   3.650   9.741   1.168
  570SOL    HW111379   3.592   9.700   1.239
  570SOL    HW211380   3.707   9.812   1.209
  571SOL     OW11381   3.569   1.211   0.876
  571SOL    HW111382   3.552   1.303   0.911
  571SOL    HW211383   3.497   1.186   0.811
  572SOL     OW11384   4.255   2.090   1.077
  572SOL    HW111385   4.320   2.134   1.015
  572SOL    HW211386   4.230   2.000   1.041
  573SOL     OW11387   3.885   4.450   0.619
  573SOL    HW111388   3.852   4.407   0.703
  573SOL    HW211389   3.920   4.379   0.557
  574SOL     OW11390   4.257   2.877   1.866
  574SOL    HW111391   4.244   2.796   1.810
  574SOL    HW211392   4.348   2.915   1.850
  575SOL     OW11393   2.902   9.426   1.787
  575SOL    HW111394   2.826   9.454   1.729
  575SOL    HW211395   2.936   9.337   1.757
  576SOL     OW11396   2.055   0.183   1.099
  576SOL    HW111397   2.147   0.222   1.092
  576SOL    HW211398   2.018   0.200   1.190
  577SOL     OW11399   2.536   9.795   2.245
  577SOL    HW111400   2.476   9.812   2.322
  577SOL    HW211401   2.557   9.698   2.238
  578SOL     OW11402   3.727   4.617   1.097
  578SOL    HW111403   3.799   4.551   1.072
  578SOL    HW211404   3.637   4.575   1.083
  579SOL     OW11405   2.461   3.042   0.423
  579SOL    HW111406   2.560   3.044   0.411
  579SOL    HW211407   2.420   3.122   0.379
  580SOL     OW11408   3.680   1.382   2.172
  580SOL    HW111409   3.616   1.330   2.228
  580SOL    HW211410   3.698   1.470   2.216
  581SOL     OW11411   2.705   3.877   2.325
  581SOL    HW111412   2.760   3.961   2.322
  581SOL    HW211413   2.608   3.900   2.329
  582SOL     OW11414   2.013   1.062   0.323
  582SOL    HW111415   1.916   1.084   0.325
  582SOL    HW211416   2.063   1.136   0.278
  583SOL     OW11417   3.363   3.177   2.280
  583SOL    HW111418   3.395   3.187   2.374
  583SOL    HW211419   3.302   3.098   2.274
  584SOL     OW11420   4.186   4.236   1.272
  584SOL    HW111421   4.168   4.329   1.239
  584SOL    HW211422   4.129   4.172   1.221
  585SOL     OW11423   4.066   4.820   1.686
  585SOL    HW111424   3.996   4.759   1.724
  585SOL    HW211425   4.143   4.766   1.651
  586SOL     OW11426   3.022   3.777   0.916
  586SOL    HW111427   3.004   3.869   0.951
  586SOL    HW211428   2.968   3.711   0.968
  587SOL     OW11429   2.264   3.380   1.645
  587SOL    HW111430   2.232   3.426   1.728
  587SOL    HW211431   2.360   3.405   1.629
  588SOL     OW11432   4.025   4.500   0.918
  588SOL    HW111433   3.945   4.448   0.888
  588SOL    HW211434   4.037   4.580   0.859
  589SOL     OW11435   3.773   3.819   2.145
  589SOL    HW111436   3.732   3.888   2.204
  589SOL    HW211437   3.705   3.750   2.122
  590SOL     OW11438   3.666   9.959   0.710
  590SOL    HW111439   3.630   9.916   0.793
  590SOL    HW211440   3.686   0.055   0.728
  591SOL     OW11441   3.853   4.148   1.578
  591SOL    HW111442   3.833   4.158   1.675
  591SOL    HW211443   3.949   4.168   1.561
  592SOL     OW11444   4.064   0.888   1.804
  592SOL    HW111445   4.142   0.908   1.745
  592SOL    HW211446   4.013   0.972   1.822
  593SOL     OW11447   4.145   3.923   1.604
  593SOL    HW111448   4.077   3.912   1.677
  593SOL    HW211449   4.237   3.912   1.642
  594SOL     OW11450   3.460   0.659   0.438
  594SOL    HW111451   3.447   0.564   0.410
  594SOL    HW211452   3.406   0.719   0.378
  595SOL     OW11453   3.003   3.965   1.777
  595SOL    HW111454   2.980   3.970   1.874
  595SOL    HW211455   3.093   4.005   1.762
  596SOL     OW11456   4.840   3.223   0.967
  596SOL    HW111457   4.771   3.285   1.003
  596SOL    HW211458   4.832   3.219   0.867
  597SOL     OW11459   2.392   2.251   1.230
  597SOL    HW111460   2.327   2.326   1.239
  597SOL    HW211461   2.401   2.226   1.134
  598SOL     OW11462   4.158   1.396   1.356
  598SOL    HW111463   4.081   1.372   1.414
  598SOL    HW211464   4.129   1.396   1.260
  599SOL     OW11465   2.512   0.170   1.248
  599SOL    HW111466   2.530   0.232   1.324
  599SOL    HW211467   2.586   0.103   1.242
  600SOL     OW11468   2.144   1.871   2.177
  600SOL    HW111469   2.192   1.927   2.245
  600SOL    HW211470   2.152   1.775   2.202
  601SOL     OW11471   3.356   9.681   0.816
  601SOL    HW111472   3.314   9.613   0.756
  601SOL    HW211473   3.298   9.762   0.821
  602SOL     OW11474   2.424   1.590   1.532
  602SOL    HW111475   2.391   1.542   1.614
  602SOL    HW211476   2.396   1.686   1.536
  603SOL     OW11477   3.267   3.915   1.116
  603SOL    HW111478   3.237   3.824   1.144
  603SOL    HW211479   3.365   3.913   1.096
  604SOL     OW11480   3.868   2.614   1.294
  604SOL    HW111481   3.964   2.639   1.296
  604SOL    HW211482   3.852   2.536   1.355
  605SOL     OW11483   3.975   1.123   2.184
  605SOL    HW111484   3.998   1.218   2.207
  605SOL    HW211485   3.901   1.122   2.118
  606SOL     OW11486   3.251   9.885   1.757
  606SOL    HW111487   3.280   9.880   1.853
  606SOL    HW211488   3.156   9.853   1.750
  607SOL     OW11489   2.945   2.158   1.029
  607SOL    HW111490   3.045   2.155   1.026
  607SOL    HW211491   2.915   2.254   1.029
  608SOL     OW11492   4.007   1.658   0.373
  608SOL    HW111493   4.056   1.737   0.410
  608SOL    HW211494   3.909   1.675   0.380
  609SOL     OW11495   4.445   2.216   0.180
  609SOL    HW111496   4.345   2.213   0.180
  609SOL    HW211497   4.479   2.210   0.086
  610SOL     OW11498   2.454   0.510   1.489
  610SOL    HW111499   2.524   0.440   1.477
  610SOL    HW211500   2.386   0.480   1.556
  611SOL     OW11501   4.012   1.389   2.221
  611SOL    HW111502   3.947   1.460   2.193
  611SOL    HW211503   4.041   1.406   2.315
  612SOL     OW11504   3.291   4.070   0.312
  612SOL    HW111505   3.321   3.997   0.250
  612SOL    HW211506   3.192   4.061   0.329
  613SOL     OW11507   3.323   3.856   1.517
  613SOL    HW111508   3.403   3.838   1.460
  613SOL    HW211509   3.242   3.814   1.476
  614SOL     OW11510   2.815   3.120   0.967
  614SOL    HW111511   2.860   3.038   1.003
  614SOL    HW211512   2.748   3.093   0.898
  615SOL     OW11513   3.274   8.477   1.301
  615SOL    HW111514   3.239   8.507   1.212
  615SOL    HW211515   3.201   8.481   1.369
  616SOL     OW11516   2.896   1.741   1.374
  616SOL    HW111517   2.958   1.775   1.444
  616SOL    HW211518   2.916   1.644   1.357
  617SOL     OW11519   2.558   3.903   0.476
  617SOL    HW111520   2.618   3.871   0.550
  617SOL    HW211521   2.614   3.929   0.398
  618SOL     OW11522   4.149   0.665   0.968
  618SOL    HW111523   4.175   0.746   0.916
  618SOL    HW211524   4.138   0.587   0.905
  619SOL     OW11525   3.522   9.461   0.864
  619SOL    HW111526   3.601   9.475   0.805
  619SOL    HW211527   3.460   9.539   0.855
  620SOL     OW11528   2.764   2.767   1.065
  620SOL    HW111529   2.737   2.695   1.130
  620SOL    HW211530   2.690   2.782   0.999
  621SOL     OW11531   2.110   1.714   1.784
  621SOL    HW111532   2.076   1.788   1.842
  621SOL    HW211533   2.190   1.744   1.733
  622SOL     OW11534   2.106   1.697   1.160
  622SOL    HW111535   2.077   1.706   1.255
  622SOL    HW211536   2.104   1.600   1.134
  623SOL     OW11537   2.753   4.440   0.383
  623SOL    HW111538   2.747   4.463   0.480
  623SOL    HW211539   2.791   4.517   0.332
  624SOL     OW11540   2.643   3.073   0.758
  624SOL    HW111541   2.544   3.061   0.749
  624SOL    HW211542   2.690   3.000   0.707
  625SOL     OW11543   3.315   9.254   0.601
  625SOL    HW111544   3.321   9.177   0.665
  625SOL    HW211545   3.381   9.241   0.527
  626SOL     OW11546   2.737   3.048   0.400
  626SOL    HW111547   2.805   3.121   0.406
  626SOL    HW211548   2.745   2.988   0.479
  627SOL     OW11549   3.834   2.277   1.686
  627SOL    HW111550   3.758   2.215   1.705
  627SOL    HW211551   3.904   2.267   1.756
  628SOL     OW11552   2.644   2.299   1.325
  628SOL    HW111553   2.654   2.250   1.412
  628SOL    HW211554   2.550   2.287   1.292
  629SOL     OW11555   3.623   3.559   1.396
  629SOL    HW111556   3.715   3.568   1.360
  629SOL    HW211557   3.577   3.648   1.393
  630SOL     OW11558   2.700   2.604   1.617
  630SOL    HW111559   2.661   2.512   1.615
  630SOL    HW211560   2.792   2.602   1.579
  631SOL     OW11561   3.155   8.781   2.076
  631SOL    HW111562   3.095   8.704   2.053
  631SOL    HW211563   3.250   8.757   2.056
  632SOL     OW11564   2.683   2.320   0.855
  632SOL    HW111565   2.624   2.390   0.815
  632SOL    HW211566   2.743   2.361   0.923
  633SOL     OW11567   2.747   1.313   0.492
  633SOL    HW111568   2.684   1.266   0.554
  633SOL    HW211569   2.704   1.397   0.458
  634SOL     OW11570   2.335   2.873   2.025
  634SOL    HW111571   2.392   2.955   2.015
  634SOL    HW211572   2.267   2.870   1.952
  635SOL     OW11573   3.150   2.828   1.655
  635SOL    HW111574   3.069   2.774   1.631
  635SOL    HW211575   3.137   2.922   1.625
  636SOL     OW11576   2.496   1.900   0.628
  636SOL    HW111577   2.581   1.943   0.595
  636SOL    HW211578   2.518   1.812   0.670
  637SOL     OW11579   3.587   1.868   1.611
  637SOL    HW111580   3.664   1.885   1.549
  637SOL    HW211581   3.501   1.887   1.563
  638SOL     OW11582   2.883   9.341   1.297
  638SOL    HW111583   2.967   9.372   1.342
  638SOL    HW211584   2.814   9.320   1.367
  639SOL     OW11585   2.205   3.038   0.192
  639SOL    HW111586   2.247   2.982   0.120
  639SOL    HW211587   2.138   2.983   0.242
  640SOL     OW11588   2.986   8.791   1.717
  640SOL    HW111589   2.998   8.695   1.744
  640SOL    HW211590   3.072   8.840   1.732
  641SOL     OW11591   2.673   2.738   1.851
  641SOL    HW111592   2.677   2.679   1.771
  641SOL    HW211593   2.617   2.694   1.922
  642SOL     OW11594   2.146   2.381   0.719
  642SOL    HW111595   2.192   2.405   0.634
  642SOL    HW211596   2.114   2.287   0.715
  643SOL     OW11597   2.890   4.496   1.381
  643SOL    HW111598   2.874   4.594   1.370
  643SOL    HW211599   2.893   4.473   1.478
  644SOL     OW11600   3.851   2.317   0.648
  644SOL    HW111601   3.811   2.250   0.585
  644SOL    HW211602   3.805   2.311   0.736
  645SOL     OW11603   3.588   4.968   1.507
  645SOL    HW111604   3.571   5.064   1.528
  645SOL    HW211605   3.678   4.958   1.464
  646SOL     OW11606   4.224   2.297   1.723
  646SOL    HW111607   4.146   2.286   1.785
  646SOL    HW211608   4.192   2.295   1.628
  647SOL     OW11609   2.541   8.968   0.642
  647SOL    HW111610   2.556   9.030   0.565
  647SOL    HW211611   2.479   9.011   0.707
  648SOL     OW11612   3.305   3.888   0.798
  648SOL    HW111613   3.232   3.867   0.864
  648SOL    HW211614   3.326   3.985   0.802
  649SOL     OW11615   4.095   3.546   1.456
  649SOL    HW111616   4.041   3.553   1.541
  649SOL    HW211617   4.073   3.460   1.410
  650SOL     OW11618   3.968   1.573   1.952
  650SOL    HW111619   3.932   1.552   1.861
  650SOL    HW211620   4.056   1.527   1.963
  651SOL     OW11621   2.694   2.202   2.254
  651SOL    HW111622   2.638   2.252   2.188
  651SOL    HW211623   2.639   2.129   2.295
  652SOL     OW11624   3.509   1.470   0.958
  652SOL    HW111625   3.438   1.514   0.902
  652SOL    HW211626   3.586   1.533   0.968
  653SOL     OW11627   3.945   0.657   1.877
  653SOL    HW111628   3.993   0.580   1.834
  653SOL    HW211629   3.999   0.740   1.865
  654SOL     OW11630   4.066   1.459   1.084
  654SOL    HW111631   4.004   1.517   1.136
  654SOL    HW211632   4.085   1.502   0.996
  655SOL     OW11633   3.228   9.750   1.193
  655SOL    HW111634   3.213   9.758   1.291
  655SOL    HW211635   3.274   9.663   1.173
  656SOL     OW11636   3.947   4.223   0.477
  656SOL    HW111637   4.032   4.237   0.426
  656SOL    HW211638   3.958   4.147   0.540
  657SOL     OW11639   3.093   2.999   1.314
  657SOL    HW111640   3.168   3.041   1.263
  657SOL    HW211641   3.086   3.042   1.404
  658SOL     OW11642   3.525   9.829   1.710
  658SOL    HW111643   3.540   9.855   1.614
  658SOL    HW211644   3.428   9.838   1.731
  659SOL     OW11645   2.822   1.920   0.941
  659SOL    HW111646   2.723   1.919   0.955
  659SOL    HW211647   2.857   2.012   0.958
  660SOL     OW11648   3.470   4.519   1.062
  660SOL    HW111649   3.435   4.534   1.154
  660SOL    HW211650   3.424   4.582   0.999
  661SOL     OW11651   4.070   2.514   1.059
  661SOL    HW111652   4.023   2.580   1.001
  661SOL    HW211653   4.102   2.558   1.142
  662SOL     OW11654   3.502   4.847   1.087
  662SOL    HW111655   3.590   4.804   1.110
  662SOL    HW211656   3.516   4.942   1.061
  663SOL     OW11657   3.567   9.194   0.822
  663SOL    HW111658   3.549   9.292   0.826
  663SOL    HW211659   3.481   9.144   0.810
  664SOL     OW11660   3.020   8.835   2.313
  664SOL    HW111661   3.080   8.824   2.233
  664SOL    HW211662   3.021   8.930   2.343
  665SOL     OW11663   3.815   2.414   2.282
  665SOL    HW111664   3.886   2.346   2.303
  665SOL    HW211665   3.736   2.368   2.242
  666SOL     OW11666   2.342   2.535   1.515
  666SOL    HW111667   2.413   2.470   1.543
  666SOL    HW211668   2.293   2.499   1.436
  667SOL     OW11669   2.196   9.979   0.970
  667SOL    HW111670   2.120   0.036   1.000
  667SOL    HW211671   2.257   9.961   1.047
  668SOL     OW11672   4.165   1.192   1.965
  668SOL    HW111673   4.149   1.154   2.056
  668SOL    HW211674   4.092   1.163   1.903
  669SOL     OW11675   4.208   3.182   1.456
  669SOL    HW111676   4.128   3.222   1.412
  669SOL    HW211677   4.290   3.235   1.431
  670SOL     OW11678   2.301   1.158   2.066
  670SOL    HW111679   2.344   1.103   1.994
  670SOL    HW211680   2.349   1.142   2.152
  671SOL     OW11681   4.783   2.361   0.784
  671SOL    HW111682   4.760   2.361   0.687
  671SOL    HW211683   4.826   2.449   0.808
  672SOL     OW11684   1.881   1.981   0.750
  672SOL    HW111685   1.834   1.914   0.692
  672SOL    HW211686   1.913   1.936   0.834
  673SOL     OW11687   4.041   3.853   1.361
  673SOL    HW111688   4.100   3.791   1.308
  673SOL    HW211689   4.082   3.870   1.450
  674SOL     OW11690   3.442   8.481   1.008
  674SOL    HW111691   3.348   8.507   1.030
  674SOL    HW211692   3.448   8.459   0.910
  675SOL     OW11693   2.843   1.073   0.817
  675SOL    HW111694   2.782   0.998   0.840
  675SOL    HW211695   2.903   1.046   0.742
  676SOL     OW11696   2.951   9.448   2.071
  676SOL    HW111697   2.964   9.542   2.102
  676SOL    HW211698   2.929   9.449   1.973
  677SOL     OW11699   4.250   2.307   0.441
  677SOL    HW111700   4.345   2.279   0.448
  677SOL    HW211701   4.200   2.277   0.523
  678SOL     OW11702   3.063   3.722   1.674
  678SOL    HW111703   3.038   3.813   1.705
  678SOL    HW211704   3.078   3.724   1.575
  679SOL     OW11705   3.347   3.494   1.406
  679SOL    HW111706   3.319   3.473   1.500
  679SOL    HW211707   3.447   3.502   1.403
  680SOL     OW11708   4.095   3.833   0.990
  680SOL    HW111709   4.111   3.931   0.987
  680SOL    HW211710   4.156   3.791   1.057
  681SOL     OW11711   3.177   2.976   0.634
  681SOL    HW111712   3.258   2.942   0.586
  681SOL    HW211713   3.095   2.950   0.583
  682SOL     OW11714   3.183   4.177   1.229
  682SOL    HW111715   3.144   4.157   1.318
  682SOL    HW211716   3.208   4.092   1.183
  683SOL     OW11717   2.838   2.430   0.227
  683SOL    HW111718   2.812   2.408   0.321
  683SOL    HW211719   2.759   2.465   0.178
  684SOL     OW11720   2.879   3.154   1.728
  684SOL    HW111721   2.807   3.085   1.722
  684SOL    HW211722   2.885   3.189   1.821
  685SOL     OW11723   3.419   1.629   1.380
  685SOL    HW111724   3.437   1.726   1.398
  685SOL    HW211725   3.322   1.610   1.394
  686SOL     OW11726   3.633   1.846   1.232
  686SOL    HW111727   3.645   1.748   1.217
  686SOL    HW211728   3.696   1.876   1.304
  687SOL     OW11729   2.663   9.261   0.895
  687SOL    HW111730   2.650   9.357   0.919
  687SOL    HW211731   2.721   9.217   0.964
  688SOL     OW11732   3.296   0.316   1.467
  688SOL    HW111733   3.381   0.369   1.475
  688SOL    HW211734   3.219   0.371   1.497
  689SOL     OW11735   2.860   3.246   1.984
  689SOL    HW111736   2.890   3.332   2.024
  689SOL    HW211737   2.779   3.213   2.034
  690SOL     OW11738   3.614   2.985   1.650
  690SOL    HW111739   3.630   2.888   1.629
  690SOL    HW211740   3.689   3.020   1.705
  691SOL     OW11741   3.757   2.869   0.672
  691SOL    HW111742   3.836   2.923   0.644
  691SOL    HW211743   3.787   2.775   0.692
  692SOL     OW11744   4.379   3.915   1.753
  692SOL    HW111745   4.341   3.964   1.831
  692SOL    HW211746   4.371   3.816   1.769
  693SOL     OW11747   2.993   5.397   2.183
  693SOL    HW111748   3.000   5.298   2.195
  693SOL    HW211749   3.023   5.442   2.267
  694SOL     OW11750   2.814   2.387   0.506
  694SOL    HW111751   2.836   2.313   0.570
  694SOL    HW211752   2.884   2.458   0.511
  695SOL     OW11753   2.288   3.106   1.670
  695SOL    HW111754   2.335   3.069   1.590
  695SOL    HW211755   2.266   3.202   1.654
  696SOL     OW11756   4.266   2.635   1.724
  696SOL    HW111757   4.264   2.609   1.628
  696SOL    HW211758   4.329   2.575   1.774
  697SOL     OW11759   4.225   1.045   0.560
  697SOL    HW111760   4.308   1.016   0.512
  697SOL    HW211761   4.218   0.996   0.647
  698SOL     OW11762   3.056   2.059   0.536
  698SOL    HW111763   3.093   2.123   0.468
  698SOL    HW211764   3.000   2.109   0.602
  699SOL     OW11765   2.214   2.587   0.884
  699SOL    HW111766   2.247   2.659   0.824
  699SOL    HW211767   2.180   2.510   0.829
  700SOL     OW11768   4.879   3.147   1.831
  700SOL    HW111769   4.814   3.114   1.899
  700SOL    HW211770   4.838   3.223   1.780
  701SOL     OW11771   3.769   2.818   1.134
  701SOL    HW111772   3.798   2.910   1.161
  701SOL    HW211773   3.801   2.752   1.201
  702SOL     OW11774   3.047   2.532   1.762
  702SOL    HW111775   3.020   2.555   1.668
  702SOL    HW211776   3.016   2.604   1.824
  703SOL     OW11777   3.069   4.145   1.483
  703SOL    HW111778   3.131   4.111   1.553
  703SOL    HW211779   3.040   4.238   1.506
  704SOL     OW11780   3.902   3.295   0.658
  704SOL    HW111781   3.931   3.389   0.642
  704SOL    HW211782   3.886   3.281   0.756
  705SOL     OW11783   4.519   3.171   1.676
  705SOL    HW111784   4.474   3.175   1.587
  705SOL    HW211785   4.516   3.078   1.712
  706SOL     OW11786   3.985   1.779   1.597
  706SOL    HW111787   4.036   1.747   1.517
  706SOL    HW211788   4.049   1.806   1.669
  707SOL     OW11789   3.330   4.386   0.300
  707SOL    HW111790   3.272   4.451   0.251
  707SOL    HW211791   3.307   4.293   0.272
  708SOL     OW11792   2.290   2.434   0.495
  708SOL    HW111793   2.386   2.427   0.524
  708SOL    HW211794   2.284   2.493   0.415
  709SOL     OW11795   2.858   2.419   1.035
  709SOL    HW111796   2.944   2.464   1.010
  709SOL    HW211797   2.804   2.479   1.093
  710SOL     OW11798   3.186   2.736   0.902
  710SOL    HW111799   3.268   2.773   0.859
  710SOL    HW211800   3.150   2.801   0.968
  711SOL     OW11801   2.559   0.290   1.917
  711SOL    HW111802   2.506   0.240   1.848
  711SOL    HW211803   2.531   0.260   2.009
  712SOL     OW11804   4.360   3.563   1.517
  712SOL    HW111805   4.397   3.481   1.474
  712SOL    HW211806   4.262   3.570   1.498
  713SOL     OW11807   3.287   3.349   0.579
  713SOL    HW111808   3.332   3.326   0.665
  713SOL    HW211809   3.188   3.353   0.593
  714SOL     OW11810   2.712   3.874   1.699
  714SOL    HW111811   2.756   3.785   1.714
  714SOL    HW211812   2.680   3.911   1.786
  715SOL     OW11813   2.667   2.975   1.719
  715SOL    HW111814   2.676   2.892   1.774
  715SOL    HW211815   2.628   2.951   1.629
  716SOL     OW11816   4.603   2.221   1.611
  716SOL    HW111817   4.534   2.178   1.669
  716SOL    HW211818   4.576   2.315   1.591
  717SOL     OW11819   2.243   4.289   0.690
  717SOL    HW111820   2.150   4.280   0.656
  717SOL    HW211821   2.301   4.220   0.646
  718SOL     OW11822   3.286   2.154   0.937
  718SOL    HW111823   3.226   2.178   0.862
  718SOL    HW211824   3.317   2.059   0.926
  719SOL     OW11825   3.581   1.057   1.876
  719SOL    HW111826   3.634   0.973   1.861
  719SOL    HW211827   3.546   1.091   1.789
  720SOL     OW11828   3.290   1.841   1.971
  720SOL    HW111829   3.270   1.901   1.893
  720SOL    HW211830   3.389   1.840   1.987
  721SOL     OW11831   2.440   1.116   2.304
  721SOL    HW111832   2.521   1.074   2.263
  721SOL    HW211833   2.391   1.048   2.358
  722SOL     OW11834   3.120   9.446   1.414
  722SOL    HW111835   3.128   9.348   1.431
  722SOL    HW211836   3.175   9.497   1.481
  723SOL     OW11837   3.020   3.385   0.636
  723SOL    HW111838   3.004   3.483   0.646
  723SOL    HW211839   3.017   3.342   0.726
  724SOL     OW11840   4.637   3.202   1.297
  724SOL    HW111841   4.716   3.146   1.321
  724SOL    HW211842   4.655   3.251   1.212
  725SOL     OW11843   3.576   8.849   1.224
  725SOL    HW111844   3.665   8.828   1.184
  725SOL    HW211845   3.541   8.768   1.270
  726SOL     OW11846   3.612   3.848   0.554
  726SOL    HW111847   3.578   3.810   0.640
  726SOL    HW211848   3.565   3.934   0.535
  727SOL     OW11849   3.165   1.592   1.469
  727SOL    HW111850   3.191   1.536   1.547
  727SOL    HW211851   3.094   1.545   1.417
  728SOL     OW11852   3.330   1.624   0.783
  728SOL    HW111853   3.276   1.638   0.866
  728SOL    HW211854   3.269   1.622   0.704
  729SOL     OW11855   3.673   4.277   0.462
  729SOL    HW111856   3.656   4.343   0.535
  729SOL    HW211857   3.770   4.253   0.461
  730SOL     OW11858   2.868   9.019   0.688
  730SOL    HW111859   2.834   9.109   0.661
  730SOL    HW211860   2.803   8.975   0.750
  731SOL     OW11861   2.825   3.986   0.394
  731SOL    HW111862   2.808   3.959   0.489
  731SOL    HW211863   2.891   3.923   0.353
  732SOL     OW11864   2.966   1.481   1.316
  732SOL    HW111865   3.031   1.453   1.244
  732SOL    HW211866   2.892   1.414   1.321
  733SOL     OW11867   2.337   3.913   1.002
  733SOL    HW111868   2.388   3.971   0.938
  733SOL    HW211869   2.312   3.828   0.956
  734SOL     OW11870   2.968   8.567   2.303
  734SOL    HW111871   2.982   8.665   2.313
  734SOL    HW211872   2.944   8.527   2.392
  735SOL     OW11873   3.307   0.647   0.725
  735SOL    HW111874   3.242   0.650   0.649
  735SOL    HW211875   3.332   0.740   0.753
  736SOL     OW11876   2.363   1.718   1.048
  736SOL    HW111877   2.420   1.686   1.124
  736SOL    HW211878   2.268   1.726   1.079
  737SOL     OW11879   3.610   2.011   1.002
  737SOL    HW111880   3.528   1.975   0.957
  737SOL    HW211881   3.636   1.952   1.078
  738SOL     OW11882   2.351   4.284   0.944
  738SOL    HW111883   2.303   4.299   0.857
  738SOL    HW211884   2.294   4.317   1.019
  739SOL     OW11885   4.690   2.640   0.608
  739SOL    HW111886   4.687   2.664   0.705
  739SOL    HW211887   4.673   2.721   0.553
  740SOL     OW11888   4.618   3.589   1.243
  740SOL    HW111889   4.560   3.663   1.277
  740SOL    HW211890   4.714   3.613   1.257
  741SOL     OW11891   3.912   4.182   2.267
  741SOL    HW111892   3.896   4.281   2.270
  741SOL    HW211893   3.992   4.160   2.324
  742SOL     OW11894   3.012   3.793   0.339
  742SOL    HW111895   3.090   3.790   0.402
  742SOL    HW211896   2.952   3.715   0.357
  743SOL     OW11897   2.795   9.891   2.208
  743SOL    HW111898   2.700   9.863   2.224
  743SOL    HW211899   2.802   9.990   2.216
  744SOL     OW11900   4.230   2.005   0.705
  744SOL    HW111901   4.327   2.020   0.688
  744SOL    HW211902   4.181   2.093   0.698
  745SOL     OW11903   2.642   9.522   0.970
  745SOL    HW111904   2.636   9.605   0.914
  745SOL    HW211905   2.557   9.511   1.022
  746SOL     OW11906   2.281   0.418   1.684
  746SOL    HW111907   2.193   0.425   1.637
  746SOL    HW211908   2.269   0.445   1.780
  747SOL     OW11909   3.475   3.814   2.292
  747SOL    HW111910   3.510   3.757   2.217
  747SOL    HW211911   3.529   3.897   2.299
  748SOL     OW11912   4.205   3.850   2.177
  748SOL    HW111913   4.139   3.776   2.189
  748SOL    HW211914   4.298   3.814   2.186
  749SOL     OW11915   2.394   0.763   1.580
  749SOL    HW111916   2.434   0.841   1.531
  749SOL    HW211917   2.432   0.678   1.544
  750SOL     OW11918   2.113   1.436   1.103
  750SOL    HW111919   2.150   1.385   1.026
  750SOL    HW211920   2.107   1.376   1.183
  751SOL     OW11921   3.893   2.793   0.341
  751SOL    HW111922   3.915   2.890   0.332
  751SOL    HW211923   3.942   2.755   0.419
  752SOL     OW11924   3.644   4.113   1.118
  752SOL    HW111925   3.693   4.158   1.193
  752SOL    HW211926   3.611   4.181   1.053
  753SOL     OW11927   3.475   4.090   0.519
  753SOL    HW111928   3.545   4.156   0.495
  753SOL    HW211929   3.407   4.085   0.447
  754SOL     OW11930   2.854   4.102   2.269
  754SOL    HW111931   2.843   4.077   2.173
  754SOL    HW211932   2.951   4.110   2.291
  755SOL     OW11933   3.101   8.534   1.784
  755SOL    HW111934   3.200   8.528   1.797
  755SOL    HW211935   3.055   8.530   1.872
  756SOL     OW11936   2.282   0.508   1.954
  756SOL    HW111937   2.319   0.501   2.047
  756SOL    HW211938   2.307   0.596   1.915
  757SOL     OW11939   2.524   9.614   1.978
  757SOL    HW111940   2.606   9.627   1.922
  757SOL    HW211941   2.467   9.696   1.974
  758SOL     OW11942   2.435   9.030   1.260
  758SOL    HW111943   2.527   9.033   1.299
  758SOL    HW211944   2.371   8.994   1.328
  759SOL     OW11945   4.521   3.263   1.943
  759SOL    HW111946   4.507   3.360   1.962
  759SOL    HW211947   4.507   3.246   1.845
  760SOL     OW11948   3.547   9.851   0.935
  760SOL    HW111949   3.586   9.809   1.017
  760SOL    HW211950   3.482   9.788   0.892
  761SOL     OW11951   3.354   4.596   1.307
  761SOL    HW111952   3.260   4.565   1.292
  761SOL    HW211953   3.354   4.690   1.339
  762SOL     OW11954   4.391   3.160   0.786
  762SOL    HW111955   4.328   3.137   0.859
  762SOL    HW211956   4.435   3.077   0.752
  763SOL     OW11957   3.536   2.575   0.732
  763SOL    HW111958   3.492   2.660   0.758
  763SOL    HW211959   3.502   2.500   0.789
  764SOL     OW11960   3.230   9.917   0.537
  764SOL    HW111961   3.211   9.899   0.633
  764SOL    HW211962   3.232   0.016   0.521
  765SOL     OW11963   3.651   1.564   1.253
  765SOL    HW111964   3.558   1.581   1.286
  765SOL    HW211965   3.683   1.476   1.288
  766SOL     OW11966   2.962   8.830   0.520
  766SOL    HW111967   2.892   8.761   0.502
  766SOL    HW211968   2.927   8.897   0.585
  767SOL     OW11969   3.154   3.348   1.273
  767SOL    HW111970   3.182   3.343   1.177
  767SOL    HW211971   3.227   3.390   1.328
  768SOL     OW11972   3.925   8.858   1.326
  768SOL    HW111973   3.989   8.930   1.300
  768SOL    HW211974   3.886   8.817   1.244
  769SOL     OW11975   2.381   1.076   0.816
  769SOL    HW111976   2.424   0.989   0.841
  769SOL    HW211977   2.299   1.059   0.761
  770SOL     OW11978   4.227   3.713   1.202
  770SOL    HW111979   4.238   3.616   1.182
  770SOL    HW211980   4.308   3.746   1.251
  771SOL     OW11981   2.759   4.045   0.860
  771SOL    HW111982   2.660   4.057   0.858
  771SOL    HW211983   2.786   4.008   0.949
  772SOL     OW11984   3.148   1.122   1.898
  772SOL    HW111985   3.165   1.023   1.907
  772SOL    HW211986   3.096   1.154   1.978
  773SOL     OW11987   4.116   1.879   0.494
  773SOL    HW111988   4.066   1.950   0.444
  773SOL    HW211989   4.159   1.920   0.575
  774SOL     OW11990   3.099   9.493   0.280
  774SOL    HW111991   3.108   9.411   0.337
  774SOL    HW211992   3.165   9.562   0.310
  775SOL     OW11993   4.240   3.811   0.697
  775SOL    HW111994   4.155   3.811   0.748
  775SOL    HW211995   4.252   3.899   0.651
  776SOL     OW11996   4.942   3.464   1.541
  776SOL    HW111997   4.908   3.515   1.462
  776SOL    HW211998   4.866   3.423   1.590
  777SOL     OW11999   2.911   2.383   1.378
  777SOL    HW112000   2.981   2.379   1.307
  777SOL    HW212001   2.826   2.345   1.341
  778SOL     OW12002   2.944   0.038   1.067
  778SOL    HW112003   3.017   0.033   1.135
  778SOL    HW212004   2.892   9.953   1.067
  779SOL     OW12005   3.697   2.458   1.126
  779SOL    HW112006   3.761   2.510   1.181
  779SOL    HW212007   3.616   2.514   1.107
  780SOL     OW12008   3.518   0.128   0.972
  780SOL    HW112009   3.524   0.028   0.968
  780SOL    HW212010   3.576   0.168   0.901
  781SOL     OW12011   2.225   1.295   0.892
  781SOL    HW112012   2.171   1.293   0.808
  781SOL    HW212013   2.298   1.227   0.886
  782SOL     OW12014   2.509   4.311   0.380
  782SOL    HW112015   2.482   4.282   0.289
  782SOL    HW212016   2.601   4.350   0.377
  783SOL     OW12017   4.435   2.811   1.465
  783SOL    HW112018   4.450   2.752   1.386
  783SOL    HW212019   4.500   2.786   1.538
  784SOL     OW12020   3.291   9.434   1.968
  784SOL    HW112021   3.293   9.467   2.062
  784SOL    HW212022   3.228   9.490   1.914
  785SOL     OW12023   3.296   0.907   1.403
  785SOL    HW112024   3.378   0.900   1.347
  785SOL    HW212025   3.266   1.003   1.407
  786SOL     OW12026   2.614   3.995   1.923
  786SOL    HW112027   2.571   4.072   1.876
  786SOL    HW212028   2.543   3.940   1.969
  787SOL     OW12029   2.518   3.391   1.881
  787SOL    HW112030   2.509   3.291   1.884
  787SOL    HW212031   2.522   3.421   1.786
  788SOL     OW12032   2.988   8.565   2.030
  788SOL    HW112033   2.907   8.615   2.001
  788SOL    HW212034   2.982   8.545   2.128
  789SOL     OW12035   3.469   1.394   1.523
  789SOL    HW112036   3.464   1.474   1.463
  789SOL    HW212037   3.400   1.403   1.595
  790SOL     OW12038   3.374   1.891   0.904
  790SOL    HW112039   3.386   1.824   0.831
  790SOL    HW212040   3.331   1.848   0.983
  791SOL     OW12041   2.824   0.983   1.510
  791SOL    HW112042   2.843   1.010   1.416
  791SOL    HW212043   2.819   1.064   1.568
  792SOL     OW12044   2.719   9.284   1.512
  792SOL    HW112045   2.697   9.377   1.542
  792SOL    HW212046   2.726   9.224   1.591
  793SOL     OW12047   3.800   4.223   1.317
  793SOL    HW112048   3.799   4.201   1.414
  793SOL    HW212049   3.827   4.319   1.304
  794SOL     OW12050   2.509   3.468   2.156
  794SOL    HW112051   2.585   3.424   2.204
  794SOL    HW212052   2.500   3.429   2.065
  795SOL     OW12053   3.573   0.922   0.983
  795SOL    HW112054   3.613   1.009   0.953
  795SOL    HW212055   3.617   0.847   0.934
  796SOL     OW12056   3.689   4.996   0.431
  796SOL    HW112057   3.684   4.901   0.400
  796SOL    HW212058   3.710   5.056   0.353
  797SOL     OW12059   3.846   3.510   0.879
  797SOL    HW112060   3.897   3.533   0.797
  797SOL    HW212061   3.855   3.584   0.946
  798SOL     OW12062   2.607   1.552   0.445
  798SOL    HW112063   2.607   1.594   0.536
  798SOL    HW212064   2.513   1.528   0.420
  799SOL     OW12065   2.659   1.867   1.360
  799SOL    HW112066   2.675   1.941   1.294
  799SOL    HW212067   2.743   1.814   1.371
  800SOL     OW12068   4.619   2.868   0.470
  800SOL    HW112069   4.528   2.909   0.467
  800SOL    HW212070   4.684   2.929   0.423
  801SOL     OW12071   2.670   2.125   1.535
  801SOL    HW112072   2.642   2.039   1.492
  801SOL    HW212073   2.758   2.113   1.581
  802SOL     OW12074   2.606   1.650   0.701
  802SOL    HW112075   2.577   1.575   0.761
  802SOL    HW212076   2.699   1.678   0.725
  803SOL     OW12077   3.553   4.777   2.016
  803SOL    HW112078   3.646   4.742   2.019
  803SOL    HW212079   3.533   4.810   1.924
  804SOL     OW12080   3.331   9.839   2.012
  804SOL    HW112081   3.293   9.831   2.104
  804SOL    HW212082   3.428   9.813   2.014
  805SOL     OW12083   3.210   1.675   1.024
  805SOL    HW112084   3.135   1.733   1.056
  805SOL    HW212085   3.201   1.584   1.064
  806SOL     OW12086   4.019   2.239   1.059
  806SOL    HW112087   4.106   2.191   1.065
  806SOL    HW212088   4.036   2.337   1.053
  807SOL     OW12089   3.121   4.453   1.238
  807SOL    HW112090   3.148   4.357   1.229
  807SOL    HW212091   3.036   4.460   1.290
  808SOL     OW12092   2.677   9.970   1.826
  808SOL    HW112093   2.771   9.999   1.844
  808SOL    HW212094   2.648   0.006   1.737
  809SOL     OW12095   4.490   2.076   0.662
  809SOL    HW112096   4.498   2.127   0.576
  809SOL    HW212097   4.579   2.038   0.686
  810SOL     OW12098   3.725   0.825   1.826
  810SOL    HW112099   3.643   0.775   1.854
  810SOL    HW212100   3.807   0.772   1.848
  811SOL     OW12101   2.490   9.729   1.230
  811SOL    HW112102   2.459   9.644   1.189
  811SOL    HW212103   2.565   9.711   1.293
  812SOL     OW12104   4.427   2.584   0.974
  812SOL    HW112105   4.412   2.610   1.069
  812SOL    HW212106   4.403   2.660   0.914
  813SOL     OW12107   3.703   1.669   0.918
  813SOL    HW112108   3.789   1.718   0.928
  813SOL    HW212109   3.671   1.677   0.823
  814SOL     OW12110   3.300   1.913   0.497
  814SOL    HW112111   3.283   1.814   0.498
  814SOL    HW212112   3.222   1.960   0.539
  815SOL     OW12113   3.381   9.109   1.433
  815SOL    HW112114   3.479   9.122   1.419
  815SOL    HW212115   3.349   9.029   1.382
  816SOL     OW12116   3.199   3.838   2.083
  816SOL    HW112117   3.216   3.784   2.001
  816SOL    HW212118   3.203   3.778   2.163
  817SOL     OW12119   3.414   3.301   0.818
  817SOL    HW112120   3.478   3.378   0.812
  817SOL    HW212121   3.465   3.215   0.824
  818SOL     OW12122   2.513   0.220   0.791
  818SOL    HW112123   2.568   0.184   0.866
  818SOL    HW212124   2.573   0.242   0.714
  819SOL     OW12125   2.289   2.119   2.275
  819SOL    HW112126   2.235   2.135   2.193
  819SOL    HW212127   2.317   2.207   2.314
  820SOL     OW12128   2.866   1.619   0.352
  820SOL    HW112129   2.768   1.604   0.367
  820SOL    HW212130   2.894   1.699   0.404
  821SOL     OW12131   3.187   8.588   1.060
  821SOL    HW112132   3.207   8.652   0.985
  821SOL    HW212133   3.094   8.604   1.093
  822SOL     OW12134   3.780   3.905   1.461
  822SOL    HW112135   3.799   3.993   1.504
  822SOL    HW212136   3.863   3.869   1.420
  823SOL     OW12137   2.781   3.875   0.645
  823SOL    HW112138   2.843   3.799   0.667
  823SOL    HW212139   2.777   3.937   0.723
  824SOL     OW12140   2.115   2.106   0.684
  824SOL    HW112141   2.022   2.074   0.704
  824SOL    HW212142   2.158   2.043   0.620
  825SOL     OW12143   2.824   9.161   1.084
  825SOL    HW112144   2.861   9.068   1.087
  825SOL    HW212145   2.843   9.207   1.171
  826SOL     OW12146   2.255   9.585   0.846
  826SOL    HW112147   2.155   9.591   0.838
  826SOL    HW212148   2.296   9.672   0.817
  827SOL     OW12149   3.159   0.016   1.242
  827SOL    HW112150   3.186   0.023   1.338
  827SOL    HW212151   3.192   9.930   1.205
  828SOL     OW12152   2.544   2.369   1.627
  828SOL    HW112153   2.502   2.369   1.717
  828SOL    HW212154   2.587   2.280   1.609
  829SOL     OW12155   2.710   2.161   1.892
  829SOL    HW112156   2.647   2.215   1.949
  829SOL    HW212157   2.763   2.222   1.834
  830SOL     OW12158   2.950   5.159   1.944
  830SOL    HW112159   2.959   5.137   2.041
  830SOL    HW212160   2.905   5.083   1.896
  831SOL     OW12161   2.994   1.577   2.102
  831SOL    HW112162   3.033   1.525   2.178
  831SOL    HW212163   2.967   1.668   2.135
  832SOL     OW12164   4.216   1.458   1.967
  832SOL    HW112165   4.288   1.483   1.902
  832SOL    HW212166   4.204   1.359   1.967
  833SOL     OW12167   2.940   4.231   0.342
  833SOL    HW112168   2.873   4.304   0.356
  833SOL    HW212169   2.896   4.142   0.356
  834SOL     OW12170   2.120   0.779   1.538
  834SOL    HW112171   2.086   0.685   1.539
  834SOL    HW212172   2.216   0.779   1.566
  835SOL     OW12173   2.584   9.516   2.223
  835SOL    HW112174   2.635   9.430   2.225
  835SOL    HW212175   2.554   9.535   2.130
  836SOL     OW12176   3.807   2.586   0.701
  836SOL    HW112177   3.708   2.585   0.713
  836SOL    HW212178   3.839   2.495   0.676
  837SOL     OW12179   3.017   5.122   2.212
  837SOL    HW112180   3.115   5.106   2.204
  837SOL    HW212181   2.976   5.056   2.274
  838SOL     OW12182   2.532   1.995   2.324
  838SOL    HW112183   2.439   2.025   2.303
  838SOL    HW212184   2.558   1.922   2.260
  839SOL     OW12185   4.187   2.909   1.454
  839SOL    HW112186   4.190   3.009   1.458
  839SOL    HW212187   4.279   2.872   1.466
  840SOL     OW12188   3.058   9.033   2.037
  840SOL    HW112189   3.092   8.940   2.049
  840SOL    HW212190   3.119   9.084   1.976
  841SOL     OW12191   4.386   3.397   0.653
  841SOL    HW112192   4.456   3.391   0.582
  841SOL    HW212193   4.376   3.308   0.697
  842SOL     OW12194   3.275   0.043   1.510
  842SOL    HW112195   3.263   0.025   1.607
  842SOL    HW212196   3.286   0.142   1.496
  843SOL     OW12197   2.762   2.873   0.609
  843SOL    HW112198   2.845   2.834   0.650
  843SOL    HW212199   2.697   2.800   0.589
  844SOL     OW12200   2.804   1.209   1.666
  844SOL    HW112201   2.755   1.165   1.741
  844SOL    HW212202   2.749   1.285   1.631
  845SOL     OW12203   3.973   2.078   0.380
  845SOL    HW112204   3.881   2.087   0.417
  845SOL    HW212205   3.998   2.161   0.331
  846SOL     OW12206   3.633   3.108   0.753
  846SOL    HW112207   3.624   3.162   0.669
  846SOL    HW212208   3.673   3.020   0.732
  847SOL     OW12209   2.145   3.564   1.142
  847SOL    HW112210   2.164   3.552   1.240
  847SOL    HW212211   2.051   3.594   1.130
  848SOL     OW12212   2.363   9.373   0.701
  848SOL    HW112213   2.315   9.441   0.756
  848SOL    HW212214   2.441   9.415   0.656
  849SOL     OW12215   2.769   9.127   1.724
  849SOL    HW112216   2.867   9.137   1.708
  849SOL    HW212217   2.754   9.105   1.821
  850SOL     OW12218   3.075   2.554   0.177
  850SOL    HW112219   3.105   2.525   0.086
  850SOL    HW212220   2.990   2.508   0.201
  851SOL     OW12221   2.207   9.818   0.410
  851SOL    HW112222   2.283   9.768   0.367
  851SOL    HW212223   2.243   9.893   0.465
  852SOL     OW12224   3.215   4.808   1.913
  852SOL    HW112225   3.255   4.893   1.947
  852SOL    HW212226   3.148   4.774   1.979
  853SOL     OW12227   3.198   1.655   0.533
  853SOL    HW112228   3.190   1.565   0.490
  853SOL    HW212229   3.109   1.702   0.531
  854SOL     OW12230   3.440   3.285   0.352
  854SOL    HW112231   3.380   3.288   0.432
  854SOL    HW212232   3.535   3.282   0.383
  855SOL     OW12233   3.375   4.047   2.051
  855SOL    HW112234   3.322   3.963   2.065
  855SOL    HW212235   3.343   4.118   2.113
  856SOL     OW12236   3.773   1.191   2.006
  856SOL    HW112237   3.691   1.147   1.966
  856SOL    HW212238   3.745   1.269   2.062
  10.00000  10.00000   2.86600
