chitosan Film  in water:acetic acid 2% t= 2000.00000 step= 2000000
10386
    1CHTO  H203    1   3.979   5.399   0.599  0.5501  0.5920  1.6790
    1CHTO   O82    2   4.001   5.473   0.546  0.1648 -0.7941 -0.5038
    1CHTO  C123    3   4.107   5.540   0.605 -0.1250  0.1469 -0.0334
    1CHTO  H227    4   4.068   5.576   0.701 -0.4825 -0.1661 -0.0624
    1CHTO   O77    5   4.197   5.439   0.638 -0.3948 -0.0189 -0.4206
    1CHTO  C118    6   4.315   5.472   0.706 -0.2474 -0.4570  0.1395
    1CHTO  H222    7   4.286   5.504   0.807 -0.4280 -3.9643  1.2638
    1CHTO  C125    8   4.393   5.343   0.725 -0.1842  0.9113  0.2357
    1CHTO   O84    9   4.331   5.248   0.816  0.4167  0.7973 -0.4803
    1CHTO  H205   10   4.404   5.194   0.842 -0.7521 -1.6688 -2.1005
    1CHTO  C114   11   4.392   5.576   0.622 -0.4596  0.1009  0.4469
    1CHTO  H218   12   4.415   5.527   0.528  0.8402  1.4900  0.0149
    1CHTO  C116   13   4.309   5.701   0.582  0.3618  0.4024  0.9464
    1CHTO  H220   14   4.297   5.760   0.676 -2.9750 -1.4917  1.8066
    1CHTO   O79   15   4.380   5.784   0.491 -0.7082  0.2681  0.0276
    1CHTO  H201   16   4.335   5.863   0.468 -1.7749 -0.0353  1.0153
    1CHTO  C120   17   4.170   5.655   0.519 -0.5843 -0.3381  0.1101
    1CHTO  H224   18   4.177   5.617   0.415 -2.5720 -0.5534  0.0456
    1CHTO   N21   19   4.087   5.780   0.499 -0.1870  0.1216  0.4667
    1CHTO  H211   20   4.025   5.771   0.411 -0.2020 -1.1772  0.6004
    1CHTO  H212   21   4.154   5.862   0.478 -0.9131  1.0472  1.7370
    1CHTO   O75   22   4.513   5.615   0.687  0.1415  0.0225 -0.2509
    1CHTO  C112   23   4.649   5.621   0.597  0.3288  0.3003 -0.2222
    1CHTO  H216   24   4.636   5.665   0.497  0.1914 -1.5687 -1.0613
    1CHTO   O73   25   4.700   5.485   0.591 -0.0860  0.2383 -0.1606
    1CHTO  C113   26   4.821   5.470   0.516  0.0314 -0.2744  0.7219
    1CHTO  H217   27   4.791   5.490   0.411 -0.8477  0.5666  1.1309
    1CHTO  C124   28   4.850   5.327   0.503  0.3336  0.1859  0.0748
    1CHTO   O83   29   4.744   5.227   0.501 -0.7994  0.2992 -0.2211
    1CHTO  H204   30   4.771   5.141   0.526  0.8612  0.6427 -0.7786
    1CHTO  C109   31   4.945   5.545   0.570 -0.3739 -0.4871  0.5167
    1CHTO  H213   32   4.975   5.493   0.662 -0.0818 -1.0362  0.1122
    1CHTO  C110   33   4.897   5.690   0.592 -0.4101 -0.4270 -0.5998
    1CHTO  H214   34   4.894   5.738   0.495 -0.2106 -0.0934 -0.4409
    1CHTO   O78   35   5.015   5.745   0.659 -0.5344  0.0209  0.4695
    1CHTO  H200   36   5.001   5.736   0.752  0.6854  0.1787  0.6687
    1CHTO  C111   37   4.764   5.699   0.670 -0.2279  0.0718  0.1335
    1CHTO  H215   38   4.779   5.652   0.769 -1.9670  0.6327  0.6809
    1CHTO   N19   39   4.721   5.838   0.702 -0.0598 -0.2172  0.5135
    1CHTO  H207   40   4.624   5.839   0.750  0.1915  0.5054  1.0329
    1CHTO  H208   41   4.794   5.892   0.761  1.6170 -0.2083 -1.5255
    1CHTO   O74   42   5.057   5.543   0.476  0.5219 -0.1565 -0.5842
    1CHTO  C115   43   5.212   5.495   0.535 -0.5646 -0.4029 -0.0625
    1CHTO  H219   44   5.268   5.581   0.572 -4.0192  2.3557 -1.0168
    1CHTO   O76   45   5.196   5.397   0.656 -0.2889  0.3234 -0.0105
    1CHTO  C122   46   5.204   5.259   0.619 -0.1258  0.1397 -0.1932
    1CHTO  H226   47   5.132   5.240   0.539  2.1580  1.8248 -2.7509
    1CHTO  C126   48   5.167   5.169   0.736  0.3853  0.0159 -0.3041
    1CHTO   O85   49   5.052   5.225   0.803 -0.4795  0.3348 -0.1425
    1CHTO  H206   50   5.043   5.196   0.891  0.7757 -1.1454 -0.4762
    1CHTO  C121   51   5.352   5.237   0.574 -0.5338 -0.1518  0.9100
    1CHTO  H225   52   5.405   5.235   0.672  0.0167 -2.6751  0.5881
    1CHTO   O81   53   5.373   5.101   0.534  0.2074 -0.2989 -0.2786
    1CHTO  H202   54   5.309   5.062   0.477  0.3665 -1.8515  0.5705
    1CHTO  C119   55   5.409   5.347   0.476 -0.2623  0.6161 -0.4880
    1CHTO  H223   56   5.468   5.415   0.538 -1.8399  1.6884 -0.1475
    1CHTO  C117   57   5.288   5.430   0.412  0.6066  0.2868 -0.5454
    1CHTO  H221   58   5.213   5.383   0.349 -1.0501 -0.2632  1.7778
    1CHTO   N20   59   5.337   5.550   0.334  0.1566  0.0026 -0.1405
    1CHTO  H209   60   5.251   5.614   0.320 -0.1083 -0.0410  1.1912
    1CHTO  H210   61   5.375   5.508   0.242 -1.9675 -0.3954 -0.8709
    1CHTO   O80   62   5.521   5.298   0.387  0.1059  0.0752  0.5148
    1CHTO  C103   63   5.670   5.282   0.446 -0.2453 -0.3913 -0.4527
    1CHTO  H190   64   5.682   5.343   0.535  1.3932  0.6632 -1.3596
    1CHTO  C101   65   5.720   5.130   0.483  0.9641 -0.3256  0.1492
    1CHTO  H188   66   5.685   5.053   0.415  1.1564 -2.1974  2.1480
    1CHTO   O68   67   5.660   5.091   0.618 -0.2447 -0.0272  0.4185
    1CHTO  H168   68   5.697   5.143   0.687 -0.3033  0.3382  0.1758
    1CHTO   C99   69   5.884   5.121   0.501  0.4322 -0.4876 -0.3636
    1CHTO  H186   70   5.910   5.165   0.599  0.2791 -1.5753  0.1643
    1CHTO   N17   71   5.934   4.977   0.511  0.3085  0.8893 -0.2364
    1CHTO  H174   72   6.016   4.962   0.579  0.2529  1.6619  0.0049
    1CHTO  H175   73   5.964   4.942   0.414 -1.9164 -0.9544 -0.3155
    1CHTO   C97   74   5.955   5.206   0.393  0.1580  0.4895 -0.0302
    1CHTO  H184   75   5.947   5.151   0.298 -0.1311 -0.4554  0.5270
    1CHTO   O64   76   5.897   5.336   0.385 -0.3966 -0.2229  0.5245
    1CHTO  C104   77   5.759   5.350   0.339 -0.0668 -0.0235  0.1030
    1CHTO  H191   78   5.745   5.300   0.243  2.0539 -1.6205  0.6058
    1CHTO  C108   79   5.723   5.503   0.320 -0.0531 -0.3860 -0.3115
    1CHTO   O71   80   5.776   5.563   0.201  0.1716  0.0882  0.8879
    1CHTO  H171   81   5.850   5.514   0.168  0.2715 -0.5898  2.1064
    1CHTO   O62   82   6.095   5.216   0.428  0.4623 -0.3526  0.3850
    1CHTO   C91   83   6.199   5.226   0.327  0.1294 -0.3647 -0.3748
    1CHTO  H178   84   6.166   5.257   0.228 -1.5381 -1.4339 -0.1749
    1CHTO   C92   85   6.269   5.087   0.324 -0.0294  0.6511 -0.2258
    1CHTO  H179   86   6.261   5.044   0.425  0.0786 -1.2047 -0.9888
    1CHTO   O66   87   6.162   5.018   0.251  0.0163  0.0078  0.0662
    1CHTO  H166   88   6.177   4.926   0.250  2.0214  0.2893  0.4438
    1CHTO   C93   89   6.409   5.072   0.259 -0.3310 -0.5882 -0.8589
    1CHTO  H180   90   6.385   5.093   0.153  2.2259  0.1260 -1.3450
    1CHTO   N16   91   6.475   4.941   0.271  0.2563 -1.0575  0.5933
    1CHTO  H172   92   6.541   4.936   0.186 -0.1666  1.3549  0.0726
    1CHTO  H173   93   6.409   4.857   0.284 -1.1179 -0.3904 -1.6705
    1CHTO   C94   94   6.497   5.187   0.318  0.9782  0.1278 -0.2417
    1CHTO  H181   95   6.510   5.176   0.426 -0.6303 -1.2454 -0.1691
    1CHTO   O61   96   6.434   5.313   0.288 -0.7950 -0.0944 -0.3871
    1CHTO   C95   97   6.309   5.338   0.360  0.2881 -0.7584 -0.0981
    1CHTO  H182   98   6.321   5.350   0.468  0.3271  0.8967 -0.2679
    1CHTO  C106   99   6.250   5.477   0.323  0.2549 -0.4067 -0.6114
    1CHTO   O69  100   6.238   5.500   0.184 -0.0232 -0.0909  0.8709
    1CHTO  H169  101   6.187   5.435   0.140  0.2811 -0.6753  1.3596
    1CHTO   O63  102   6.637   5.191   0.241  0.3999 -0.3270 -0.0645
    1CHTO   C96  103   6.752   5.217   0.352  0.1420  0.8592  0.6659
    1CHTO  H183  104   6.715   5.286   0.428 -1.3358  0.4020  0.3824
    1CHTO   C98  105   6.888   5.276   0.294 -0.5837 -0.5102  0.6041
    1CHTO  H185  106   6.874   5.367   0.234 -2.1450 -1.4098 -0.4375
    1CHTO   O67  107   6.976   5.320   0.400 -0.4142 -0.0012  0.2504
    1CHTO  H167  108   6.939   5.391   0.450 -0.8171  1.4866 -2.1068
    1CHTO  C102  109   6.961   5.168   0.202 -0.2075  0.8472 -0.1102
    1CHTO  H189  110   7.058   5.215   0.183  1.7355 -2.2708  1.6935
    1CHTO   N18  111   6.902   5.129   0.072 -0.6963  0.6800 -0.2094
    1CHTO  H176  112   6.883   5.214   0.008 -1.5088  0.7906  0.1749
    1CHTO  H177  113   6.811   5.076   0.094 -0.2652  0.1705  0.3932
    1CHTO  C105  114   6.994   5.041   0.296  0.4518 -0.0627  0.2929
    1CHTO  H192  115   6.954   4.950   0.250 -1.1764  1.0088 -0.4392
    1CHTO   O65  116   6.939   5.049   0.428  0.3204  0.1781 -0.4872
    1CHTO  C100  117   6.788   5.075   0.424 -1.3410 -0.0491  0.6285
    1CHTO  H187  118   6.738   4.991   0.374 -1.4074  0.2849  0.1226
    1CHTO  C107  119   6.742   5.081   0.569  0.4433  0.2021  0.3612
    1CHTO   O70  120   6.808   5.178   0.654 -0.0119 -0.0874 -0.0400
    1CHTO  H170  121   6.762   5.167   0.735  1.9441 -0.5061  1.0260
    1CHTO   O57  122   7.153   5.030   0.310 -0.5098  0.3203  0.1270
    1CHTO   C85  123   7.213   4.900   0.310  0.2914  0.0637  0.7422
    1CHTO  H157  124   7.180   4.842   0.221  0.4165  2.3384 -0.8356
    1CHTO   C83  125   7.164   4.817   0.430 -0.5060  0.6898  0.0597
    1CHTO  H155  126   7.058   4.797   0.414  0.2738 -2.6341 -1.3258
    1CHTO   O56  127   7.175   4.901   0.548  0.1327  0.2274 -0.1009
    1CHTO  H135  128   7.265   4.915   0.566  0.7252 -1.1214 -1.7801
    1CHTO   C81  129   7.242   4.681   0.434 -0.3288  0.6491  0.2486
    1CHTO  H153  130   7.231   4.628   0.339 -0.4452  0.9199  0.1095
    1CHTO   N14  131   7.190   4.594   0.538 -0.0563 -0.0307  0.6753
    1CHTO  H141  132   7.235   4.620   0.631  1.4216 -0.3688  0.0767
    1CHTO  H142  133   7.084   4.591   0.546 -0.2252  0.6304 -1.1630
    1CHTO   C79  134   7.393   4.708   0.450 -0.1535  0.3053  0.5271
    1CHTO  H151  135   7.446   4.613   0.445 -0.6307  0.1475 -2.8993
    1CHTO   O52  136   7.442   4.792   0.347 -0.0312  0.3104  0.5506
    1CHTO   C86  137   7.367   4.912   0.324 -0.2009  0.6376  0.7191
    1CHTO  H158  138   7.388   4.983   0.406  0.8391  0.2953  0.7557
    1CHTO   C90  139   7.422   4.970   0.200 -0.0436 -0.0717 -0.5742
    1CHTO   O60  140   7.409   4.888   0.084  0.3155 -0.2300 -0.0909
    1CHTO  H138  141   7.349   4.921   0.020  1.8588  1.9831 -0.4655
    1CHTO   O50  142   7.422   4.774   0.574 -0.7756 -0.0614  0.3187
    1CHTO   C73  143   7.506   4.755   0.687  0.2953 -0.9090  0.3854
    1CHTO  H145  144   7.590   4.689   0.663 -0.4043 -1.3703 -0.8379
    1CHTO   C74  145   7.422   4.679   0.800  0.2664  0.0381 -0.2726
    1CHTO  H146  146   7.390   4.582   0.760  1.6466 -1.2493  1.6586
    1CHTO   O54  147   7.501   4.649   0.915  0.1213 -0.4189 -0.5459
    1CHTO  H133  148   7.551   4.727   0.932  0.6454 -1.3931  2.9327
    1CHTO   C75  149   7.297   4.773   0.843 -0.6301  0.0892  0.7606
    1CHTO  H147  150   7.233   4.795   0.756 -1.5462 -0.8182  1.1848
    1CHTO   N13  151   7.207   4.699   0.939  0.1500 -0.2058  0.3747
    1CHTO  H139  152   7.106   4.737   0.945 -0.7190 -2.4009  0.2235
    1CHTO  H140  153   7.247   4.683   1.038 -0.0183 -0.1394  0.4524
    1CHTO   C76  154   7.358   4.910   0.899 -0.4669 -0.0216 -0.7112
    1CHTO  H148  155   7.412   4.899   0.993 -3.7442  1.1042  1.3940
    1CHTO   O49  156   7.437   4.969   0.788 -0.2936 -0.3363 -0.2734
    1CHTO   C77  157   7.555   4.895   0.746 -0.6819  0.3123 -0.2834
    1CHTO  H149  158   7.624   4.875   0.828 -2.6578 -0.2953  1.2591
    1CHTO   C88  159   7.625   4.982   0.643 -0.1436 -0.3528 -0.1212
    1CHTO   O58  160   7.757   4.912   0.615 -0.1631  0.1281 -0.0728
    1CHTO  H136  161   7.744   4.845   0.551  0.1927  0.4368 -0.4745
    1CHTO   O51  162   7.255   5.007   0.924 -0.2612 -0.0736 -0.4693
    1CHTO   C78  163   7.312   5.163   0.948 -0.4610  0.8687  0.6783
    1CHTO  H150  164   7.376   5.186   0.861 -1.0838 -0.8480 -0.2614
    1CHTO   C80  165   7.392   5.171   1.079  0.1922  0.0399  0.7347
    1CHTO  H152  166   7.327   5.122   1.154 -1.2713  0.1269 -0.4550
    1CHTO   O55  167   7.516   5.103   1.054 -0.1690 -0.1478  0.3894
    1CHTO  H134  168   7.574   5.159   1.006 -2.1194  2.0611  0.4933
    1CHTO   C84  169   7.422   5.320   1.127  0.2350  0.3718 -0.0091
    1CHTO  H156  170   7.488   5.367   1.055  2.0992 -1.2294  0.6144
    1CHTO   N15  171   7.482   5.336   1.258  0.5133 -0.6419 -0.4846
    1CHTO  H143  172   7.568   5.272   1.269  3.2744  2.7883 -1.2959
    1CHTO  H144  173   7.512   5.436   1.281 -2.6676  0.4867 -0.9794
    1CHTO   C87  174   7.299   5.409   1.106  0.7772  0.2464 -0.0483
    1CHTO  H159  175   7.221   5.396   1.181  0.9070 -0.3578 -0.0165
    1CHTO   O53  176   7.238   5.386   0.976 -0.2352 -0.1751 -0.0789
    1CHTO   C82  177   7.192   5.258   0.960  0.3200  0.2732 -0.1986
    1CHTO  H154  178   7.124   5.234   1.042  0.4505 -0.4450 -0.2932
    1CHTO   C89  179   7.100   5.255   0.832  0.3984  0.0155 -0.0619
    1CHTO   O59  180   7.154   5.278   0.707 -0.9434 -0.0629  0.0948
    1CHTO  H137  181   7.158   5.200   0.654  0.9133 -0.4270  0.7374
    1CHTO   O45  182   7.356   5.563   1.088  0.0177 -0.1995 -0.1290
    1CHTO   C67  183   7.256   5.670   1.079 -0.0410  0.6308  0.3489
    1CHTO  H124  184   7.313   5.761   1.097  0.4014  0.0463  1.9886
    1CHTO   C65  185   7.183   5.678   0.941 -0.4411 -0.0442  0.7018
    1CHTO  H122  186   7.220   5.603   0.871 -2.6340  1.9102 -2.6796
    1CHTO   O44  187   7.216   5.804   0.881  0.5226 -0.1610  0.4644
    1CHTO  H102  188   7.152   5.862   0.918  1.1552  0.6477  0.2913
    1CHTO   C63  189   7.033   5.638   0.955  0.2365  0.6385 -0.2005
    1CHTO  H120  190   7.024   5.542   1.005 -0.1194 -0.4478 -2.2915
    1CHTO   N11  191   6.955   5.628   0.826  0.4526  0.3873 -0.0018
    1CHTO  H108  192   6.932   5.525   0.807  0.2931  0.2345  1.0002
    1CHTO  H109  193   7.016   5.649   0.740  0.3937 -1.2004 -0.4614
    1CHTO   C61  194   6.965   5.742   1.055  0.2175  0.3911  0.6359
    1CHTO  H118  195   6.869   5.704   1.093  0.3896  0.4556  1.1332
    1CHTO   O40  196   7.048   5.764   1.177  0.0804 -0.2167  0.6826
    1CHTO   C68  197   7.155   5.665   1.207  0.6617  0.8314  0.2094
    1CHTO  H125  198   7.105   5.568   1.229  0.8266  1.0192  1.4386
    1CHTO   C72  199   7.235   5.701   1.335  0.4891 -0.0871 -0.7158
    1CHTO   O48  200   7.268   5.844   1.338  1.3143 -0.3565 -0.9411
    1CHTO  H105  201   7.240   5.880   1.420  5.1374  0.8186 -0.0479
    1CHTO   O38  202   6.951   5.874   0.993 -0.4328  0.0321  0.4976
    1CHTO   C55  203   6.850   5.968   1.031 -0.2586 -0.6547 -0.0829
    1CHTO  H112  204   6.812   5.955   1.133 -1.0608 -0.9722 -0.4226
    1CHTO   C56  205   6.731   5.963   0.925 -0.3160  0.2922  0.0113
    1CHTO  H113  206   6.777   5.968   0.825 -0.3876  3.1059  0.0780
    1CHTO   O42  207   6.666   5.832   0.925  0.3532 -0.2597  0.0063
    1CHTO  H100  208   6.631   5.807   1.008 -0.5697 -1.0766 -0.6174
    1CHTO   C57  209   6.627   6.083   0.948 -0.0190  0.2397 -0.5253
    1CHTO  H114  210   6.574   6.085   1.043 -0.9812 -0.4848 -1.0350
    1CHTO   N10  211   6.515   6.089   0.848  0.2637  0.6556 -0.1995
    1CHTO  H106  212   6.433   6.024   0.875 -2.2551  2.8945 -2.1935
    1CHTO  H107  213   6.475   6.189   0.844  2.1488  1.4232 -0.2979
    1CHTO   C58  214   6.715   6.213   0.936  0.2750  1.2437 -0.7350
    1CHTO  H115  215   6.766   6.213   0.838 -0.3118  0.5568 -1.0541
    1CHTO   O37  216   6.812   6.210   1.041 -0.6189  0.0618  0.4398
    1CHTO   C59  217   6.911   6.115   1.015  0.1801 -0.1217 -0.2557
    1CHTO  H116  218   6.968   6.126   0.922  1.8666  1.6081  0.9547
    1CHTO   C70  219   7.024   6.127   1.116  0.3128  0.2966 -0.0523
    1CHTO   O46  220   7.153   6.066   1.089  0.1808  0.6906  0.4224
    1CHTO  H103  221   7.157   5.973   1.099  0.0703  0.6030 -0.2892
    1CHTO   O39  222   6.607   6.356   0.965 -0.2566  0.3583  0.3062
    1CHTO   C60  223   6.670   6.478   0.925 -0.7923  0.1822  0.3643
    1CHTO  H117  224   6.774   6.470   0.957 -0.6862  1.2770  0.2997
    1CHTO   C62  225   6.655   6.499   0.768  0.0258  0.4186 -0.4650
    1CHTO  H119  226   6.702   6.411   0.719  0.5698 -0.4481  1.5573
    1CHTO   O43  227   6.521   6.503   0.727  0.5869  0.2550 -0.1084
    1CHTO  H101  228   6.479   6.419   0.734 -1.0771  1.2027  1.7002
    1CHTO   C66  229   6.740   6.620   0.728  0.0700 -0.3662  0.2050
    1CHTO  H123  230   6.842   6.601   0.762  0.0847 -1.7685 -0.5822
    1CHTO   N12  231   6.753   6.635   0.579  0.6779 -0.3102  0.5651
    1CHTO  H110  232   6.767   6.539   0.532  1.2550  0.5621 -1.0681
    1CHTO  H111  233   6.840   6.697   0.562  1.8297 -1.5264  1.8649
    1CHTO   C69  234   6.689   6.748   0.799 -0.3039  0.5525 -0.4268
    1CHTO  H126  235   6.586   6.753   0.759 -0.8251  1.0442  0.9381
    1CHTO   O41  236   6.679   6.727   0.975 -0.1774  0.0335 -0.4353
    1CHTO   C64  237   6.612   6.597   1.012 -0.2745  0.0913 -0.3912
    1CHTO  H121  238   6.507   6.595   0.978 -0.2886 -1.9736 -0.2667
    1CHTO   C71  239   6.613   6.568   1.163 -0.5172  0.5294  0.6148
    1CHTO   O47  240   6.550   6.671   1.229 -0.1260 -0.2426  0.2929
    1CHTO  H104  241   6.561   6.653   1.320 -1.6078 -1.3213  0.2579
    1CHTO   O34  242   6.768   6.885   0.761  0.0376 -0.4993  0.0508
    1CHTO   C49  243   6.866   6.991   0.825  0.7895  0.1972  0.4584
    1CHTO   H91  244   6.872   7.078   0.760  1.1631 -1.4931 -1.8593
    1CHTO   C47  245   7.007   6.935   0.815  0.0912 -0.0832 -0.2285
    1CHTO   H89  246   7.018   6.945   0.705 -1.3488  0.4330 -0.3286
    1CHTO   O33  247   7.010   6.791   0.849  0.3878 -0.3445 -0.4289
    1CHTO   H70  248   7.069   6.740   0.795  1.2741 -0.2889  0.4709
    1CHTO   C45  249   7.111   7.022   0.905 -0.5105  0.0411  0.5102
    1CHTO   H87  250   7.121   6.972   1.002  1.9458 -2.4468 -0.9298
    1CHTO    N8  251   7.247   7.020   0.834 -0.3471  0.2747  0.3731
    1CHTO   H75  252   7.276   6.918   0.809  0.1951  0.6576 -0.5919
    1CHTO   H76  253   7.227   7.071   0.741 -0.2366  0.8935  0.6879
    1CHTO   C43  254   7.051   7.165   0.946  0.1005  0.7412  0.7120
    1CHTO   H85  255   7.123   7.216   1.010 -0.4927  1.2637  0.9716
    1CHTO   O29  256   6.922   7.144   1.009 -0.2354  0.4560  0.0989
    1CHTO   C50  257   6.829   7.038   0.970 -0.5572 -0.4006  0.0419
    1CHTO   H92  258   6.839   6.955   1.041 -1.0368  0.2898  0.9149
    1CHTO   C54  259   6.686   7.090   0.965 -0.1187  0.2339 -0.4569
    1CHTO   O36  260   6.650   7.129   1.101  1.4711 -0.1757 -0.0415
    1CHTO   H72  261   6.590   7.061   1.127  0.5735 -0.2764 -2.2388
    1CHTO   O27  262   7.038   7.258   0.834 -0.7485 -0.1751 -0.4762
    1CHTO   C37  263   7.044   7.395   0.810  0.0288 -0.5181 -0.3720
    1CHTO   H79  264   7.004   7.455   0.893 -0.6535  0.1212 -1.1515
    1CHTO   C38  265   7.192   7.439   0.803  0.7674  0.0368 -0.0049
    1CHTO   H80  266   7.246   7.354   0.759 -0.1007 -1.4133  1.6577
    1CHTO   O31  267   7.241   7.443   0.940 -0.1690 -0.6577 -0.1561
    1CHTO   H68  268   7.315   7.501   0.946  1.0080 -2.2224  1.0527
    1CHTO   C39  269   7.212   7.584   0.733  0.0188 -0.3999 -0.1716
    1CHTO   H81  270   7.183   7.675   0.785  2.3596  0.0708  0.3460
    1CHTO    N7  271   7.352   7.608   0.698  0.6736  0.0466 -0.3025
    1CHTO   H73  272   7.408   7.615   0.790  1.0271 -0.1465 -0.5030
    1CHTO   H74  273   7.383   7.519   0.644 -1.1993 -1.3219  0.7965
    1CHTO   C40  274   7.119   7.588   0.603 -0.4089 -0.3871 -0.3349
    1CHTO   H82  275   7.160   7.512   0.537  2.6133  0.6212  0.2838
    1CHTO   O26  276   6.982   7.564   0.636  0.2773  0.1317  0.7921
    1CHTO   C41  277   6.959   7.433   0.684 -0.1596 -0.3345 -0.5062
    1CHTO   H83  278   6.991   7.370   0.600 -0.4521  0.1817 -1.0093
    1CHTO   C52  279   6.809   7.402   0.716 -0.7619 -0.8186  0.6464
    1CHTO   O35  280   6.723   7.439   0.620 -0.1944  0.2912 -0.1402
    1CHTO   H71  281   6.634   7.422   0.643  0.7810 -2.8980  1.4867
    1CHTO   O28  282   7.115   7.708   0.528 -0.0344 -0.1379  0.7698
    1CHTO   C42  283   7.103   7.698   0.379 -0.0649 -0.2216  0.0247
    1CHTO   H84  284   7.041   7.611   0.357 -0.1868  0.1412 -1.0850
    1CHTO   C44  285   7.235   7.679   0.284 -0.2001  0.9117 -0.4344
    1CHTO   H86  286   7.280   7.778   0.273 -0.1149  0.6958 -2.1152
    1CHTO   O32  287   7.316   7.578   0.341 -0.4811 -0.3571 -0.1968
    1CHTO   H69  288   7.361   7.619   0.413 -1.9770  0.4528  0.2967
    1CHTO   C48  289   7.192   7.640   0.138  0.0616 -0.2845 -0.0747
    1CHTO   H90  290   7.143   7.543   0.140  1.0066 -0.8283 -2.0183
    1CHTO    N9  291   7.316   7.626   0.049  0.1375 -0.2140  0.1762
    1CHTO   H77  292   7.289   7.556  -0.029 -1.1489  0.5106 -0.0560
    1CHTO   H78  293   7.402   7.589   0.101 -0.6076 -1.3790  0.5980
    1CHTO   C51  294   7.088   7.742   0.078 -0.0671  0.2596 -0.1092
    1CHTO   H93  295   7.135   7.829   0.032 -2.6734  1.4927 -0.5470
    1CHTO   O30  296   6.987   7.782   0.179  0.2522 -0.3875  0.6383
    1CHTO   C46  297   7.035   7.816   0.317 -0.2891  0.5159  0.4672
    1CHTO   H88  298   7.110   7.894   0.305 -0.5232  0.5961 -0.4670
    1CHTO   C53  299   6.917   7.864   0.402  0.1458 -0.1339  0.0608
    1CHTO   O72  300   6.825   7.956   0.334  0.3577  0.1387  0.4313
    1CHTO  H199  301   6.870   8.036   0.315  3.2692 -1.5684 -0.1171
    1CHTO   O22  302   7.017   7.681  -0.032 -0.5414 -0.4121 -0.4809
    1CHTO   C31  303   6.900   7.730  -0.108 -0.6159 -0.0011  0.3572
    1CHTO   H59  304   6.848   7.806  -0.046  1.7089  2.3907 -0.5626
    1CHTO   C29  305   6.945   7.804  -0.241  0.9858  0.2671  0.1969
    1CHTO   H57  306   7.022   7.744  -0.291  0.6110 -0.2878  0.2734
    1CHTO   O21  307   7.017   7.923  -0.196 -0.5740 -0.2625 -0.0491
    1CHTO   H37  308   6.965   7.975  -0.138 -1.2465 -1.1354  0.1335
    1CHTO   C27  309   6.829   7.836  -0.339 -0.3520  0.0617  0.0420
    1CHTO   H55  310   6.781   7.929  -0.306 -1.4082 -0.9799  1.4786
    1CHTO    N5  311   6.882   7.859  -0.477 -0.2709  0.1246  0.6798
    1CHTO   H43  312   6.960   7.934  -0.481  1.1943 -1.4577 -1.3368
    1CHTO   H44  313   6.905   7.778  -0.544  1.3297  0.5555  0.6830
    1CHTO   C25  314   6.726   7.718  -0.346 -0.1893 -0.1679  1.1307
    1CHTO   H53  315   6.776   7.629  -0.387 -0.2994 -0.1492  0.9566
    1CHTO   O17  316   6.690   7.683  -0.210  0.0285 -0.3768  0.5560
    1CHTO   C32  317   6.800   7.624  -0.131 -0.2742 -0.6619 -0.5605
    1CHTO   H60  318   6.854   7.547  -0.187 -2.7255 -2.1203 -0.9856
    1CHTO   C36  319   6.731   7.568   0.003 -0.6041  0.4182  0.5035
    1CHTO   O25  320   6.822   7.501   0.093 -0.5130 -0.2076  0.6729
    1CHTO   H40  321   6.792   7.415   0.114  0.2467 -1.1906 -2.0554
    1CHTO   O15  322   6.596   7.742  -0.447 -0.2165  0.0426  0.0265
    1CHTO   C19  323   6.509   7.638  -0.512 -0.7938 -0.2579 -0.7413
    1CHTO   H47  324   6.433   7.710  -0.548 -0.7292 -0.5423 -1.4549
    1CHTO   C20  325   6.585   7.568  -0.626  0.0978  0.0480  0.0794
    1CHTO   H48  326   6.682   7.528  -0.594  0.3565  1.5439  1.1941
    1CHTO   O19  327   6.615   7.663  -0.725 -0.8414 -0.2875  0.0715
    1CHTO   H35  328   6.676   7.720  -0.682 -1.3767 -1.5366  2.6089
    1CHTO   C21  329   6.495   7.462  -0.693  0.0978  0.4446 -0.8471
    1CHTO   H49  330   6.411   7.516  -0.738  1.2324  4.1614  1.3276
    1CHTO    N4  331   6.558   7.385  -0.803  0.0685  0.4352 -0.1776
    1CHTO   H41  332   6.481   7.346  -0.869  0.6606 -0.1159 -0.5437
    1CHTO   H42  333   6.620   7.301  -0.777  1.0417  0.7256 -1.4743
    1CHTO   C22  334   6.440   7.371  -0.578 -0.0650  0.4599  0.0659
    1CHTO   H50  335   6.529   7.335  -0.525 -1.0339  0.6706  1.8762
    1CHTO   O14  336   6.361   7.456  -0.487 -0.3788 -0.7852  0.2689
    1CHTO   C23  337   6.444   7.543  -0.410 -0.8546 -0.0010  0.6340
    1CHTO   H51  338   6.520   7.483  -0.358  0.4981  0.4640 -0.7739
    1CHTO   C34  339   6.359   7.615  -0.311  0.2268  0.0224 -0.2810
    1CHTO   O23  340   6.309   7.525  -0.207 -0.0216 -0.1414 -0.3566
    1CHTO   H38  341   6.368   7.508  -0.136 -1.1102 -0.7133  0.4365
    1CHTO   O16  342   6.349   7.266  -0.617 -0.8145 -0.7112  0.8228
    1CHTO   C24  343   6.402   7.105  -0.612  0.3551  0.9488  0.1697
    1CHTO   H52  344   6.504   7.096  -0.650  0.3924  0.0844  0.4582
    1CHTO   C26  345   6.290   7.026  -0.682  0.6574 -0.0627 -0.1910
    1CHTO   H54  346   6.197   7.054  -0.630  0.8555 -1.0064  0.6871
    1CHTO   O20  347   6.276   7.077  -0.821  0.1052 -0.0126  0.2461
    1CHTO   H36  348   6.257   7.168  -0.817 -2.2848 -0.4256 -0.8152
    1CHTO   C30  349   6.314   6.868  -0.674  0.4525 -0.1939  0.7471
    1CHTO   H58  350   6.414   6.838  -0.709 -0.6029 -2.2983 -0.5472
    1CHTO    N6  351   6.224   6.779  -0.750 -0.8646  0.5069  0.2014
    1CHTO   H45  352   6.227   6.674  -0.723  0.7084  0.0769 -1.6366
    1CHTO   H46  353   6.231   6.782  -0.857 -1.6873 -0.2351  0.1199
    1CHTO   C33  354   6.307   6.846  -0.520 -1.2409  0.7802  0.1798
    1CHTO   H61  355   6.216   6.889  -0.476 -1.0533  0.1428  1.2087
    1CHTO   O18  356   6.419   6.913  -0.463 -0.2991  0.1659 -0.8722
    1CHTO   C28  357   6.407   7.054  -0.468  0.0876 -0.4312  0.0813
    1CHTO   H56  358   6.319   7.090  -0.415 -0.0706  0.6645 -0.9128
    1CHTO   C35  359   6.539   7.098  -0.403  0.4821  0.0794  0.2732
    1CHTO   O24  360   6.659   7.059  -0.460  0.0689 -0.1597 -0.4503
    1CHTO   H39  361   6.656   6.976  -0.504 -0.4755  0.2421 -1.1828
    1CHTO    O9  362   6.300   6.707  -0.482 -0.0311  0.0288  0.1829
    1CHTO   C13  363   6.274   6.686  -0.342  0.2772  1.2262  0.1152
    1CHTO   H26  364   6.182   6.738  -0.308 -0.0642  0.0005  1.0755
    1CHTO   C11  365   6.395   6.702  -0.244  0.0773 -0.2378 -0.5458
    1CHTO   H24  366   6.414   6.809  -0.228 -3.6289  0.3924 -0.0498
    1CHTO    O8  367   6.510   6.645  -0.306  0.0426 -0.1560 -0.8370
    1CHTO    H3  368   6.492   6.555  -0.326  0.8423  0.2346 -3.4881
    1CHTO    C9  369   6.362   6.650  -0.106 -0.2019 -0.4343 -0.1030
    1CHTO   H22  370   6.280   6.713  -0.069 -0.0025 -0.3506  0.2018
    1CHTO    N2  371   6.467   6.681  -0.011 -0.0557 -0.1248  0.3991
    1CHTO   H10  372   6.483   6.788  -0.012  1.4414 -0.3526 -1.5157
    1CHTO   H11  373   6.552   6.620  -0.035  0.7172  0.9797  0.2894
    1CHTO    C7  374   6.332   6.498  -0.116  0.0847 -0.0906 -0.2010
    1CHTO   H20  375   6.305   6.450  -0.020 -1.8532 -0.9827 -1.1600
    1CHTO    O4  376   6.230   6.471  -0.208  0.4373  0.4326  0.0073
    1CHTO   C14  377   6.204   6.534  -0.333  0.5591 -0.4439 -0.2179
    1CHTO   H27  378   6.095   6.551  -0.332  0.4036 -1.4009  0.6829
    1CHTO   C18  379   6.240   6.448  -0.451  0.0414 -0.5355 -0.0913
    1CHTO   O13  380   6.148   6.341  -0.477  0.2362 -0.4326  0.1894
    1CHTO    H7  381   6.125   6.337  -0.568  1.7948  1.2643 -0.2980
    1CHTO    O2  382   6.464   6.413  -0.159  0.0742 -0.2382 -0.3340
    1CHTO    C1  383   6.511   6.305  -0.074 -0.0899  0.5489  0.6359
    1CHTO   H14  384   6.451   6.294   0.019  1.7601  2.8186  2.1509
    1CHTO    C2  385   6.656   6.315  -0.025 -0.4798 -0.4076 -0.6132
    1CHTO   H15  386   6.711   6.349  -0.114 -1.4688  0.6418 -0.8432
    1CHTO    O6  387   6.664   6.426   0.066 -0.2410  0.4296  0.0381
    1CHTO    H1  388   6.677   6.399   0.155 -0.4543  2.0786  0.5906
    1CHTO    C3  389   6.705   6.182   0.044 -0.0969  0.3553  0.2989
    1CHTO   H16  390   6.655   6.168   0.141 -1.6692  0.0432 -0.5219
    1CHTO    N1  391   6.852   6.186   0.076 -1.1279  0.5466 -0.0134
    1CHTO    H8  392   6.864   6.226   0.175 -4.0876 -2.1652  1.5157
    1CHTO    H9  393   6.906   6.238  -0.002 -0.3430  0.4828  0.4770
    1CHTO    C4  394   6.659   6.061  -0.040  0.9417  0.2786  0.2516
    1CHTO   H17  395   6.728   6.049  -0.124  0.9789 -1.5273  0.5111
    1CHTO    O1  396   6.527   6.072  -0.086  0.3641 -0.6147 -0.5755
    1CHTO    C5  397   6.500   6.180  -0.164  0.4498  0.5824 -0.2428
    1CHTO   H18  398   6.563   6.194  -0.252 -0.1465  1.3908 -0.5436
    1CHTO   C16  399   6.352   6.165  -0.213  0.3295 -0.4889 -0.3424
    1CHTO   O11  400   6.332   6.079  -0.327 -0.3362 -0.2195 -0.6609
    1CHTO    H5  401   6.240   6.074  -0.342 -0.5625 -1.6689  0.9695
    1CHTO    O3  402   6.683   5.943   0.046  0.2417  0.2040  0.2597
    1CHTO    C6  403   6.679   5.814  -0.020 -0.1266 -1.1495  0.0759
    1CHTO   H19  404   6.651   5.826  -0.125  1.8217  1.8209 -0.1559
    1CHTO    C8  405   6.818   5.750  -0.001  1.0774 -0.7090 -0.3790
    1CHTO   H21  406   6.839   5.755   0.106 -0.3116  0.4529 -0.1447
    1CHTO    O7  407   6.912   5.828  -0.079 -0.0773 -0.2342  0.1928
    1CHTO    H2  408   6.996   5.811  -0.042 -1.1050 -1.0594  2.1989
    1CHTO   C12  409   6.812   5.603  -0.052 -0.2471 -0.5258  0.5397
    1CHTO   H25  410   6.805   5.613  -0.162  3.7722  1.7886  0.3973
    1CHTO    N3  411   6.939   5.519  -0.036  0.1216 -0.1125 -0.4630
    1CHTO   H12  412   6.912   5.414  -0.038 -3.4004  0.6976  1.1515
    1CHTO   H13  413   6.981   5.540   0.061  3.6256  0.2501 -1.9573
    1CHTO   C15  414   6.689   5.519   0.005 -0.0456  0.2324  0.3128
    1CHTO   H28  415   6.703   5.496   0.111 -0.3190  0.4809  0.4043
    1CHTO   O10  416   6.665   5.377  -0.063  0.3469  0.4491 -0.0041
    1CHTO    H4  417   6.582   5.379  -0.108  1.6520  3.6722 -2.4920
    1CHTO    O5  418   6.564   5.593  -0.016 -0.0099  0.2041  0.0674
    1CHTO   C10  419   6.567   5.731   0.045  0.2484  0.1702 -0.4787
    1CHTO   H23  420   6.580   5.709   0.151  0.0186  0.9959 -0.2692
    1CHTO   C17  421   6.428   5.776   0.023  0.0006  0.0994  0.6252
    1CHTO   O12  422   6.385   5.870   0.121  0.1527 -0.4653 -0.1858
    1CHTO    H6  423   6.392   5.948   0.070  0.6803  0.6815  1.5673
    2CHTO  H203  424   4.263   3.545   1.593  3.1437 -1.6429  0.3553
    2CHTO   O82  425   4.306   3.608   1.539 -0.0568  0.1719 -0.2440
    2CHTO  C123  426   4.267   3.744   1.561 -0.3043 -0.2195 -0.2683
    2CHTO  H227  427   4.312   3.789   1.651  0.6993 -2.2939  0.2871
    2CHTO   O77  428   4.325   3.801   1.440 -0.1429 -0.1404  0.0157
    2CHTO  C118  429   4.278   3.933   1.414  0.6186  0.3350 -0.2955
    2CHTO  H222  430   4.307   4.005   1.492  1.8764 -1.0168  0.5185
    2CHTO  C125  431   4.351   3.966   1.283  0.4690  0.1513  0.4109
    2CHTO   O84  432   4.466   4.040   1.320  0.3509 -0.3912 -0.2377
    2CHTO  H205  433   4.450   4.130   1.299 -2.5202 -0.6023  0.9105
    2CHTO  C114  434   4.121   3.946   1.400 -0.0404  0.1349 -0.0093
    2CHTO  H218  435   4.088   3.892   1.311  0.7562  0.9820 -0.8356
    2CHTO  C116  436   4.057   3.896   1.532  0.6203  0.9838 -0.5405
    2CHTO  H220  437   4.091   3.969   1.607 -1.6991  2.0211 -0.4534
    2CHTO   O79  438   3.916   3.915   1.507 -0.6720 -0.1929 -0.3355
    2CHTO  H201  439   3.876   3.931   1.591 -1.1928  0.9222 -0.7944
    2CHTO  C120  440   4.106   3.753   1.562 -0.2083 -0.8334 -0.6192
    2CHTO  H224  441   4.055   3.686   1.488 -0.0106  0.7419 -2.2170
    2CHTO   N21  442   4.044   3.707   1.688 -0.8122  0.4064  0.0681
    2CHTO  H211  443   4.117   3.639   1.728  3.1548  0.8327 -5.8208
    2CHTO  H212  444   4.035   3.790   1.756 -0.1288 -0.1962  0.8970
    2CHTO   O75  445   4.101   4.084   1.373 -0.4635 -0.4315  0.0318
    2CHTO  C112  446   3.969   4.140   1.324 -0.4439 -0.2254  0.4351
    2CHTO  H216  447   3.895   4.139   1.406  2.8014  3.2684  3.6150
    2CHTO   O73  448   3.925   4.061   1.210  0.4668 -0.3377  0.3221
    2CHTO  C113  449   3.797   4.097   1.157 -0.3739 -0.0426 -0.2344
    2CHTO  H217  450   3.724   4.064   1.234 -0.7229  0.4451 -0.3553
    2CHTO  C124  451   3.771   3.998   1.041  0.4003  0.0385 -0.2571
    2CHTO   O83  452   3.856   4.012   0.920 -0.3877 -0.1832 -0.1431
    2CHTO  H204  453   3.883   3.929   0.886  0.6613  1.4618 -3.5741
    2CHTO  C109  454   3.795   4.247   1.107  0.1746 -0.3640  0.7308
    2CHTO  H213  455   3.869   4.256   1.026  0.3806  2.0802  1.1637
    2CHTO  C110  456   3.843   4.341   1.223 -0.8445  0.1696 -0.4061
    2CHTO  H214  457   3.770   4.332   1.304  0.5368  0.0554  0.8603
    2CHTO   O78  458   3.847   4.473   1.175 -0.0204 -0.2711 -0.2707
    2CHTO  H200  459   3.769   4.516   1.206 -1.0590 -3.0863  1.2546
    2CHTO  C111  460   3.980   4.292   1.282  0.9230  0.7689 -0.0632
    2CHTO  H215  461   4.056   4.296   1.202 -1.0840 -1.9923 -2.2193
    2CHTO   N19  462   4.034   4.373   1.394 -0.1603  0.9086 -0.1581
    2CHTO  H207  463   3.963   4.379   1.475 -0.1321  1.5627 -0.1843
    2CHTO  H208  464   4.044   4.476   1.365  0.4694  0.4054 -1.7799
    2CHTO   O74  465   3.663   4.281   1.058 -0.0844  0.4853 -0.5510
    2CHTO  C115  466   3.658   4.313   0.886 -0.3295 -0.1977 -0.0144
    2CHTO  H219  467   3.756   4.300   0.839 -0.9155 -2.0661 -0.7597
    2CHTO   O76  468   3.552   4.209   0.804 -0.5253  0.3617 -0.0783
    2CHTO  C122  469   3.419   4.222   0.846  0.4228 -0.0770  0.3623
    2CHTO  H226  470   3.402   4.185   0.947  0.8035  0.5593  0.6641
    2CHTO  C126  471   3.346   4.116   0.747  0.1003  0.0061 -0.1897
    2CHTO   O85  472   3.206   4.120   0.757 -0.2140  0.2406 -0.2094
    2CHTO  H206  473   3.159   4.048   0.721  0.2752  0.5493 -1.4821
    2CHTO  C121  474   3.371   4.373   0.837  0.5691  0.6433  0.7495
    2CHTO  H225  475   3.284   4.366   0.768  1.1483 -3.5280  0.3510
    2CHTO   O81  476   3.314   4.417   0.965 -0.0335 -0.0954  0.3855
    2CHTO  H202  477   3.384   4.437   1.024 -0.8107  0.5691  1.0982
    2CHTO  C119  478   3.483   4.471   0.785  1.0215  0.1890  0.2931
    2CHTO  H223  479   3.511   4.432   0.688  2.2113  1.9350 -0.0928
    2CHTO  C117  480   3.615   4.464   0.877 -0.0607  0.2026 -0.3068
    2CHTO  H221  481   3.603   4.505   0.977 -0.7727  1.1634 -0.7838
    2CHTO   N20  482   3.718   4.559   0.812  0.2294 -0.0170  0.6325
    2CHTO  H209  483   3.721   4.655   0.863 -0.0027 -0.0232  0.6593
    2CHTO  H210  484   3.817   4.517   0.807  0.4824  0.7298 -0.6983
    2CHTO   O80  485   3.420   4.619   0.737 -0.7775 -0.5409  0.4779
    2CHTO  C103  486   3.454   4.681   0.596  0.2982  0.0196 -0.5981
    2CHTO  H190  487   3.561   4.698   0.584  0.0854  0.3272 -2.2203
    2CHTO  C101  488   3.390   4.598   0.468  0.0673 -0.9204  0.0992
    2CHTO  H188  489   3.291   4.558   0.491 -0.7125  0.9430  0.0765
    2CHTO   O68  490   3.465   4.488   0.444 -0.1530 -0.0894 -0.5559
    2CHTO  H168  491   3.499   4.450   0.523  1.4767  1.2817 -0.5741
    2CHTO   C99  492   3.366   4.697   0.343 -0.5708  0.0071  0.6205
    2CHTO  H186  493   3.468   4.710   0.303  0.7983 -3.3528  2.8153
    2CHTO   N17  494   3.282   4.643   0.226  0.4156  0.2674 -0.4084
    2CHTO  H174  495   3.332   4.561   0.176  1.3825 -0.5865  1.9093
    2CHTO  H175  496   3.248   4.715   0.153  1.1667 -0.8688 -1.9045
    2CHTO   C97  497   3.303   4.835   0.383  0.2535  0.3870 -0.0610
    2CHTO  H184  498   3.202   4.819   0.423  0.8632  0.4118  1.5343
    2CHTO   O64  499   3.393   4.892   0.485  0.0076  0.1628 -0.3463
    2CHTO  C104  500   3.387   4.825   0.609 -0.3964  0.7505 -0.6151
    2CHTO  H191  501   3.284   4.813   0.641  0.1283  0.7099  1.1053
    2CHTO  C108  502   3.450   4.915   0.721  0.0593 -0.2341 -0.4422
    2CHTO   O71  503   3.387   5.036   0.735  0.0486  0.3270 -0.4811
    2CHTO  H171  504   3.421   5.092   0.802 -0.8388 -2.0943  2.0866
    2CHTO   O62  505   3.306   4.942   0.285  0.7813  0.2686 -0.5103
    2CHTO   C91  506   3.205   5.048   0.283  0.4390  0.5737 -0.8508
    2CHTO  H178  507   3.142   5.032   0.371 -1.0764 -1.6472 -2.2684
    2CHTO   C92  508   3.120   5.040   0.147 -0.1080 -0.1806  0.1370
    2CHTO  H179  509   3.184   5.051   0.058 -1.8608 -2.8209 -1.4861
    2CHTO   O66  510   3.060   4.910   0.125 -0.1662 -0.2575 -0.0234
    2CHTO  H166  511   2.967   4.903   0.133  0.0806 -0.1341  3.8433
    2CHTO   C93  512   3.014   5.151   0.145 -0.6688 -0.0004 -0.0171
    2CHTO  H180  513   2.943   5.112   0.218 -1.4031  0.2029 -0.6117
    2CHTO   N16  514   2.946   5.173   0.014 -0.3820  0.1543  0.0310
    2CHTO  H172  515   2.846   5.131   0.020  0.4542 -2.2864 -2.0049
    2CHTO  H173  516   2.950   5.273  -0.027  0.7764  0.2606  0.4074
    2CHTO   C94  517   3.066   5.289   0.192 -0.0593 -0.1839 -0.0141
    2CHTO  H181  518   3.047   5.368   0.119 -0.8135  0.7586  1.1749
    2CHTO   O61  519   3.210   5.301   0.223 -0.1124  0.1053 -0.3188
    2CHTO   C95  520   3.262   5.195   0.304  0.9414 -0.6628  0.3546
    2CHTO  H182  521   3.367   5.182   0.279  0.0942 -2.3622 -2.5434
    2CHTO  C106  522   3.266   5.242   0.456  0.6458  0.2932 -0.6127
    2CHTO   O69  523   3.362   5.349   0.474 -0.6544  0.4087 -0.0628
    2CHTO  H169  524   3.333   5.412   0.411  0.2979  0.9493  0.0328
    2CHTO   O63  525   2.981   5.330   0.337 -0.0462 -0.2445  0.4124
    2CHTO   C96  526   2.864   5.437   0.342  0.0142 -0.7330 -0.4740
    2CHTO  H183  527   2.837   5.437   0.448 -1.2578 -1.7257 -0.7830
    2CHTO   C98  528   2.738   5.400   0.271 -0.3848  0.5650  0.1481
    2CHTO  H185  529   2.765   5.382   0.165 -1.1553 -3.0582  0.4804
    2CHTO   O67  530   2.701   5.272   0.323 -0.1263  0.2025  0.6442
    2CHTO  H167  531   2.613   5.252   0.296 -0.0103  1.2906 -0.5898
    2CHTO  C102  532   2.626   5.514   0.286 -0.1588  0.2877  0.3790
    2CHTO  H189  533   2.606   5.522   0.394 -1.3172 -1.0035  0.2698
    2CHTO   N18  534   2.497   5.497   0.219  0.4552  0.4246 -0.1852
    2CHTO  H176  535   2.416   5.490   0.291  0.4804  2.9406  0.1301
    2CHTO  H177  536   2.480   5.581   0.154  0.7263  1.3475  0.9173
    2CHTO  C105  537   2.685   5.659   0.248 -0.3520 -0.0110 -0.2671
    2CHTO  H192  538   2.696   5.668   0.140  0.5805  0.5461 -0.1354
    2CHTO   O65  539   2.813   5.682   0.303 -0.8154  0.2951 -0.3016
    2CHTO  C100  540   2.917   5.578   0.298  0.4376 -0.1696 -0.4986
    2CHTO  H187  541   2.948   5.568   0.193 -0.2249  0.8411 -0.7978
    2CHTO  C107  542   3.024   5.626   0.386 -0.4541 -0.2587  0.6074
    2CHTO   O70  543   3.148   5.561   0.382  0.6366 -0.5907  0.2155
    2CHTO  H170  544   3.162   5.525   0.468  1.9169 -1.6834 -0.4334
    2CHTO   O57  545   2.584   5.779   0.313  0.8025 -0.1133 -0.2178
    2CHTO   C85  546   2.565   5.913   0.264 -0.0127  0.1965  0.4733
    2CHTO  H157  547   2.513   5.959   0.351  1.0733 -0.0589  1.2607
    2CHTO   C83  548   2.467   5.921   0.145 -0.2045  0.0412  0.1349
    2CHTO  H155  549   2.369   5.887   0.179 -0.8056 -2.2911 -3.6933
    2CHTO   O56  550   2.513   5.823   0.045  0.2421  0.0771 -0.0143
    2CHTO  H135  551   2.569   5.875  -0.009 -2.2430  1.9859 -0.8364
    2CHTO   C81  552   2.454   6.073   0.103 -0.2208 -0.0390  0.3797
    2CHTO  H153  553   2.425   6.134   0.188  0.1101  0.3960  0.1872
    2CHTO   N14  554   2.335   6.095   0.015  0.6200  0.1432 -0.0774
    2CHTO  H141  555   2.290   6.007  -0.025  1.5493 -1.2059  1.7472
    2CHTO  H142  556   2.264   6.148   0.075  1.3237  0.4721  0.4722
    2CHTO   C79  557   2.595   6.116   0.049 -0.0449 -0.1373  0.2568
    2CHTO  H151  558   2.591   6.221   0.022  0.4076  0.0948  1.0827
    2CHTO   O52  559   2.689   6.109   0.161  0.3359  0.3228  0.7118
    2CHTO   C86  560   2.701   5.982   0.229  1.1853  0.3322 -0.7344
    2CHTO  H158  561   2.751   5.913   0.158  3.5923 -0.9027  2.0650
    2CHTO   C90  562   2.801   5.993   0.347 -0.2682 -0.5484  0.3806
    2CHTO   O60  563   2.938   6.032   0.301  0.7810  0.1407  0.2997
    2CHTO  H138  564   2.988   5.954   0.301 -0.1817 -0.5064  1.7346
    2CHTO   O50  565   2.650   6.053  -0.073  0.3812 -0.1071 -0.4532
    2CHTO   C73  566   2.681   6.077  -0.209  0.1878 -0.5728  0.6282
    2CHTO  H145  567   2.641   6.172  -0.247  2.8601  0.3167 -0.0057
    2CHTO   C74  568   2.622   5.964  -0.304  0.3628 -0.2392 -0.4152
    2CHTO  H146  569   2.513   5.966  -0.289  0.1935  0.4108 -1.6614
    2CHTO   O54  570   2.640   6.015  -0.434 -0.2957 -0.5541  0.3526
    2CHTO  H133  571   2.680   5.951  -0.489 -1.5860 -0.7984 -0.3356
    2CHTO   C75  572   2.689   5.819  -0.270  0.1279 -0.5557 -0.5813
    2CHTO  H147  573   2.656   5.786  -0.171 -0.9895  0.1965 -0.7024
    2CHTO   N13  574   2.635   5.707  -0.358  0.4567  0.8696  0.1550
    2CHTO  H139  575   2.645   5.751  -0.456  0.0039 -0.1008 -0.3190
    2CHTO  H140  576   2.703   5.623  -0.353  0.1283  0.6541  1.1199
    2CHTO   C76  577   2.848   5.836  -0.266 -0.9637  0.1731 -0.2895
    2CHTO  H148  578   2.877   5.853  -0.370 -1.5351  1.1086 -0.2980
    2CHTO   O49  579   2.886   5.952  -0.181  0.1211 -0.6555 -0.0863
    2CHTO   C77  580   2.834   6.077  -0.226  0.1308  0.2795 -0.0184
    2CHTO  H149  581   2.863   6.110  -0.326  2.1791 -1.1371  0.0850
    2CHTO   C88  582   2.894   6.186  -0.136 -0.1979 -0.1859 -0.5520
    2CHTO   O58  583   2.862   6.330  -0.186 -0.3451  0.4054  0.6274
    2CHTO  H136  584   2.903   6.332  -0.270 -1.2575 -1.3589  0.1240
    2CHTO   O51  585   2.907   5.696  -0.201  0.1696  0.4364  0.1417
    2CHTO   C78  586   3.066   5.687  -0.208 -0.1909  0.5438 -0.7209
    2CHTO  H150  587   3.120   5.770  -0.259  0.3697 -1.3117 -3.2153
    2CHTO   C80  588   3.103   5.557  -0.282 -0.3113 -0.4505 -0.1520
    2CHTO  H152  589   3.055   5.472  -0.229  0.8392 -1.8752 -1.3736
    2CHTO   O55  590   3.049   5.570  -0.415  0.4885  0.4802  0.3632
    2CHTO  H134  591   3.051   5.486  -0.458  1.2530 -0.4894  2.2263
    2CHTO   C84  592   3.255   5.546  -0.280  0.2051  0.0092  0.9927
    2CHTO  H156  593   3.286   5.642  -0.322  0.5254  1.0866  3.5710
    2CHTO   N15  594   3.305   5.442  -0.361 -0.2931 -1.1463  0.1205
    2CHTO  H143  595   3.270   5.458  -0.461 -1.0184  0.6645  0.6461
    2CHTO  H144  596   3.283   5.341  -0.334 -0.4983 -1.7472 -2.1563
    2CHTO   C87  597   3.312   5.523  -0.138 -0.3527 -0.4357  0.5783
    2CHTO  H159  598   3.296   5.427  -0.088  1.1358 -0.9136  0.1679
    2CHTO   O53  599   3.257   5.635  -0.050 -0.6459 -0.4952 -0.3044
    2CHTO   C82  600   3.116   5.670  -0.066 -0.1766 -0.3246 -0.7451
    2CHTO  H154  601   3.057   5.594  -0.015  0.5946 -1.1277 -1.0187
    2CHTO   C89  602   3.099   5.803   0.006 -0.9839 -0.3030  0.1174
    2CHTO   O59  603   2.972   5.837   0.060 -0.4043 -0.5286 -0.3158
    2CHTO  H137  604   2.905   5.827  -0.006 -0.4998 -0.8929 -0.1629
    2CHTO   O45  605   3.485   5.565  -0.136 -0.0819 -0.4306  0.0955
    2CHTO   C67  606   3.539   5.586   0.002  0.6756  0.2741 -0.0531
    2CHTO  H124  607   3.462   5.631   0.065  0.0272 -0.6828 -0.1485
    2CHTO   C65  608   3.574   5.449   0.060  0.0258  0.0601  0.0161
    2CHTO  H122  609   3.607   5.389  -0.025 -0.4114  0.0703 -0.1625
    2CHTO   O44  610   3.448   5.391   0.095 -0.4299 -0.4026 -0.0115
    2CHTO  H102  611   3.407   5.431   0.169 -2.1536 -1.2225 -0.5065
    2CHTO   C63  612   3.693   5.462   0.172  0.1854 -0.1583  0.0818
    2CHTO  H120  613   3.789   5.479   0.123  0.8772  2.3121  2.1936
    2CHTO   N11  614   3.722   5.338   0.247 -0.1183 -0.3155 -0.4738
    2CHTO  H108  615   3.804   5.286   0.202  0.4654  0.2380 -0.0616
    2CHTO  H109  616   3.752   5.361   0.347 -3.1539 -0.1618  0.4511
    2CHTO   C61  617   3.681   5.598   0.246  0.3026 -0.2550 -0.1718
    2CHTO  H118  618   3.758   5.595   0.324 -0.6468 -1.1362  0.7445
    2CHTO   O40  619   3.715   5.707   0.148 -0.0138 -0.1393  0.4994
    2CHTO   C68  620   3.661   5.678   0.010  0.3044 -0.1140 -0.2739
    2CHTO  H125  621   3.749   5.635  -0.043  0.4148 -0.0322 -0.1582
    2CHTO   C72  622   3.621   5.804  -0.068 -0.3516 -0.4454  0.1362
    2CHTO   O48  623   3.729   5.894  -0.094  0.0161 -0.3509  0.7101
    2CHTO  H105  624   3.713   5.983  -0.070  1.0743 -0.0604  0.3609
    2CHTO   O38  625   3.550   5.633   0.295  0.2637 -0.1822 -0.4155
    2CHTO   C55  626   3.531   5.738   0.391 -0.3666 -0.1214 -0.5743
    2CHTO  H112  627   3.613   5.809   0.372 -1.9550  2.3147  1.2454
    2CHTO   C56  628   3.535   5.676   0.536  0.5781 -0.1031 -0.5222
    2CHTO  H113  629   3.491   5.575   0.539 -0.6156  0.4145 -0.0470
    2CHTO   O42  630   3.675   5.657   0.577  0.3632  0.0659  0.1416
    2CHTO  H100  631   3.722   5.598   0.522 -1.0910 -0.4586 -0.5802
    2CHTO   C57  632   3.461   5.770   0.641  0.3212 -0.8032 -0.4499
    2CHTO  H114  633   3.527   5.849   0.676  2.5028 -3.4598  1.6675
    2CHTO   N10  634   3.437   5.691   0.761 -0.2524 -0.2546 -0.0379
    2CHTO  H106  635   3.357   5.737   0.817  0.1491 -0.8352  1.0412
    2CHTO  H107  636   3.526   5.690   0.822  0.5112  0.4068 -1.1370
    2CHTO   C58  637   3.331   5.838   0.582  0.0015 -0.4668  0.2219
    2CHTO  H115  638   3.252   5.763   0.560 -1.0604  1.1318 -1.5493
    2CHTO   O37  639   3.364   5.905   0.460 -0.3517 -0.1276 -0.7518
    2CHTO   C59  640   3.399   5.814   0.351  0.0141  0.1061 -0.3959
    2CHTO  H116  641   3.310   5.754   0.335  0.2537 -0.8392  1.6852
    2CHTO   C70  642   3.427   5.907   0.230  0.0974 -0.2865  0.0362
    2CHTO   O46  643   3.309   5.965   0.168  0.1325  0.5054  0.2681
    2CHTO  H103  644   3.268   5.909   0.105  0.4445  1.6834 -1.0149
    2CHTO   O39  645   3.275   5.973   0.678  0.5086 -0.2270 -0.0100
    2CHTO   C60  646   3.132   5.984   0.673 -0.0363 -0.6744  0.9401
    2CHTO  H117  647   3.091   5.930   0.588  3.1155  0.8488 -1.6328
    2CHTO   C62  648   3.063   5.922   0.797  0.2629 -0.2818  0.1210
    2CHTO  H119  649   3.101   5.820   0.816  2.9362  0.7350  0.4336
    2CHTO   O43  650   3.101   5.989   0.915  0.0304 -0.3491  0.0244
    2CHTO  H101  651   3.192   6.011   0.917  0.5292 -2.4196  0.5617
    2CHTO   C66  652   2.910   5.936   0.769  0.4228 -0.3670 -0.4704
    2CHTO  H123  653   2.884   5.877   0.681 -2.9638 -0.9928  0.9013
    2CHTO   N12  654   2.822   5.875   0.875  0.1721 -0.3748  0.6899
    2CHTO  H110  655   2.732   5.831   0.835 -0.8970  2.8003 -0.5060
    2CHTO  H111  656   2.881   5.808   0.936  1.4524  0.1798  0.0797
    2CHTO   C69  657   2.877   6.086   0.745 -0.2445  0.2841 -0.1009
    2CHTO  H126  658   2.899   6.139   0.840 -1.9833  0.0706  0.4329
    2CHTO   O41  659   2.952   6.145   0.642 -0.5974  0.0070 -0.5859
    2CHTO   C64  660   3.095   6.136   0.650  0.1220  0.6775  0.0623
    2CHTO  H121  661   3.121   6.203   0.734 -0.3415  0.9605 -0.0187
    2CHTO   C71  662   3.153   6.201   0.520 -0.1305 -0.1418  0.0346
    2CHTO   O47  663   3.293   6.214   0.523 -0.4021 -0.1117  0.5668
    2CHTO  H104  664   3.324   6.282   0.580 -0.0257  0.6545 -0.5242
    2CHTO   O34  665   2.713   6.123   0.724 -0.1423 -0.2190  0.1030
    2CHTO   C49  666   2.646   6.256   0.767  0.3485 -0.1666 -0.1627
    2CHTO   H91  667   2.558   6.227   0.825  0.5109  0.0787  0.2047
    2CHTO   C47  668   2.595   6.328   0.647  0.7853  0.4380  0.1241
    2CHTO   H89  669   2.539   6.419   0.677 -0.7575 -0.1486 -0.8916
    2CHTO   O33  670   2.509   6.237   0.578  0.2306  0.6440 -0.3181
    2CHTO   H70  671   2.446   6.285   0.528 -1.2089  0.2307  1.0841
    2CHTO   C45  672   2.722   6.374   0.568  0.6004 -0.2583 -0.3216
    2CHTO   H87  673   2.795   6.293   0.552 -0.4674 -1.3303  0.1888
    2CHTO    N8  674   2.699   6.436   0.435  0.0591 -0.1864  0.3399
    2CHTO   H75  675   2.647   6.530   0.446 -0.2422 -0.4565  1.2957
    2CHTO   H76  676   2.654   6.367   0.366  0.9119 -1.1252  0.6974
    2CHTO   C43  677   2.802   6.480   0.655 -0.1450  0.3302 -0.1035
    2CHTO   H85  678   2.895   6.483   0.598  1.0016 -0.2051  1.7206
    2CHTO   O29  679   2.827   6.422   0.785  0.3656 -0.1077 -0.1174
    2CHTO   C50  680   2.731   6.353   0.857  0.2611 -0.0655 -0.2649
    2CHTO   H92  681   2.775   6.300   0.942 -1.6892  0.4169  1.0634
    2CHTO   C54  682   2.647   6.465   0.933  0.2459 -0.6964  0.1225
    2CHTO   O36  683   2.716   6.525   1.040  0.1703 -0.2939 -0.7394
    2CHTO   H72  684   2.755   6.469   1.104  0.2357  1.4156  0.7544
    2CHTO   O27  685   2.755   6.613   0.669 -0.0274  0.4085 -0.5495
    2CHTO   C37  686   2.746   6.755   0.675 -0.1234 -0.5389 -0.6179
    2CHTO   H79  687   2.802   6.796   0.590  1.5816  0.1695  0.7934
    2CHTO   C38  688   2.601   6.800   0.662 -0.3341  0.6247 -0.1052
    2CHTO   H80  689   2.546   6.747   0.741  1.6026 -0.0445  0.8382
    2CHTO   O31  690   2.548   6.753   0.540  0.1802  0.1008  0.5329
    2CHTO   H68  691   2.470   6.803   0.524 -0.5423 -1.0557  0.3514
    2CHTO   C39  692   2.587   6.961   0.680 -0.1892  1.0915  0.3252
    2CHTO   H81  693   2.630   7.004   0.590 -1.1414  0.5920 -0.3790
    2CHTO    N7  694   2.437   6.996   0.690 -0.0236 -0.8977 -0.5916
    2CHTO   H73  695   2.428   7.104   0.691 -1.3328 -1.0047  1.5339
    2CHTO   H74  696   2.395   6.953   0.779 -0.2666 -0.4243 -0.4736
    2CHTO   C40  697   2.674   7.013   0.800 -0.1200  0.5815 -0.0572
    2CHTO   H82  698   2.624   6.993   0.895 -0.4452 -1.1868 -0.5812
    2CHTO   O26  699   2.806   6.952   0.804  0.9604  0.3200 -0.2636
    2CHTO   C41  700   2.798   6.809   0.805  0.1895 -0.0382 -0.0675
    2CHTO   H83  701   2.737   6.777   0.890 -1.3065  0.5857 -0.8751
    2CHTO   C52  702   2.947   6.756   0.822  0.0690 -0.0638  0.1210
    2CHTO   O35  703   3.001   6.774   0.958  0.0944 -0.2699  0.4739
    2CHTO   H71  704   3.039   6.690   0.976  0.4022 -0.6507 -1.7697
    2CHTO   O28  705   2.682   7.159   0.791  0.4093  0.3541 -0.4014
    2CHTO   C42  706   2.767   7.235   0.884  0.6562 -0.4830  0.4904
    2CHTO   H84  707   2.743   7.337   0.852  1.2895  0.3096  2.4853
    2CHTO   C44  708   2.922   7.221   0.880 -0.7593 -0.3416 -0.0207
    2CHTO   H86  709   2.943   7.119   0.910 -0.6372 -0.6762 -1.2069
    2CHTO   O32  710   2.963   7.238   0.744  0.1273 -0.3316  0.1991
    2CHTO   H69  711   2.971   7.154   0.704 -0.9139 -0.4314  0.1895
    2CHTO   C48  712   2.996   7.317   0.983  0.4054 -0.1526 -0.3188
    2CHTO   H90  713   2.977   7.422   0.963  0.7699  0.2400  1.3097
    2CHTO    N9  714   3.149   7.306   0.971 -0.2376 -0.0467 -0.0513
    2CHTO   H77  715   3.175   7.356   0.880 -0.4937  1.7942  0.8740
    2CHTO   H78  716   3.197   7.363   1.049 -0.7849 -0.2214  0.4144
    2CHTO   C51  717   2.936   7.292   1.123 -0.5606 -0.0533 -0.5034
    2CHTO   H93  718   2.951   7.188   1.153  1.1305  0.0318 -0.9911
    2CHTO   O30  719   2.802   7.328   1.112 -0.0101 -0.3230  0.3207
    2CHTO   C46  720   2.717   7.221   1.025  0.0952  0.0843  0.2322
    2CHTO   H88  721   2.727   7.121   1.069 -1.8138  0.5812  1.8805
    2CHTO   C53  722   2.575   7.274   1.047  0.7408 -0.1025 -0.4842
    2CHTO   O72  723   2.534   7.260   1.178  0.3424  0.3982 -0.5670
    2CHTO  H199  724   2.610   7.287   1.226 -1.6500  1.5094  2.0875
    2CHTO   O22  725   2.995   7.378   1.224 -0.0118 -0.1173  0.7233
    2CHTO   C31  726   2.986   7.362   1.375  0.6065 -0.4754  0.3138
    2CHTO   H59  727   3.037   7.450   1.417  0.0568  1.0885 -2.1917
    2CHTO   C29  728   2.835   7.366   1.425 -0.0301 -0.3241  0.1141
    2CHTO   H57  729   2.774   7.293   1.368 -0.5915 -0.2661  0.6310
    2CHTO   O21  730   2.782   7.497   1.386  0.4256  0.0740  0.4661
    2CHTO   H37  731   2.782   7.513   1.294 -0.7742  0.2790  0.5004
    2CHTO   C27  732   2.812   7.339   1.577 -0.0183 -0.1530  0.4692
    2CHTO   H55  733   2.849   7.425   1.634 -2.1346  2.4724 -1.9430
    2CHTO    N5  734   2.670   7.324   1.613 -0.8385 -0.4106  0.2369
    2CHTO   H43  735   2.655   7.232   1.668  2.5576  0.2848  2.4914
    2CHTO   H44  736   2.644   7.404   1.680  0.7601 -0.4451  0.9255
    2CHTO   C25  737   2.916   7.235   1.631  0.1407  0.2466  0.1589
    2CHTO   H53  738   2.870   7.137   1.611 -0.5246  0.8319 -1.2058
    2CHTO   O17  739   3.043   7.255   1.577 -0.2104 -0.6548  0.6312
    2CHTO   C32  740   3.062   7.239   1.436 -1.0442  0.0686 -0.7930
    2CHTO   H60  741   3.022   7.146   1.396  1.8728 -1.2411 -0.7763
    2CHTO   C36  742   3.215   7.248   1.398  0.1082  0.5850  0.3107
    2CHTO   O25  743   3.278   7.357   1.464  0.1738 -0.5235  0.3623
    2CHTO   H40  744   3.366   7.332   1.485  0.3889  0.2182  0.3587
    2CHTO   O15  745   2.939   7.251   1.776 -0.0984  0.1257 -0.3723
    2CHTO   C19  746   2.999   7.226   1.904  0.2462 -0.3734 -0.0088
    2CHTO   H47  747   2.971   7.123   1.930 -2.2539  0.4484  0.6901
    2CHTO   C20  748   3.151   7.238   1.907 -0.0769 -0.0337 -0.9946
    2CHTO   H48  749   3.190   7.336   1.875  3.1815 -1.4754 -1.6874
    2CHTO   O19  750   3.205   7.138   1.814 -0.1793  0.2928  0.0024
    2CHTO   H35  751   3.261   7.173   1.747 -1.4515  0.3168 -1.0672
    2CHTO   C21  752   3.213   7.209   2.056 -0.1773 -0.6870 -0.7085
    2CHTO   H49  753   3.189   7.105   2.079 -5.0967  0.2827 -0.9121
    2CHTO    N4  754   3.363   7.220   2.069 -0.0130 -0.2060  0.4686
    2CHTO   H41  755   3.378   7.319   2.108  1.2320 -1.6177  3.7724
    2CHTO   H42  756   3.428   7.148   2.116  0.0984 -1.0668 -0.9518
    2CHTO   C22  757   3.134   7.291   2.160  0.2781  0.7072  0.2242
    2CHTO   H50  758   3.162   7.395   2.142 -0.7723  0.7780 -1.0319
    2CHTO   O14  759   2.995   7.279   2.147 -0.3518  0.0881 -0.2980
    2CHTO   C23  760   2.935   7.307   2.020  0.3442  0.6211 -0.7145
    2CHTO   H51  761   2.938   7.415   2.002 -1.7570  0.9112  0.4413
    2CHTO   C34  762   2.785   7.272   2.031 -0.0061 -0.0130 -0.0681
    2CHTO   O23  763   2.688   7.286   1.928 -0.1505 -0.2232  0.3017
    2CHTO   H38  764   2.605   7.317   1.958 -1.4644 -3.8647  0.5622
    2CHTO   O16  765   3.165   7.252   2.296  0.8824  0.5177  0.3034
    2CHTO   C24  766   3.144   7.360   2.414  0.3687  0.6352 -0.1331
    2CHTO   H52  767   3.112   7.456   2.374 -0.5890  0.0319 -0.8354
    2CHTO   C26  768   3.276   7.382   2.489 -0.0545 -0.2217 -0.2278
    2CHTO   H54  769   3.308   7.281   2.521 -0.5279  0.4866  2.6061
    2CHTO   O20  770   3.380   7.429   2.394 -0.3847 -0.5664 -1.0021
    2CHTO   H36  771   3.443   7.485   2.436  0.1672 -0.8611 -1.4264
    2CHTO   C30  772   3.266   7.473   2.617  0.5034  0.2322 -0.7597
    2CHTO   H58  773   3.248   7.578   2.590 -0.3204  0.0658 -0.8664
    2CHTO    N6  774   3.386   7.479   2.704  0.2066 -0.1051 -0.6448
    2CHTO   H45  775   3.446   7.392   2.682  0.1315 -0.0365 -1.1325
    2CHTO   H46  776   3.363   7.485   2.810 -2.6121 -0.1573 -1.2078
    2CHTO   C33  777   3.141   7.426   2.703  0.0269  0.4781  0.3714
    2CHTO   H61  778   3.155   7.325   2.745  0.3884  0.4414  0.1686
    2CHTO   O18  779   3.025   7.422   2.614 -0.7333 -0.0100 -0.1301
    2CHTO   C28  780   3.036   7.315   2.518  0.3137  0.1573 -0.0502
    2CHTO   H56  781   3.072   7.224   2.565  2.1953 -0.1995 -2.0563
    2CHTO   C35  782   2.899   7.287   2.451  0.4014  0.8702  0.9445
    2CHTO   O24  783   2.872   7.153   2.399 -0.1254  0.7169 -0.1638
    2CHTO   H39  784   2.788   7.143   2.359 -0.9177  0.1459  1.6044
    2CHTO    O9  785   3.114   7.512   2.812 -0.0391 -1.1017 -0.6603
    2CHTO   C13  786   2.995   7.444   2.923  0.1557 -0.4170 -0.5064
    2CHTO   H26  787   2.962   7.343   2.890 -0.8526  0.0121 -0.8212
    2CHTO   C11  788   2.876   7.544   2.945  0.1951  0.3710 -0.2117
    2CHTO   H24  789   2.820   7.554   2.851 -1.7029  2.7845  1.1240
    2CHTO    O8  790   2.914   7.681   2.974  0.2363  0.5286  0.3091
    2CHTO    H3  791   2.959   7.725   2.905 -0.3693  0.2449 -0.2752
    2CHTO    C9  792   2.776   7.484   3.046  0.0907  0.0140  0.2143
    2CHTO   H22  793   2.757   7.385   3.003 -0.1529 -0.7015  1.9184
    2CHTO    N2  794   2.637   7.542   3.047 -0.0213  0.1308  0.2334
    2CHTO   H10  795   2.642   7.647   3.072 -0.6360 -0.2432  1.9925
    2CHTO   H11  796   2.570   7.490   3.114 -1.9046  1.5156 -0.5171
    2CHTO    C7  797   2.844   7.474   3.186  0.2006 -0.4556 -0.2381
    2CHTO   H20  798   2.781   7.404   3.246  1.6136 -0.9613  0.6793
    2CHTO    O4  799   2.972   7.406   3.176  0.0688 -0.1147 -0.2621
    2CHTO   C14  800   3.062   7.417   3.064  0.5333 -0.4922  0.2108
    2CHTO   H27  801   3.115   7.320   3.066  0.9247 -0.2970 -0.3965
    2CHTO   C18  802   3.165   7.526   3.108 -0.2722 -0.3989 -0.2850
    2CHTO   O13  803   3.277   7.555   3.024 -0.4685  0.1872  0.0861
    2CHTO    H7  804   3.269   7.498   2.950  0.3516  0.8115 -0.4877
    2CHTO    O2  805   2.859   7.603   3.265 -0.5759  1.0059 -0.4833
    2CHTO    C1  806   2.840   7.597   3.408 -0.1557  0.8091  0.4066
    2CHTO   H14  807   2.857   7.491   3.438  1.6143  0.4642 -1.6268
    2CHTO    C2  808   2.691   7.636   3.446 -0.1987  0.1010 -0.0016
    2CHTO   H15  809   2.673   7.733   3.399 -1.8762 -1.3624 -2.4743
    2CHTO    O6  810   2.601   7.533   3.393  0.3759 -0.2279  0.0312
    2CHTO    H1  811   2.609   7.538   3.299  2.1789 -0.7454  0.1393
    2CHTO    C3  812   2.675   7.646   3.605 -0.3612 -0.5882 -0.7377
    2CHTO   H16  813   2.677   7.543   3.646  1.8547  0.4688  1.9658
    2CHTO    N1  814   2.540   7.708   3.635 -0.7819 -0.1332  0.0517
    2CHTO    H8  815   2.460   7.636   3.645  0.4400 -1.1328  3.0974
    2CHTO    H9  816   2.514   7.772   3.552  0.6269 -3.7170 -3.3227
    2CHTO    C4  817   2.803   7.723   3.673 -0.7355  0.9816  0.1076
    2CHTO   H17  818   2.791   7.829   3.653 -2.3219  1.1759  1.9329
    2CHTO    O1  819   2.923   7.670   3.619 -0.5152 -0.6971 -0.3662
    2CHTO    C5  820   2.941   7.686   3.477 -0.1109  0.3563  0.4815
    2CHTO   H18  821   2.919   7.786   3.438 -0.7476 -0.0118 -0.1091
    2CHTO   C16  822   3.086   7.654   3.451 -0.1105  0.0904 -0.2064
    2CHTO   O11  823   3.123   7.519   3.435  0.6277 -0.2546  0.1352
    2CHTO    H5  824   3.204   7.519   3.388 -0.0282 -2.0269 -1.0679
    2CHTO    O3  825   2.809   7.689   3.813  0.0741  0.3857 -0.9026
    2CHTO    C6  826   2.852   7.802   3.902  0.3729  0.2895  0.2503
    2CHTO   H19  827   2.882   7.895   3.853  1.2581 -0.5507 -0.8533
    2CHTO    C8  828   2.736   7.830   3.995  0.3146 -0.8046  0.0622
    2CHTO   H21  829   2.703   7.736   4.039 -2.3986  0.0423 -0.0414
    2CHTO    O7  830   2.627   7.872   3.915  0.2619  0.1417 -0.5586
    2CHTO    H2  831   2.593   7.797   3.869 -1.2932 -1.8225  3.5564
    2CHTO   C12  832   2.772   7.932   4.115 -0.1978  0.6200 -0.5430
    2CHTO   H25  833   2.785   8.032   4.069  2.8348 -0.0577 -1.2696
    2CHTO    N3  834   2.661   7.943   4.217 -0.0406  0.6933  0.1468
    2CHTO   H12  835   2.629   7.844   4.247 -3.4729  0.6355 -3.2813
    2CHTO   H13  836   2.707   7.999   4.297 -0.4255  0.7491  0.3286
    2CHTO   C15  837   2.908   7.881   4.181  0.2936 -0.6081  0.6721
    2CHTO   H28  838   2.892   7.788   4.237  0.3682 -1.4998 -0.7686
    2CHTO   O10  839   2.964   7.978   4.269  0.4647 -0.1608  0.7834
    2CHTO    H4  840   2.905   8.006   4.337 -1.2903  0.1746 -0.8191
    2CHTO    O5  841   3.005   7.857   4.084 -0.2356 -0.2708  0.2808
    2CHTO   C10  842   2.974   7.756   3.988  0.4245  0.0684  0.4577
    2CHTO   H23  843   2.951   7.664   4.044 -0.8828 -1.0631 -1.8749
    2CHTO   C17  844   3.095   7.722   3.906  0.1033  0.0251  0.2523
    2CHTO   O12  845   3.207   7.691   3.989  0.1821  0.4522 -0.5241
    2CHTO    H6  846   3.292   7.711   3.954  0.3674  3.5931  1.6012
    3CHTO  H203  847   6.965   2.652   1.977 -0.2023 -0.4996 -1.5308
    3CHTO   O82  848   6.885   2.605   1.984 -0.2735 -0.1293  0.2314
    3CHTO  C123  849   6.886   2.466   1.965 -0.0689  0.2557  0.0341
    3CHTO  H227  850   6.952   2.450   1.878 -2.0449 -2.2960 -1.0588
    3CHTO   O77  851   6.929   2.410   2.093 -0.3097 -0.6648  0.3598
    3CHTO  C118  852   6.993   2.281   2.082  0.5567  0.7475 -0.0360
    3CHTO  H222  853   7.064   2.291   1.998 -0.4787  0.2610 -0.9816
    3CHTO  C125  854   7.072   2.240   2.214 -0.4948  0.6339  0.0020
    3CHTO   O84  855   7.209   2.277   2.211  0.0063 -0.2482 -0.0522
    3CHTO  H205  856   7.259   2.225   2.151 -2.6780 -0.2283 -2.3731
    3CHTO  C114  857   6.872   2.183   2.045 -0.0119 -0.0136 -0.6238
    3CHTO  H218  858   6.803   2.182   2.130  1.0985  0.0148  0.2884
    3CHTO  C116  859   6.792   2.230   1.924  0.1010  0.7089  0.4883
    3CHTO  H220  860   6.852   2.204   1.835  0.0583 -1.5669  1.0754
    3CHTO   O79  861   6.675   2.156   1.915 -0.0938  0.1364  0.1777
    3CHTO  H201  862   6.613   2.191   1.976  0.0825  1.4850 -0.3854
    3CHTO  C120  863   6.758   2.386   1.927  0.5728  0.0753 -0.3287
    3CHTO  H224  864   6.670   2.402   1.993 -1.5420  2.7316 -3.6102
    3CHTO   N21  865   6.695   2.429   1.801  0.2154 -0.5172 -0.2719
    3CHTO  H211  866   6.749   2.405   1.710  0.4245  2.0661 -0.8841
    3CHTO  H212  867   6.662   2.531   1.811  1.0199 -0.4069  1.2954
    3CHTO   O75  868   6.928   2.051   2.036  0.2042  0.5918 -0.3277
    3CHTO  C112  869   6.810   1.923   2.084  0.6563 -0.8285 -0.1384
    3CHTO  H216  870   6.742   1.891   2.003  0.9483  0.9404 -1.1067
    3CHTO   O73  871   6.739   1.962   2.205  0.7307  0.0997 -0.2594
    3CHTO  C113  872   6.623   1.884   2.251 -0.3491 -0.0152 -0.1849
    3CHTO  H217  873   6.547   1.881   2.171 -0.6518 -1.1840  0.1369
    3CHTO  C124  874   6.564   1.946   2.380 -0.4838  0.0834  0.5607
    3CHTO   O83  875   6.464   1.868   2.446  0.4527 -0.3217 -0.0298
    3CHTO  H204  876   6.398   1.859   2.381  0.8178 -0.6127 -0.3656
    3CHTO  C109  877   6.676   1.735   2.281 -0.1916 -0.1937 -0.3428
    3CHTO  H213  878   6.713   1.739   2.384 -1.1196  5.0504 -0.0797
    3CHTO  C110  879   6.790   1.686   2.175  0.4110 -0.1946  0.3943
    3CHTO  H214  880   6.735   1.649   2.089  0.6874 -1.0063  0.5604
    3CHTO   O78  881   6.847   1.562   2.227 -0.1534 -0.5457 -0.1483
    3CHTO  H200  882   6.911   1.536   2.164 -0.9189  1.2469 -1.7230
    3CHTO  C111  883   6.885   1.796   2.119  0.2879  0.4983  0.2760
    3CHTO  H215  884   6.955   1.823   2.199 -0.9712  2.0024  0.8970
    3CHTO   N19  885   6.969   1.746   2.007  0.0227  0.0018 -0.8844
    3CHTO  H207  886   6.923   1.672   1.944 -0.4343 -0.1571 -0.3643
    3CHTO  H208  887   7.063   1.709   2.046 -1.1710 -0.6146  1.4770
    3CHTO   O74  888   6.557   1.658   2.275 -0.2416 -0.7532 -0.3959
    3CHTO  C115  889   6.526   1.547   2.390 -0.1392  0.0261 -0.0466
    3CHTO  H219  890   6.593   1.560   2.475 -1.2386  1.2330  0.6482
    3CHTO   O76  891   6.390   1.559   2.445 -0.2382 -0.2961 -0.1965
    3CHTO  C122  892   6.284   1.554   2.346 -0.7567  0.2871 -0.1929
    3CHTO  H226  893   6.290   1.640   2.280  1.8996 -0.5345 -1.1200
    3CHTO  C126  894   6.147   1.569   2.421  0.5497  0.0876  0.9654
    3CHTO   O85  895   6.115   1.689   2.491  0.3048 -0.2350 -0.7686
    3CHTO  H206  896   6.133   1.767   2.443  1.8651  0.3055  0.6315
    3CHTO  C121  897   6.292   1.419   2.264 -0.5980 -0.1660 -0.0965
    3CHTO  H225  898   6.193   1.372   2.281  0.2294 -1.3241  1.7221
    3CHTO   O81  899   6.292   1.436   2.117  0.0184  0.3774 -0.1569
    3CHTO  H202  900   6.224   1.500   2.103 -2.3176 -1.8107  0.8465
    3CHTO  C119  901   6.408   1.326   2.316  0.1470 -0.3399 -0.0995
    3CHTO  H223  902   6.384   1.297   2.419 -1.8471  2.1385  0.1961
    3CHTO  C117  903   6.545   1.405   2.321  0.2157  0.0998  0.0754
    3CHTO  H221  904   6.588   1.427   2.223  1.7047 -0.2403  0.6371
    3CHTO   N20  905   6.654   1.329   2.395 -0.9243  0.7303  0.8299
    3CHTO  H209  906   6.668   1.239   2.337 -1.7040  0.8375  0.4737
    3CHTO  H210  907   6.630   1.295   2.495 -1.5861  1.5994  0.9650
    3CHTO   O80  908   6.420   1.182   2.246 -0.2244 -0.0362  0.0036
    3CHTO  C103  909   6.336   1.060   2.315  0.1115 -0.0213  0.1976
    3CHTO  H190  910   6.339   1.066   2.423  0.5086  1.1880  0.1245
    3CHTO  C101  911   6.191   1.054   2.268  0.3224  0.4036  0.1355
    3CHTO  H188  912   6.185   1.079   2.162  1.3985  2.5115  0.5352
    3CHTO   O68  913   6.097   1.173   2.333  0.3025  0.0661 -0.5714
    3CHTO  H168  914   6.087   1.144   2.422  2.5765 -2.0023 -0.9637
    3CHTO   C99  915   6.129   0.912   2.295  0.5055  0.0630 -1.0069
    3CHTO  H186  916   6.130   0.898   2.405  1.3735  1.3462 -0.8355
    3CHTO   N17  917   5.985   0.893   2.246  0.1294 -0.4850 -0.1467
    3CHTO  H174  918   5.916   0.890   2.328  1.9208  0.1951  1.4119
    3CHTO  H175  919   5.980   0.808   2.179  0.8010  0.9255 -2.0197
    3CHTO   C97  920   6.219   0.798   2.240  0.5266  0.6056 -0.6120
    3CHTO  H184  921   6.227   0.812   2.131 -1.0875  1.0014 -0.6870
    3CHTO   O64  922   6.350   0.814   2.305 -0.0461 -0.4599 -0.0356
    3CHTO  C104  923   6.421   0.933   2.266  0.2130 -0.3014 -0.7773
    3CHTO  H191  924   6.448   0.948   2.162  2.2881 -0.4484 -0.2661
    3CHTO  C108  925   6.551   0.920   2.342 -0.2580  0.6031 -0.2171
    3CHTO   O71  926   6.620   0.803   2.291 -0.1058 -0.6215  0.2321
    3CHTO  H171  927   6.656   0.750   2.359 -0.4895 -1.8819 -0.5169
    3CHTO   O62  928   6.177   0.666   2.279  0.2568 -0.5378 -0.1824
    3CHTO   C91  929   6.237   0.558   2.209 -1.2366  0.0434  0.8293
    3CHTO  H178  930   6.323   0.599   2.156 -1.1376  0.6240  1.4299
    3CHTO   C92  931   6.139   0.509   2.096  0.2803  0.2905  0.0551
    3CHTO  H179  932   6.037   0.495   2.135 -0.4935  0.8140 -1.7123
    3CHTO   O66  933   6.118   0.614   1.998 -0.0859  0.7718  0.1188
    3CHTO  H166  934   6.094   0.700   2.028  1.0306  0.9946  0.4139
    3CHTO   C93  935   6.178   0.375   2.023 -0.3216 -0.1062 -0.8058
    3CHTO  H180  936   6.252   0.406   1.948  1.4927  1.2096  1.4560
    3CHTO   N16  937   6.071   0.319   1.944  0.3269  0.3235 -0.5248
    3CHTO  H172  938   5.971   0.348   1.971 -1.4144 -2.0973 -4.0121
    3CHTO  H173  939   6.102   0.343   1.843  1.2991  0.1149 -0.2825
    3CHTO   C94  940   6.246   0.268   2.120 -0.5704 -0.2403  0.1219
    3CHTO  H181  941   6.174   0.217   2.184 -1.2446  0.3939 -0.1187
    3CHTO   O61  942   6.331   0.341   2.202 -0.2345 -0.3208 -0.1935
    3CHTO   C95  943   6.282   0.442   2.289  0.0909  0.9175 -0.7953
    3CHTO  H182  944   6.210   0.393   2.355  0.2760  0.2421 -1.0899
    3CHTO  C106  945   6.411   0.483   2.380 -0.3663  0.5592 -0.4370
    3CHTO   O69  946   6.440   0.372   2.471  0.2180  0.5395 -0.4388
    3CHTO  H169  947   6.521   0.394   2.514 -0.1877  0.8113  0.1959
    3CHTO   O63  948   6.340   0.158   2.036 -0.1267  0.2742 -0.4080
    3CHTO   C96  949   6.323  -0.005   2.077 -0.4089  0.3136  0.0979
    3CHTO  H183  950   6.416  -0.053   2.045 -0.4707  1.1831 -1.3960
    3CHTO   C98  951   6.208  -0.066   1.996  0.6586  0.5908  0.4106
    3CHTO  H185  952   6.116  -0.017   2.030 -0.4934 -1.5235  0.4391
    3CHTO   O67  953   6.214  -0.034   1.856 -0.0999  0.5196  0.6915
    3CHTO  H167  954   6.295  -0.069   1.824  0.0680 -0.7611  2.4458
    3CHTO  C102  955   6.191  -0.233   2.015  0.3446  0.1709  0.1878
    3CHTO  H189  956   6.284  -0.274   1.974 -0.3315  0.1341 -1.3521
    3CHTO   N18  957   6.074  -0.301   1.947 -0.2932  0.0025  0.4674
    3CHTO  H176  958   5.974  -0.278   1.981 -0.2829  0.6245  0.0756
    3CHTO  H177  959   6.076  -0.295   1.839 -0.6622  1.5659  0.5403
    3CHTO  C105  960   6.195  -0.263   2.167 -0.0623  0.7061 -0.3034
    3CHTO  H192  961   6.102  -0.228   2.212 -0.4116 -0.1744 -0.3258
    3CHTO   O65  962   6.302  -0.185   2.226  0.3584 -0.4578  0.2965
    3CHTO  C100  963   6.303  -0.043   2.221  0.1033  0.3200 -0.1363
    3CHTO  H187  964   6.207  -0.002   2.253 -0.7931 -0.2241 -2.0385
    3CHTO  C107  965   6.415   0.001   2.322  0.8968  0.3022 -0.2631
    3CHTO   O70  966   6.374  -0.014   2.458  0.3501 -0.0309  0.4164
    3CHTO  H170  967   6.332   0.068   2.476  1.2426 -0.1573  3.3402
    3CHTO   O57  968   6.213  -0.422   2.201  0.0877 -0.4160 -0.6974
    3CHTO   C85  969   6.137  -0.505   2.293  0.5565  0.4567  0.0816
    3CHTO  H157  970   6.153  -0.610   2.261  0.4168  0.1340  1.0621
    3CHTO   C83  971   5.987  -0.480   2.288  0.6793  0.6323 -0.2983
    3CHTO  H155  972   5.955  -0.488   2.184  1.6624 -1.0524 -0.4859
    3CHTO   O56  973   5.944  -0.354   2.333  0.2092  0.0235  0.3837
    3CHTO  H135  974   5.895  -0.299   2.273 -0.3419 -0.8502  0.0188
    3CHTO   C81  975   5.922  -0.602   2.365 -0.2977  0.0603  0.0215
    3CHTO  H153  976   5.965  -0.695   2.329  0.5947  1.3184 -2.3316
    3CHTO   N14  977   5.778  -0.620   2.335  0.1891 -0.1013  0.4263
    3CHTO  H141  978   5.760  -0.604   2.231 -0.8479 -1.3400  0.4040
    3CHTO  H142  979   5.751  -0.721   2.357  1.4674 -0.3660  0.8391
    3CHTO   C79  980   5.967  -0.586   2.523 -1.1036  0.2635 -0.6514
    3CHTO  H151  981   5.923  -0.669   2.578  0.4647 -0.2893 -0.2012
    3CHTO   O52  982   6.112  -0.579   2.535  0.1367 -0.2117 -0.2624
    3CHTO   C86  983   6.177  -0.488   2.449 -0.3079 -0.1925  0.1887
    3CHTO  H158  984   6.135  -0.389   2.479  1.8759  1.2545 -1.3263
    3CHTO   C90  985   6.332  -0.479   2.461 -0.5078 -0.1322 -0.4354
    3CHTO   O60  986   6.390  -0.602   2.426  0.2711  0.0010 -0.3345
    3CHTO  H138  987   6.480  -0.602   2.452 -0.0445 -0.8907  0.8081
    3CHTO   O50  988   5.911  -0.470   2.585  0.2780  0.2300 -0.2456
    3CHTO   C73  989   5.882  -0.387   2.695 -0.8143  0.0341 -0.2796
    3CHTO  H145  990   5.958  -0.403   2.773  0.9955 -0.9933 -2.1806
    3CHTO   C74  991   5.743  -0.423   2.756  0.3864 -0.1477  0.2208
    3CHTO  H146  992   5.742  -0.523   2.801 -0.5736 -0.3815 -0.2866
    3CHTO   O54  993   5.712  -0.340   2.873  0.2691 -0.5389  0.0126
    3CHTO  H133  994   5.637  -0.378   2.915  1.1147 -1.9228  0.3080
    3CHTO   C75  995   5.646  -0.413   2.637  0.2227 -0.4240 -0.3216
    3CHTO  H147  996   5.676  -0.479   2.554 -0.7226 -0.6858 -0.4658
    3CHTO   N13  997   5.510  -0.453   2.670  0.6988  0.2823  0.3037
    3CHTO  H139  998   5.500  -0.559   2.690  2.8793 -0.5682 -2.7098
    3CHTO  H140  999   5.482  -0.397   2.758  0.0199 -0.6739  0.7128
    3CHTO   C76 1000   5.647  -0.261   2.576 -0.1690 -0.0985 -0.2828
    3CHTO  H148 1001   5.615  -0.198   2.659  0.8246  0.1365 -0.0613
    3CHTO   O49 1002   5.787  -0.223   2.542 -0.3113  0.2064  0.0607
    3CHTO   C77 1003   5.880  -0.237   2.647  0.1136  0.1527  0.1112
    3CHTO  H149 1004   5.844  -0.173   2.728 -1.2338  1.0374 -1.1477
    3CHTO   C88 1005   6.024  -0.193   2.616 -0.0302  0.2308  0.0090
    3CHTO   O58 1006   6.027  -0.032   2.581 -0.1314  0.0446 -0.5529
    3CHTO  H136 1007   5.993   0.008   2.658  1.3363  1.2577 -0.5254
    3CHTO   O51 1008   5.564  -0.264   2.458  0.1475 -0.1125 -0.2077
    3CHTO   C78 1009   5.530  -0.144   2.405 -0.6366  0.1639  0.1117
    3CHTO  H150 1010   5.588  -0.059   2.448  1.1707 -0.8433 -0.3168
    3CHTO   C80 1011   5.378  -0.110   2.437  0.0780  0.4846 -0.6954
    3CHTO  H152 1012   5.315  -0.198   2.414  1.2558 -0.2825 -0.9849
    3CHTO   O55 1013   5.360  -0.082   2.581  0.3413 -0.1090 -0.1604
    3CHTO  H134 1014   5.426  -0.120   2.636  0.9236  1.6009  0.3871
    3CHTO   C84 1015   5.326   0.014   2.360 -0.2712  0.0389 -0.2847
    3CHTO  H156 1016   5.361   0.106   2.406  2.7529 -1.8396  1.4019
    3CHTO   N15 1017   5.174   0.022   2.358 -0.1134  0.2128  0.2965
    3CHTO  H143 1018   5.135  -0.058   2.418 -0.2856 -0.8956 -1.2604
    3CHTO  H144 1019   5.142   0.010   2.257 -0.5416  0.4563  0.4024
    3CHTO   C87 1020   5.378   0.024   2.213  0.7523  1.0290 -0.2356
    3CHTO  H159 1021   5.322  -0.044   2.150 -0.4319  1.8372 -0.0668
    3CHTO   O53 1022   5.525  -0.021   2.201  0.2757  0.8934  0.3048
    3CHTO   C82 1023   5.548  -0.152   2.253  0.6111  0.0441  0.5517
    3CHTO  H154 1024   5.471  -0.218   2.214 -0.0650 -0.1837  2.2211
    3CHTO   C89 1025   5.685  -0.212   2.212 -0.2237  0.1261 -0.3502
    3CHTO   O59 1026   5.686  -0.244   2.069 -0.3115  0.2703 -0.2036
    3CHTO  H137 1027   5.709  -0.165   2.024  0.7679  0.5148  0.7529
    3CHTO   O45 1028   5.343   0.185   2.144 -0.2348  0.3995 -0.4362
    3CHTO   C67 1029   5.453   0.272   2.165  0.2159 -0.1667 -0.3243
    3CHTO  H124 1030   5.520   0.240   2.245  0.5568  1.7275  0.1598
    3CHTO   C65 1031   5.539   0.280   2.035  0.4316 -0.0494 -0.2366
    3CHTO  H122 1032   5.471   0.254   1.954 -1.0163  0.5095  0.7703
    3CHTO   O44 1033   5.642   0.173   2.041  0.4533 -0.1016 -0.2726
    3CHTO  H102 1034   5.672   0.144   1.957 -0.3843 -0.5583 -0.4156
    3CHTO   C63 1035   5.598   0.420   2.007  0.0872 -0.1314 -0.6220
    3CHTO  H120 1036   5.518   0.483   1.968  1.2785  2.0692  0.4358
    3CHTO   N11 1037   5.691   0.438   1.887  0.3664 -0.0542  0.5804
    3CHTO  H108 1038   5.792   0.406   1.904  1.7501  4.5872  1.6286
    3CHTO  H109 1039   5.693   0.538   1.850  0.3140 -0.3039 -0.0917
    3CHTO   C61 1040   5.646   0.489   2.141 -0.6124 -0.3574 -0.2048
    3CHTO  H118 1041   5.692   0.587   2.123  1.0504 -0.7277  1.8233
    3CHTO   O40 1042   5.535   0.508   2.234  0.5140 -0.2492 -0.0232
    3CHTO   C68 1043   5.415   0.421   2.212 -0.2292 -0.2557 -0.0248
    3CHTO  H125 1044   5.345   0.477   2.147  0.0000  0.0502 -0.0142
    3CHTO   C72 1045   5.351   0.415   2.351  0.5166  0.3274  0.3244
    3CHTO   O48 1046   5.317   0.544   2.405 -0.1228  0.1206 -0.5889
    3CHTO  H105 1047   5.294   0.605   2.338 -0.0799  1.1402  0.3049
    3CHTO   O38 1048   5.759   0.411   2.194  0.6298  0.2960 -0.8158
    3CHTO   C55 1049   5.785   0.397   2.335 -0.4098 -0.0380 -0.3698
    3CHTO  H112 1050   5.709   0.359   2.404  1.7687  0.3258  2.3268
    3CHTO   C56 1051   5.845   0.537   2.387  0.2291  0.0594 -0.4613
    3CHTO  H113 1052   5.933   0.554   2.323 -0.4314 -0.0943 -1.4266
    3CHTO   O42 1053   5.762   0.650   2.374 -0.0212 -0.1648 -0.5085
    3CHTO  H100 1054   5.800   0.726   2.413  0.0223 -0.2781 -0.3297
    3CHTO   C57 1055   5.900   0.534   2.541  0.0985  0.6951 -0.5134
    3CHTO  H114 1056   5.818   0.545   2.613 -0.0750 -4.2839  0.2056
    3CHTO   N10 1057   5.978   0.654   2.584 -0.1573 -0.3058  0.0653
    3CHTO  H106 1058   6.029   0.692   2.497  1.3455  0.2669  1.1935
    3CHTO  H107 1059   6.045   0.639   2.667 -0.4974 -1.2736  0.1793
    3CHTO   C58 1060   5.978   0.398   2.569  1.0723  0.3625 -0.3793
    3CHTO  H115 1061   6.083   0.415   2.536  0.6157  2.0800 -0.9954
    3CHTO   O37 1062   5.929   0.282   2.495  0.1925  0.0194 -0.4081
    3CHTO   C59 1063   5.910   0.295   2.350  0.6341 -0.4886 -0.4867
    3CHTO  H116 1064   5.999   0.323   2.292 -0.3640  1.3584 -1.1534
    3CHTO   C70 1065   5.856   0.162   2.305 -0.0622  0.3252  0.1362
    3CHTO   O46 1066   5.943   0.047   2.317 -0.4217  0.5711 -0.3184
    3CHTO  H103 1067   5.899  -0.025   2.357 -1.8185  1.4159 -0.3014
    3CHTO   O39 1068   5.967   0.369   2.723 -0.1196 -0.0883 -0.2641
    3CHTO   C60 1069   6.051   0.262   2.766 -0.1681 -0.5480 -0.6691
    3CHTO  H117 1070   6.023   0.175   2.707 -2.9184 -2.3113  3.0281
    3CHTO   C62 1071   6.205   0.297   2.746 -0.1062  0.1478  0.1659
    3CHTO  H119 1072   6.218   0.315   2.637  1.1521  0.5094  0.3656
    3CHTO   O43 1073   6.235   0.409   2.818  0.1310 -0.0575 -0.1457
    3CHTO  H101 1074   6.230   0.401   2.912 -0.2185  1.2647 -0.0430
    3CHTO   C66 1075   6.286   0.156   2.784  0.8263  0.4669  0.1213
    3CHTO  H123 1076   6.244   0.080   2.717  1.7361  1.9940 -2.2356
    3CHTO   N12 1077   6.429   0.167   2.756 -0.3077 -0.3937  0.5365
    3CHTO  H110 1078   6.498   0.219   2.820  1.4515  2.5019 -3.5776
    3CHTO  H111 1079   6.478   0.072   2.736  1.7152  0.9127 -0.8814
    3CHTO   C69 1080   6.256   0.087   2.920 -0.0645  0.1533 -0.5012
    3CHTO  H126 1081   6.302   0.146   3.003  0.5695 -1.4801  0.3262
    3CHTO   O41 1082   6.111   0.099   2.944  0.1027  0.0537  0.4060
    3CHTO   C64 1083   6.030   0.229   2.917 -0.0860  0.1876 -0.1055
    3CHTO  H121 1084   6.064   0.316   2.976  0.7126  0.5825 -1.1429
    3CHTO   C71 1085   5.880   0.186   2.944 -0.2284  0.0108 -0.3323
    3CHTO   O47 1086   5.799   0.301   2.913  0.0064 -0.0392 -0.5238
    3CHTO  H104 1087   5.809   0.362   2.983  0.7574  0.4886 -1.0771
    3CHTO   O34 1088   6.313  -0.076   2.927 -0.1207  0.3389  0.4801
    3CHTO   C49 1089   6.424  -0.179   2.923  0.3787  0.0111 -0.6765
    3CHTO   H91 1090   6.491  -0.156   2.840  2.2827  1.8119  1.3035
    3CHTO   C47 1091   6.369  -0.319   2.886  0.0402  0.0392  0.0136
    3CHTO   H89 1092   6.330  -0.321   2.782  1.6447 -0.1144 -0.5981
    3CHTO   O33 1093   6.262  -0.342   2.979  0.7850 -0.4582  0.1505
    3CHTO   H70 1094   6.186  -0.300   2.944  0.3766 -1.1852  0.1690
    3CHTO   C45 1095   6.472  -0.442   2.912 -0.2132  0.1557  0.4045
    3CHTO   H87 1096   6.452  -0.481   3.012  0.4456  0.7459  0.7727
    3CHTO    N8 1097   6.445  -0.551   2.813 -0.1755  0.0274  0.0867
    3CHTO   H75 1098   6.494  -0.526   2.720 -2.3780 -1.1401 -1.4170
    3CHTO   H76 1099   6.455  -0.652   2.848 -1.1799 -1.4113 -3.5659
    3CHTO   C43 1100   6.621  -0.380   2.929  0.2998 -0.1211  0.2333
    3CHTO   H85 1101   6.688  -0.465   2.943 -3.3537 -2.8640  2.0344
    3CHTO   O29 1102   6.613  -0.293   3.043 -0.1091  0.4890 -0.2700
    3CHTO   C50 1103   6.509  -0.193   3.043  0.6966 -0.3618 -0.4552
    3CHTO   H92 1104   6.437  -0.206   3.125 -1.1047  0.4107 -1.8817
    3CHTO   C54 1105   6.578  -0.065   3.079 -0.8262 -0.6482 -0.0801
    3CHTO   O36 1106   6.639  -0.071   3.207  0.1481 -0.1371  0.4236
    3CHTO   H72 1107   6.574  -0.087   3.273  0.1488 -0.1715  0.4161
    3CHTO   O27 1108   6.662  -0.306   2.808  0.4034 -0.9017  0.1670
    3CHTO   C37 1109   6.737  -0.292   2.691  0.6811 -0.8486 -0.7381
    3CHTO   H79 1110   6.842  -0.309   2.721  0.0197 -0.9591  1.6408
    3CHTO   C38 1111   6.703  -0.404   2.587 -0.5121 -0.0455  0.9108
    3CHTO   H80 1112   6.594  -0.407   2.572 -0.3800 -0.0372 -0.1054
    3CHTO   O31 1113   6.747  -0.529   2.645 -0.1641 -0.1933 -0.2290
    3CHTO   H68 1114   6.677  -0.556   2.702  1.1135  0.6338  1.7670
    3CHTO   C39 1115   6.778  -0.389   2.443  0.6739 -0.4416 -0.0682
    3CHTO   H81 1116   6.883  -0.406   2.467  0.4686 -1.6854  0.0018
    3CHTO    N7 1117   6.726  -0.490   2.344 -0.1238 -0.4949 -0.3979
    3CHTO   H73 1118   6.803  -0.538   2.286  0.6449 -1.6444  1.5315
    3CHTO   H74 1119   6.677  -0.434   2.266  1.0898 -0.2747 -1.0197
    3CHTO   C40 1120   6.759  -0.240   2.393  0.0968  0.3989 -0.1928
    3CHTO   H82 1121   6.656  -0.214   2.367  0.5919  1.2080 -1.3968
    3CHTO   O26 1122   6.807  -0.157   2.504 -0.0898 -0.3732  0.0244
    3CHTO   C41 1123   6.721  -0.152   2.622  0.0479 -0.8679 -0.8747
    3CHTO   H83 1124   6.617  -0.140   2.588  0.6044  1.5340 -1.8486
    3CHTO   C52 1125   6.749  -0.037   2.703  0.0905  0.2459 -0.3013
    3CHTO   O35 1126   6.729   0.087   2.635 -0.9684 -0.1346  0.3963
    3CHTO   H71 1127   6.747   0.151   2.701  1.0004  0.9231 -1.1086
    3CHTO   O28 1128   6.835  -0.208   2.276  0.4404 -0.3204  0.1926
    3CHTO   C42 1129   6.839  -0.079   2.204 -0.6861  0.1648 -0.1421
    3CHTO   H84 1130   6.925  -0.093   2.138  1.0262  0.3298  1.9958
    3CHTO   C44 1131   6.850   0.055   2.282 -0.0630 -0.3443 -0.0765
    3CHTO   H86 1132   6.761   0.064   2.344 -0.0141  0.9621 -0.1863
    3CHTO   O32 1133   6.973   0.039   2.361  0.3279  0.0418 -0.1319
    3CHTO   H69 1134   7.055   0.068   2.326  0.6273 -1.7025 -0.9197
    3CHTO   C48 1135   6.851   0.182   2.187  0.4848 -0.5656  0.1298
    3CHTO   H90 1136   6.935   0.178   2.118 -0.1152 -2.4127 -0.5176
    3CHTO    N9 1137   6.867   0.312   2.259 -0.2769 -0.6566  0.4841
    3CHTO   H77 1138   6.973   0.330   2.276 -0.4674  0.7202  0.2444
    3CHTO   H78 1139   6.840   0.317   2.364  1.6801 -0.6294  1.0268
    3CHTO   C51 1140   6.723   0.182   2.087  0.1962 -0.0507  0.3305
    3CHTO   H93 1141   6.640   0.203   2.154  0.6716 -2.1178  1.6360
    3CHTO   O30 1142   6.709   0.046   2.027  0.5157  0.4383 -0.8336
    3CHTO   C46 1143   6.713  -0.073   2.109 -0.0656 -0.1414  0.2250
    3CHTO   H88 1144   6.623  -0.068   2.171  0.7798 -1.0534  1.5593
    3CHTO   C53 1145   6.711  -0.198   2.016  0.6348 -0.4296  0.0201
    3CHTO   O72 1146   6.832  -0.197   1.940  0.1480 -0.2164 -0.0553
    3CHTO  H199 1147   6.810  -0.167   1.854 -0.1202 -1.5692 -0.4792
    3CHTO   O22 1148   6.738   0.278   1.978  0.5966  0.3779 -0.4937
    3CHTO   C31 1149   6.625   0.356   1.922 -0.3581  0.6916 -0.0990
    3CHTO   H59 1150   6.535   0.301   1.956  0.6143 -1.6314 -1.1535
    3CHTO   C29 1151   6.613   0.503   1.968 -0.3779 -0.3689 -1.1609
    3CHTO   H57 1152   6.709   0.557   1.961 -0.0519 -0.5622  1.4326
    3CHTO   O21 1153   6.587   0.493   2.109 -0.2576 -0.0804  0.2211
    3CHTO   H37 1154   6.597   0.577   2.150 -1.7300  1.8192 -3.0521
    3CHTO   C27 1155   6.504   0.597   1.902  0.1164 -0.2912 -0.4460
    3CHTO   H55 1156   6.406   0.561   1.937  0.8885 -0.7293  1.2927
    3CHTO    N5 1157   6.517   0.744   1.939  0.2024 -0.0741  0.0383
    3CHTO   H43 1158   6.424   0.800   1.947  0.6305  0.4463  1.5860
    3CHTO   H44 1159   6.561   0.752   2.037 -0.3923  0.3792  0.2734
    3CHTO   C25 1160   6.505   0.560   1.746  0.1398 -0.6137 -0.0495
    3CHTO   H53 1161   6.603   0.599   1.712  0.7957 -0.1299  2.2987
    3CHTO   O17 1162   6.499   0.422   1.712  0.3322  0.8806  0.0810
    3CHTO   C32 1163   6.609   0.355   1.764 -0.6729 -0.4471 -0.0485
    3CHTO   H60 1164   6.696   0.399   1.714 -0.7434  2.0914  1.9734
    3CHTO   C36 1165   6.613   0.216   1.710 -0.3090  0.0318  0.3362
    3CHTO   O25 1166   6.631   0.219   1.566 -0.2027  0.2239  0.0828
    3CHTO   H40 1167   6.725   0.226   1.565 -0.2756  1.3608  0.4459
    3CHTO   O15 1168   6.388   0.624   1.689 -0.9937  0.4465 -0.1681
    3CHTO   C19 1169   6.301   0.673   1.578 -0.3249 -0.5135  0.4121
    3CHTO   H47 1170   6.309   0.601   1.495  0.4495  0.8348 -0.7126
    3CHTO   C20 1171   6.151   0.684   1.630 -0.0069 -0.4337 -0.1508
    3CHTO   H48 1172   6.154   0.730   1.730  0.5236  3.4727 -1.9014
    3CHTO   O19 1173   6.098   0.553   1.648  0.0717  0.3618 -0.2844
    3CHTO   H35 1174   6.163   0.505   1.696  0.4439 -0.2686 -1.4122
    3CHTO   C21 1175   6.056   0.772   1.542  0.4769 -0.3182  0.1672
    3CHTO   H49 1176   6.026   0.710   1.458  1.2194 -1.4153  0.6914
    3CHTO    N4 1177   5.923   0.802   1.600  0.1319 -0.2150  0.4102
    3CHTO   H41 1178   5.846   0.805   1.524 -0.3692  2.1981  0.9473
    3CHTO   H42 1179   5.914   0.898   1.649  1.0689  1.0510 -1.8270
    3CHTO   C22 1180   6.138   0.890   1.480 -0.5565  0.2033  0.2853
    3CHTO   H50 1181   6.147   0.969   1.554 -0.2543 -0.4734  0.9784
    3CHTO   O14 1182   6.265   0.855   1.427 -0.0875  0.6816  0.1313
    3CHTO   C23 1183   6.355   0.807   1.521  0.0246 -1.2347  0.1527
    3CHTO   H51 1184   6.370   0.882   1.600  0.2088 -1.9544  0.8162
    3CHTO   C34 1185   6.495   0.780   1.457  0.2493 -0.7567  0.0531
    3CHTO   O23 1186   6.563   0.898   1.417 -0.0433 -0.4356 -0.7948
    3CHTO   H38 1187   6.620   0.873   1.346  1.2414 -0.0676  0.0890
    3CHTO   O16 1188   6.054   0.948   1.372 -0.1628 -0.1837 -0.7365
    3CHTO   C24 1189   6.103   1.085   1.319  0.1790  0.3481  0.1002
    3CHTO   H52 1190   6.204   1.107   1.351  0.6078  0.3732 -1.2525
    3CHTO   C26 1191   6.010   1.192   1.376  0.5953 -0.5009  0.6742
    3CHTO   H54 1192   5.910   1.183   1.328  0.0211  0.0803  1.7493
    3CHTO   O20 1193   5.990   1.184   1.519  0.1360  0.3693  0.9975
    3CHTO   H36 1194   6.024   1.257   1.565  0.4463 -0.6459  2.4015
    3CHTO   C30 1195   6.051   1.339   1.337 -0.3458 -0.5125  0.1390
    3CHTO   H58 1196   6.153   1.360   1.371 -0.7032  2.8592 -0.7476
    3CHTO    N6 1197   5.967   1.446   1.387 -0.0459  0.0786 -0.6466
    3CHTO   H45 1198   5.943   1.520   1.311 -0.8285 -0.6901 -1.1563
    3CHTO   H46 1199   5.873   1.403   1.418 -0.5747  0.7463 -1.2874
    3CHTO   C33 1200   6.054   1.341   1.182 -0.1547  0.0908 -0.0533
    3CHTO   H61 1201   5.949   1.340   1.152 -0.7167  2.2964  1.6418
    3CHTO   O18 1202   6.123   1.232   1.121  0.0611 -0.1559 -0.1514
    3CHTO   C28 1203   6.094   1.097   1.160 -0.5074  0.2294  0.0099
    3CHTO   H56 1204   6.001   1.055   1.124 -0.2950 -1.5251  1.4328
    3CHTO   C35 1205   6.212   1.004   1.115  0.0117  0.3785 -0.2696
    3CHTO   O24 1206   6.244   1.025   0.978 -0.1508 -0.1084  0.5330
    3CHTO   H39 1207   6.332   0.995   0.968 -0.2138 -0.4572  1.0288
    3CHTO    O9 1208   6.102   1.470   1.127  0.4976 -0.3742  0.4575
    3CHTO   C13 1209   6.249   1.505   1.150  0.2184 -0.0245 -0.2737
    3CHTO   H26 1210   6.307   1.413   1.174 -1.1543 -1.0963 -1.0129
    3CHTO   C11 1211   6.264   1.618   1.266  0.1904  0.1857 -0.3725
    3CHTO   H24 1212   6.226   1.575   1.359  0.2389 -1.1347 -0.9575
    3CHTO    O8 1213   6.190   1.735   1.229  0.1306  0.2399 -0.1716
    3CHTO    H3 1214   6.198   1.800   1.296 -1.2760 -0.4448  0.6883
    3CHTO    C9 1215   6.417   1.649   1.283 -0.5774  0.7576 -0.5241
    3CHTO   H22 1216   6.466   1.551   1.291 -2.7639 -0.2674  0.7093
    3CHTO    N2 1217   6.444   1.719   1.409 -0.3744  0.3639  0.5105
    3CHTO   H10 1218   6.394   1.665   1.488  0.2868 -1.9148 -0.6019
    3CHTO   H11 1219   6.406   1.820   1.411 -0.5685  0.3032  4.2119
    3CHTO    C7 1220   6.467   1.706   1.153 -0.1479 -0.0110  0.4928
    3CHTO   H20 1221   6.577   1.701   1.170 -0.2629 -0.4510  1.1318
    3CHTO    O4 1222   6.441   1.624   1.032 -0.4544 -0.1403 -0.3740
    3CHTO   C14 1223   6.311   1.557   1.013  0.0832 -0.0624  0.2891
    3CHTO   H27 1224   6.335   1.467   0.953 -0.8087  0.9710 -1.6286
    3CHTO   C18 1225   6.209   1.647   0.932 -0.3900 -0.3204 -0.2976
    3CHTO   O13 1226   6.268   1.704   0.808 -0.0943  0.7933 -0.2936
    3CHTO    H7 1227   6.211   1.676   0.739  2.5300  0.5622 -2.4451
    3CHTO    O2 1228   6.403   1.865   1.125 -0.3724 -0.1610  0.4640
    3CHTO    C1 1229   6.456   1.941   1.012  0.1450  0.8235  0.5106
    3CHTO   H14 1230   6.418   1.903   0.915  1.5812 -1.9474  0.9886
    3CHTO    C2 1231   6.618   1.956   1.004  0.5370  0.4374 -0.2434
    3CHTO   H15 1232   6.643   1.968   1.110  0.6580 -2.4021  0.1028
    3CHTO    O6 1233   6.676   1.836   0.951 -0.2515 -0.1116 -0.0952
    3CHTO    H1 1234   6.669   1.776   1.023  0.6132  0.5977  0.5869
    3CHTO    C3 1235   6.676   2.080   0.926 -0.4759  0.3692  1.0745
    3CHTO   H16 1236   6.682   2.058   0.818 -1.7347 -1.5535  1.3656
    3CHTO    N1 1237   6.820   2.118   0.953 -0.4917  0.1713  0.2035
    3CHTO    H8 1238   6.866   2.054   1.026 -0.3015  0.1493  0.0625
    3CHTO    H9 1239   6.831   2.223   0.974 -1.1984  0.0736  1.1149
    3CHTO    C4 1240   6.581   2.207   0.942 -0.0917  0.3782  0.0113
    3CHTO   H17 1241   6.591   2.250   1.041 -1.1399 -1.9923  1.1810
    3CHTO    O1 1242   6.445   2.165   0.921  0.2986  0.1910 -0.1850
    3CHTO    C5 1243   6.393   2.080   1.019 -0.8637  0.2272 -0.2440
    3CHTO   H18 1244   6.416   2.126   1.115  2.8737 -0.9882 -0.5065
    3CHTO   C16 1245   6.241   2.093   0.998  0.1195 -0.3106  0.0233
    3CHTO   O11 1246   6.164   2.023   1.104 -0.2975 -0.3198 -0.3614
    3CHTO    H5 1247   6.072   2.026   1.082  0.1597 -1.5837 -2.6404
    3CHTO    O3 1248   6.610   2.309   0.849  0.0207  0.5415  0.3686
    3CHTO    C6 1249   6.577   2.450   0.910  0.7030  0.7167  0.8875
    3CHTO   H19 1250   6.516   2.433   0.998 -0.3424 -0.1802 -0.0105
    3CHTO    C8 1251   6.708   2.530   0.927 -0.1629  0.3274 -0.1376
    3CHTO   H21 1252   6.764   2.514   0.835  1.0622 -0.6321  0.7566
    3CHTO    O7 1253   6.779   2.481   1.044 -0.6754 -0.0135  0.2433
    3CHTO    H2 1254   6.835   2.410   1.021 -0.6579  0.4751 -1.3019
    3CHTO   C12 1255   6.694   2.683   0.948  0.0790  0.4244  0.4538
    3CHTO   H25 1256   6.671   2.690   1.057 -0.7666 -1.3361  0.4143
    3CHTO    N3 1257   6.826   2.753   0.922 -0.0129 -0.0405  0.4342
    3CHTO   H12 1258   6.863   2.719   0.827  0.1366 -0.3555  0.6012
    3CHTO   H13 1259   6.906   2.734   0.993 -0.6604 -2.1236  0.6621
    3CHTO   C15 1260   6.571   2.739   0.857 -0.4082  0.1388  0.1527
    3CHTO   H28 1261   6.611   2.757   0.758 -1.5428  1.2298 -0.1214
    3CHTO   O10 1262   6.518   2.871   0.904 -0.3104  0.0917  0.5857
    3CHTO    H4 1263   6.450   2.872   0.968  0.1819 -0.6021  1.1322
    3CHTO    O5 1264   6.452   2.654   0.845 -0.6624 -0.6131 -0.4181
    3CHTO   C10 1265   6.479   2.516   0.813 -0.7234  0.5096 -0.2486
    3CHTO   H23 1266   6.531   2.516   0.718  1.3211 -0.9418  0.8424
    3CHTO   C17 1267   6.346   2.436   0.801  0.2227  0.1928 -0.2301
    3CHTO   O12 1268   6.272   2.475   0.684 -1.3382 -0.3671  0.0339
    3CHTO    H6 1269   6.326   2.474   0.608 -1.4644 -1.8829 -0.0519
    4CHTO  H203 1270   5.564   6.707   2.865 -1.7870 -0.2419  1.4812
    4CHTO   O82 1271   5.612   6.739   2.939  0.0847  0.6520 -0.0748
    4CHTO  C123 1272   5.615   6.880   2.944 -0.4054  0.3622 -0.2319
    4CHTO  H227 1273   5.526   6.913   3.001  0.1356  0.9914  0.2508
    4CHTO   O77 1274   5.734   6.916   3.017 -0.4017 -0.1333 -0.3053
    4CHTO  C118 1275   5.738   7.055   3.054 -0.2439  0.4118 -0.4992
    4CHTO  H222 1276   5.640   7.074   3.100  0.4564 -1.4454  1.9068
    4CHTO  C125 1277   5.856   7.067   3.160  0.1160 -0.0620  0.2484
    4CHTO   O84 1278   5.884   7.189   3.221 -0.4199 -0.7937 -0.0361
    4CHTO  H205 1279   5.870   7.199   3.313 -1.7453 -2.4507 -0.0303
    4CHTO  C114 1280   5.753   7.134   2.923  0.0407  0.3749 -0.5569
    4CHTO  H218 1281   5.850   7.110   2.879  0.2292 -0.4492  0.2857
    4CHTO  C116 1282   5.634   7.106   2.821  0.6772 -0.2071  0.6041
    4CHTO  H220 1283   5.546   7.167   2.852  0.5189  1.1413 -2.3517
    4CHTO   O79 1284   5.663   7.158   2.693  0.0777 -0.6781  0.6934
    4CHTO  H201 1285   5.733   7.110   2.653  1.2759  0.8740  0.8764
    4CHTO  C120 1286   5.612   6.947   2.808  0.1788  0.1701 -0.0004
    4CHTO  H224 1287   5.698   6.906   2.752 -0.2416  0.1099 -0.6167
    4CHTO   N21 1288   5.483   6.922   2.731 -0.2399  0.7475 -0.1848
    4CHTO  H211 1289   5.405   6.907   2.803 -0.3947 -1.3421 -0.7707
    4CHTO  H212 1290   5.503   6.835   2.671 -0.8642 -0.4370  1.3059
    4CHTO   O75 1291   5.758   7.271   2.970  0.4404 -0.4705 -0.1865
    4CHTO  C112 1292   5.822   7.370   2.874 -0.5529 -0.1035  0.6600
    4CHTO  H216 1293   5.807   7.349   2.767  0.2467  2.6213 -0.0537
    4CHTO   O73 1294   5.963   7.373   2.913 -0.3106  0.8877 -0.4859
    4CHTO  C113 1295   6.041   7.453   2.826  0.0218 -0.1566 -0.4451
    4CHTO  H217 1296   6.017   7.419   2.723  3.7384 -0.5473 -1.2725
    4CHTO  C124 1297   6.194   7.425   2.854  0.3274  0.6611  0.4435
    4CHTO   O83 1298   6.232   7.463   2.993 -0.1340 -0.0569 -0.2504
    4CHTO  H204 1299   6.298   7.529   2.982 -2.0845  2.2847  1.4759
    4CHTO  C109 1300   6.001   7.599   2.823  0.5888 -0.0401 -0.2691
    4CHTO  H213 1301   6.020   7.639   2.924  1.0109 -0.0890 -0.3294
    4CHTO  C110 1302   5.851   7.611   2.789  0.2004 -0.4863 -0.7605
    4CHTO  H214 1303   5.838   7.588   2.683 -0.4432  1.3360 -1.0989
    4CHTO   O78 1304   5.804   7.750   2.797  0.4942  0.1161  0.9180
    4CHTO  H200 1305   5.857   7.801   2.854  0.9289 -0.2372  0.8339
    4CHTO  C111 1306   5.766   7.518   2.882 -0.0434  0.4719  0.7378
    4CHTO  H215 1307   5.776   7.561   2.983 -0.5020 -0.0343  1.0000
    4CHTO   N19 1308   5.618   7.520   2.853  0.3441 -0.4203  0.1793
    4CHTO  H207 1309   5.581   7.592   2.782 -0.5558 -0.5621  0.5061
    4CHTO  H208 1310   5.558   7.511   2.942 -1.0063 -3.0468 -0.9450
    4CHTO   O74 1311   6.088   7.664   2.726 -0.1524  0.4261  0.1573
    4CHTO  C115 1312   6.123   7.806   2.751  0.4386  0.2114 -0.9426
    4CHTO  H219 1313   6.035   7.869   2.765  0.3490 -0.2924  0.8734
    4CHTO   O76 1314   6.206   7.828   2.884 -0.1857 -1.0158  0.4792
    4CHTO  C122 1315   6.339   7.777   2.884 -0.2587 -0.1900  0.8868
    4CHTO  H226 1316   6.332   7.672   2.854 -0.7636  0.7687 -2.5983
    4CHTO  C126 1317   6.409   7.777   3.023 -0.4421  0.1756  0.4020
    4CHTO   O85 1318   6.435   7.913   3.057  0.6149 -0.2838  0.0261
    4CHTO  H206 1319   6.353   7.947   3.087 -0.2168 -2.3544  0.1570
    4CHTO  C121 1320   6.422   7.844   2.765  0.1855 -0.3853 -0.3259
    4CHTO  H225 1321   6.499   7.913   2.806 -0.5759  0.0272  0.4106
    4CHTO   O81 1322   6.485   7.741   2.682 -0.0272 -0.1319 -0.9941
    4CHTO  H202 1323   6.558   7.780   2.638  1.1406 -0.1660  0.8351
    4CHTO  C119 1324   6.339   7.929   2.666 -0.1193 -0.0452  0.7764
    4CHTO  H223 1325   6.331   8.021   2.723  0.8840  1.5089 -1.5431
    4CHTO  C117 1326   6.203   7.865   2.627  0.2597  0.1674 -0.2370
    4CHTO  H221 1327   6.220   7.785   2.555 -0.8233 -1.5051  1.3303
    4CHTO   N20 1328   6.122   7.970   2.548  0.3269  0.0181 -0.0980
    4CHTO  H209 1329   6.016   7.957   2.561  0.3543  1.3377  1.6671
    4CHTO  H210 1330   6.149   8.067   2.588  1.0611 -0.0754 -0.3626
    4CHTO   O80 1331   6.423   7.965   2.546 -0.1393  0.4349  0.0340
    4CHTO  C103 1332   6.502   8.101   2.539 -0.3300  0.0992  0.2375
    4CHTO  H190 1333   6.449   8.194   2.559  2.0442  1.4739  0.2981
    4CHTO  C101 1334   6.648   8.092   2.620 -0.4501 -0.4675 -0.7265
    4CHTO  H188 1335   6.692   7.993   2.611  2.3521  0.3939  2.4594
    4CHTO   O68 1336   6.628   8.125   2.770 -0.0824  0.2935  0.8055
    4CHTO  H168 1337   6.570   8.067   2.816  0.1469 -1.0751 -0.5808
    4CHTO   C99 1338   6.752   8.208   2.561 -0.0851 -0.4413  0.3087
    4CHTO  H186 1339   6.705   8.303   2.593 -0.1688 -1.5366  3.6379
    4CHTO   N17 1340   6.890   8.193   2.635  0.0099 -0.2944 -0.2711
    4CHTO  H174 1341   6.928   8.294   2.637  1.7783 -0.9348 -0.9538
    4CHTO  H175 1342   6.867   8.153   2.732  0.7655 -1.8202 -0.7078
    4CHTO   C97 1343   6.763   8.204   2.411  0.2790 -0.3099  0.1572
    4CHTO  H184 1344   6.809   8.112   2.373  0.9189 -0.5242  1.4348
    4CHTO   O64 1345   6.628   8.224   2.357 -0.5277 -0.2790 -0.3762
    4CHTO  C104 1346   6.543   8.111   2.383  0.3007  0.3169  0.0971
    4CHTO  H191 1347   6.589   8.018   2.350 -0.4151 -0.1068  0.2792
    4CHTO  C108 1348   6.417   8.121   2.298  0.4410 -0.5006  0.1150
    4CHTO   O71 1349   6.344   8.246   2.313 -0.3224  0.7260 -0.1894
    4CHTO  H171 1350   6.312   8.253   2.401 -0.6039  1.4118 -0.3450
    4CHTO   O62 1351   6.849   8.311   2.354  0.1776 -0.2332  0.8892
    4CHTO   C91 1352   6.900   8.287   2.217  0.2696 -0.0345  0.1197
    4CHTO  H178 1353   6.855   8.195   2.178 -0.9491 -0.2017  1.8765
    4CHTO   C92 1354   7.050   8.266   2.213  0.3918  0.4137  0.1412
    4CHTO  H179 1355   7.098   8.362   2.234  0.1795 -0.0670  3.1435
    4CHTO   O66 1356   7.092   8.173   2.316  0.4508  0.2106  0.3419
    4CHTO  H166 1357   7.137   8.225   2.381 -0.9250  3.2742 -1.0787
    4CHTO   C93 1358   7.098   8.209   2.074  0.0059  0.0330  0.4195
    4CHTO  H180 1359   7.037   8.118   2.057  0.0327  0.0376  0.2979
    4CHTO   N16 1360   7.237   8.170   2.061  0.3895  0.1793  0.8855
    4CHTO  H172 1361   7.302   8.249   2.097 -0.6419  0.7405  1.5527
    4CHTO  H173 1362   7.265   8.088   2.126  0.0589  1.5388  2.7745
    4CHTO   C94 1363   7.050   8.314   1.965 -0.3162  0.1039 -0.5046
    4CHTO  H181 1364   7.100   8.410   1.975 -0.5519  0.3478 -1.6542
    4CHTO   O61 1365   6.909   8.331   1.988  0.2086 -0.8222  0.1607
    4CHTO   C95 1366   6.854   8.390   2.105  0.2921 -0.5061 -0.0664
    4CHTO  H182 1367   6.897   8.488   2.122 -2.4463  0.5768  0.8914
    4CHTO  C106 1368   6.694   8.400   2.098  0.3898  0.1097 -0.6355
    4CHTO   O69 1369   6.642   8.485   2.196  0.8077 -0.1262  0.5744
    4CHTO  H169 1370   6.653   8.449   2.282  0.7315 -2.0545 -0.1922
    4CHTO   O63 1371   7.057   8.260   1.818 -0.2303  0.8116  0.1470
    4CHTO   C96 1372   7.039   8.373   1.690  0.9936 -0.7310  0.6478
    4CHTO  H183 1373   7.080   8.330   1.599 -0.4145  0.7753 -0.7259
    4CHTO   C98 1374   7.129   8.500   1.713  0.0810 -0.6308 -0.1601
    4CHTO  H185 1375   7.113   8.538   1.815 -0.3879 -0.3204 -0.3509
    4CHTO   O67 1376   7.264   8.468   1.716  0.2821  0.2836 -0.1265
    4CHTO  H167 1377   7.288   8.398   1.774 -1.4771 -1.6683 -1.6797
    4CHTO  C102 1378   7.104   8.604   1.588  0.1094  0.6088  0.2570
    4CHTO  H189 1379   7.191   8.590   1.522  1.2613  0.2133  1.8294
    4CHTO   N18 1380   7.104   8.750   1.613 -0.0856  0.1457 -1.0505
    4CHTO  H176 1381   7.012   8.765   1.668  0.8078  1.4028  0.1402
    4CHTO  H177 1382   7.102   8.810   1.523 -1.6675  1.4557 -0.1858
    4CHTO  C105 1383   6.980   8.565   1.500 -0.1412  0.6064 -0.2315
    4CHTO  H192 1384   6.949   8.647   1.436 -0.4513  1.8950  1.5434
    4CHTO   O65 1385   6.862   8.526   1.583  0.0937 -0.3580  0.5816
    4CHTO  C100 1386   6.885   8.412   1.672 -0.7774 -0.0053  0.4114
    4CHTO  H187 1387   6.848   8.442   1.771  0.0010 -2.3497  1.4636
    4CHTO  C107 1388   6.811   8.293   1.619 -0.1745 -0.1417  0.6154
    4CHTO   O70 1389   6.670   8.328   1.615  0.0938 -0.2306 -0.0431
    4CHTO  H170 1390   6.654   8.406   1.566 -2.9918 -0.8278 -0.0841
    4CHTO   O57 1391   7.039   8.440   1.399  0.7076  0.6161  0.2109
    4CHTO   C85 1392   7.008   8.436   1.258  0.2443 -0.4091 -0.6227
    4CHTO  H157 1393   6.960   8.530   1.224 -0.2843 -0.6434 -0.5381
    4CHTO   C83 1394   6.904   8.330   1.233 -0.7175 -0.5923  0.1237
    4CHTO  H155 1395   6.808   8.356   1.279 -1.2768  0.0215 -1.3655
    4CHTO   O56 1396   6.946   8.205   1.293  0.0604  0.1124 -0.2626
    4CHTO  H135 1397   6.965   8.136   1.233 -0.0134  0.5241 -0.7650
    4CHTO   C81 1398   6.874   8.320   1.082 -0.4893 -0.5911  0.2082
    4CHTO  H153 1399   6.842   8.416   1.041  2.7436  0.4072 -0.1307
    4CHTO   N14 1400   6.758   8.237   1.048  0.7406  0.0833 -0.6142
    4CHTO  H141 1401   6.782   8.137   1.076  0.0290 -0.2390 -1.1482
    4CHTO  H142 1402   6.730   8.243   0.945  0.2814 -1.2033 -0.5705
    4CHTO   C79 1403   7.009   8.276   1.002  0.4975  0.3428 -0.9252
    4CHTO  H151 1404   6.985   8.275   0.896 -1.0478 -0.3756 -0.5781
    4CHTO   O52 1405   7.099   8.382   1.031  0.2980 -0.8755  0.4611
    4CHTO   C86 1406   7.134   8.402   1.169 -0.1608 -0.1144 -0.0064
    4CHTO  H158 1407   7.183   8.306   1.195 -0.7756 -0.1450  1.0804
    4CHTO   C90 1408   7.247   8.511   1.181  0.4101  0.1427 -0.0305
    4CHTO   O60 1409   7.209   8.632   1.115  0.6000  0.3473 -0.7426
    4CHTO  H138 1410   7.149   8.616   1.045 -0.1410  0.8657 -0.2388
    4CHTO   O50 1411   7.052   8.144   1.051  0.2631 -0.4516 -0.1245
    4CHTO   C73 1412   7.132   8.050   0.984  0.4316  0.6323 -0.0330
    4CHTO  H145 1413   7.200   8.105   0.916 -2.2232  3.2638 -0.6655
    4CHTO   C74 1414   7.035   7.963   0.888  0.7830  0.1946 -0.1701
    4CHTO  H146 1415   6.972   8.036   0.835 -0.6190  0.2290  1.4971
    4CHTO   O54 1416   7.127   7.911   0.788  0.0154 -0.3404 -0.0436
    4CHTO  H133 1417   7.114   7.819   0.774  0.1416  0.0093 -2.7857
    4CHTO   C75 1418   6.948   7.867   0.978 -0.4870  0.1569 -0.1432
    4CHTO  H147 1419   6.872   7.923   1.033 -0.9323 -1.2459  0.6707
    4CHTO   N13 1420   6.868   7.766   0.908  0.5157  0.2175 -0.2723
    4CHTO  H139 1421   6.840   7.692   0.981 -0.2215  0.6691 -0.1012
    4CHTO  H140 1422   6.784   7.800   0.850  0.7263  0.0220 -0.6951
    4CHTO   C76 1423   7.039   7.786   1.079 -0.1660  0.4220  0.1052
    4CHTO  H148 1424   7.104   7.718   1.024  0.2740  1.0633 -0.1709
    4CHTO   O49 1425   7.137   7.871   1.160 -0.1992 -0.1003 -0.3882
    4CHTO   C77 1426   7.218   7.965   1.084 -0.4431 -0.4648  0.5624
    4CHTO  H149 1427   7.292   7.908   1.027  0.9150  2.3471 -0.6096
    4CHTO   C88 1428   7.304   8.056   1.175 -0.0556 -0.4388 -0.4461
    4CHTO   O58 1429   7.221   8.101   1.295  0.3392 -0.2738  0.3391
    4CHTO  H136 1430   7.200   8.192   1.285  2.1430  0.0307 -0.8616
    4CHTO   O51 1431   6.928   7.688   1.184 -0.2011 -0.1453 -0.3999
    4CHTO   C78 1432   6.993   7.540   1.263 -0.0793 -0.3332 -0.0803
    4CHTO  H150 1433   6.941   7.523   1.359 -0.3789  0.3744 -0.1082
    4CHTO   C80 1434   7.146   7.560   1.297 -0.0777  0.4546 -0.1158
    4CHTO  H152 1435   7.198   7.578   1.201  1.4093  0.3533  0.6648
    4CHTO   O55 1436   7.149   7.676   1.384  0.1746  0.2709  0.7962
    4CHTO  H134 1437   7.111   7.752   1.346 -2.9889 -0.6488  1.9378
    4CHTO   C84 1438   7.196   7.434   1.384  0.1378 -0.2102  0.2560
    4CHTO  H156 1439   7.131   7.435   1.471 -0.4872  2.3967 -0.2311
    4CHTO   N15 1440   7.342   7.454   1.423  0.4434  0.1044  0.0039
    4CHTO  H143 1441   7.394   7.389   1.356 -0.3410  1.3602 -1.8595
    4CHTO  H144 1442   7.359   7.428   1.525  0.6555  0.0504 -0.0457
    4CHTO   C87 1443   7.174   7.308   1.291  0.0304  0.2983 -1.2226
    4CHTO  H159 1444   7.239   7.319   1.205 -0.1843  0.6923 -1.3363
    4CHTO   O53 1445   7.023   7.298   1.252 -0.4789 -0.0014 -0.3768
    4CHTO   C82 1446   6.976   7.412   1.180 -0.0500 -0.6434  0.1355
    4CHTO  H154 1447   7.034   7.420   1.089  0.7715  3.6891  0.9500
    4CHTO   C89 1448   6.827   7.406   1.140 -0.5507 -0.1164  0.1590
    4CHTO   O59 1449   6.740   7.383   1.252 -0.4889 -0.5058  0.4650
    4CHTO  H137 1450   6.652   7.382   1.220 -0.9728 -0.5312  1.7697
    4CHTO   O45 1451   7.205   7.177   1.385 -0.5394  0.4303 -0.2197
    4CHTO   C67 1452   7.184   7.048   1.323 -0.0472  0.2873  0.0092
    4CHTO  H124 1453   7.177   7.056   1.215  1.4340 -0.2792 -0.1342
    4CHTO   C65 1454   7.303   6.952   1.359  0.4281  0.1471  0.0829
    4CHTO  H122 1455   7.395   7.008   1.340 -0.3004  1.5219  0.5487
    4CHTO   O44 1456   7.304   6.832   1.285  0.3653 -0.1437 -0.1462
    4CHTO  H102 1457   7.381   6.781   1.297 -0.0112 -0.1797  2.2848
    4CHTO   C63 1458   7.298   6.928   1.518  0.1960 -0.3424 -0.7063
    4CHTO  H120 1459   7.303   7.025   1.567 -1.7933 -0.0361 -1.1014
    4CHTO   N11 1460   7.419   6.855   1.576  0.9819  0.5702 -0.5502
    4CHTO  H108 1461   7.421   6.862   1.683 -1.2230  0.5050 -0.4917
    4CHTO  H109 1462   7.507   6.887   1.524  1.1622 -0.3948 -0.8537
    4CHTO   C61 1463   7.157   6.867   1.556 -0.3087 -0.2023 -0.1632
    4CHTO  H118 1464   7.164   6.886   1.664  2.2329 -0.6820 -0.2333
    4CHTO   O40 1465   7.055   6.950   1.506 -0.4722  0.2223 -0.2291
    4CHTO   C68 1466   7.045   6.987   1.365 -0.5512  0.2801 -0.4034
    4CHTO  H125 1467   6.967   7.066   1.360  2.0964  2.9907  0.0474
    4CHTO   C72 1468   7.004   6.873   1.270 -0.2004  0.2710 -0.0914
    4CHTO   O48 1469   6.867   6.846   1.289 -0.4210  0.0811  0.1139
    4CHTO  H105 1470   6.857   6.797   1.369  2.1565 -2.2222 -0.9022
    4CHTO   O38 1471   7.126   6.726   1.533  0.2439 -0.4121 -0.2934
    4CHTO   C55 1472   7.058   6.664   1.644  0.2560  0.0039 -0.3328
    4CHTO  H112 1473   6.993   6.744   1.682  0.7240  1.3993 -2.3823
    4CHTO   C56 1474   7.159   6.610   1.755  0.2370 -0.0070  0.5179
    4CHTO  H113 1475   7.230   6.542   1.707 -1.1022 -1.0719  0.0117
    4CHTO   O42 1476   7.236   6.719   1.812 -0.2752 -0.1391 -0.3990
    4CHTO  H100 1477   7.325   6.693   1.800 -0.7582 -2.6251  1.2160
    4CHTO   C57 1478   7.090   6.523   1.867  0.4332  0.0126 -0.5167
    4CHTO  H114 1479   7.039   6.596   1.931  0.4937 -0.0345 -0.4141
    4CHTO   N10 1480   7.185   6.470   1.969  0.4126 -0.1936  0.3336
    4CHTO  H106 1481   7.229   6.377   1.938  3.2926  1.9688 -2.3534
    4CHTO  H107 1482   7.260   6.533   2.015 -1.0078  0.5523  1.6648
    4CHTO   C58 1483   6.997   6.421   1.809 -0.6566 -0.0005 -0.4012
    4CHTO  H115 1484   7.050   6.329   1.776 -0.8309 -0.1768 -0.1969
    4CHTO   O37 1485   6.903   6.478   1.712 -0.2101 -0.2655  0.3740
    4CHTO   C59 1486   6.969   6.538   1.599 -0.1143 -0.0584  0.4212
    4CHTO  H116 1487   7.026   6.458   1.552  0.3079  0.3144  0.2946
    4CHTO   C70 1488   6.866   6.589   1.492  0.0851  0.0089  0.0315
    4CHTO   O46 1489   6.767   6.665   1.555  0.2831 -0.0851 -0.5230
    4CHTO  H103 1490   6.717   6.704   1.485 -1.6701 -2.7428 -0.6963
    4CHTO   O39 1491   6.893   6.384   1.940 -0.6277  0.5480 -0.3542
    4CHTO   C60 1492   6.771   6.315   1.914  0.4222 -0.2685  0.3315
    4CHTO  H117 1493   6.739   6.347   1.814  0.1928  0.5793  0.6725
    4CHTO   C62 1494   6.784   6.164   1.910 -0.1328 -0.0726 -0.2679
    4CHTO  H119 1495   6.852   6.144   1.824  0.1499 -0.7922  0.1228
    4CHTO   O43 1496   6.856   6.135   2.030 -0.2606  0.3591 -0.3945
    4CHTO  H101 1497   6.945   6.106   2.023 -0.1718  0.9402 -1.8192
    4CHTO   C66 1498   6.633   6.096   1.901  0.1741  0.4375  0.0622
    4CHTO  H123 1499   6.582   6.123   1.810 -0.4621  2.4154  0.9911
    4CHTO   N12 1500   6.643   5.946   1.899  0.0809  0.1815 -0.3979
    4CHTO  H110 1501   6.705   5.901   1.823 -0.0598 -0.2877 -0.2333
    4CHTO  H111 1502   6.545   5.902   1.887  0.7291 -0.8680 -1.8949
    4CHTO   C69 1503   6.545   6.147   2.016  0.2573 -0.4720 -0.1384
    4CHTO  H126 1504   6.603   6.127   2.109 -0.5218  0.9248  0.6598
    4CHTO   O41 1505   6.530   6.300   2.002  0.0919  0.2502  0.1112
    4CHTO   C64 1506   6.661   6.371   2.010  0.2720 -0.2527 -0.5577
    4CHTO  H121 1507   6.698   6.368   2.115 -0.9953 -1.5281 -0.1276
    4CHTO   C71 1508   6.640   6.521   1.986 -0.1995 -0.6145  0.2202
    4CHTO   O47 1509   6.574   6.578   2.102  0.0258 -0.6593 -0.2760
    4CHTO  H104 1510   6.482   6.564   2.088 -0.0369  0.3654 -0.9051
    4CHTO   O34 1511   6.400   6.075   2.023 -0.7397 -0.0570 -0.4841
    4CHTO   C49 1512   6.253   6.126   1.972 -0.4571  0.0304  0.3816
    4CHTO   H91 1513   6.232   6.204   2.045 -1.2113  0.4605 -0.2928
    4CHTO   C47 1514   6.162   6.002   1.972 -1.0536 -0.3903  0.0204
    4CHTO   H89 1515   6.063   6.046   1.949  0.8236  4.1301  0.2017
    4CHTO   O33 1516   6.161   5.927   2.095  0.3234 -0.1653  0.2182
    4CHTO   H70 1517   6.075   5.895   2.116  0.4544  0.2607  1.5044
    4CHTO   C45 1518   6.213   5.908   1.848 -0.0802  0.2380 -0.3902
    4CHTO   H87 1519   6.308   5.865   1.882 -2.3324 -1.7531  3.8850
    4CHTO    N8 1520   6.124   5.796   1.810  0.1270 -0.8737  0.2220
    4CHTO   H75 1521   6.152   5.705   1.861 -0.5493  0.1188  2.4479
    4CHTO   H76 1522   6.024   5.822   1.841  0.3750  3.3572 -2.0618
    4CHTO   C43 1523   6.263   6.001   1.716  0.3495  0.3230  0.6957
    4CHTO   H85 1524   6.372   6.004   1.714  0.4071 -1.7425 -1.2987
    4CHTO   O29 1525   6.204   6.128   1.721  0.4377 -0.5231  0.2097
    4CHTO   C50 1526   6.264   6.202   1.833  0.3225  0.0097 -0.2982
    4CHTO   H92 1527   6.367   6.225   1.805  1.4740 -2.5005  1.6232
    4CHTO   C54 1528   6.192   6.345   1.828 -0.3086 -0.1643  0.4237
    4CHTO   O36 1529   6.241   6.439   1.926  0.2116  0.5015  0.2815
    4CHTO   H72 1530   6.219   6.528   1.905  2.6903  1.1060  0.0764
    4CHTO   O27 1531   6.238   5.939   1.588 -0.5443  0.0722 -0.0444
    4CHTO   C37 1532   6.342   5.940   1.479  0.6236 -0.0577 -0.0263
    4CHTO   H79 1533   6.300   5.893   1.389  0.0325 -2.6166  1.5271
    4CHTO   C38 1534   6.386   6.087   1.426  0.6751  0.4158 -0.1256
    4CHTO   H80 1535   6.371   6.153   1.513 -1.2938  1.3198 -1.1134
    4CHTO   O31 1536   6.287   6.123   1.319 -0.8906  0.1110 -0.2216
    4CHTO   H68 1537   6.283   6.057   1.252 -0.6055 -3.8945  3.5241
    4CHTO   C39 1538   6.529   6.085   1.361  0.0023 -0.3274  0.7328
    4CHTO   H81 1539   6.517   6.033   1.266  1.8536 -2.5624  1.6858
    4CHTO    N7 1540   6.582   6.217   1.319 -0.0911  0.0054 -0.5425
    4CHTO   H73 1541   6.502   6.277   1.280  0.3008  0.5685 -0.4783
    4CHTO   H74 1542   6.663   6.209   1.247 -0.5160  1.6551 -1.2085
    4CHTO   C40 1543   6.632   6.001   1.445  0.3676  0.1348 -0.5106
    4CHTO   H82 1544   6.644   6.035   1.547 -0.0261 -0.9489 -0.1043
    4CHTO   O26 1545   6.574   5.865   1.444 -0.4787 -0.3361  0.7483
    4CHTO   C41 1546   6.456   5.846   1.527  0.0299  0.5140  0.1743
    4CHTO   H83 1547   6.487   5.860   1.631  0.9460 -0.0511 -0.0165
    4CHTO   C52 1548   6.421   5.693   1.505  0.9208 -0.5720  0.1803
    4CHTO   O35 1549   6.490   5.601   1.594 -0.0854  0.0716 -0.1690
    4CHTO   H71 1550   6.444   5.521   1.579  0.7724 -1.0518  2.7720
    4CHTO   O28 1551   6.760   5.983   1.376  0.0752  0.5049 -0.3533
    4CHTO   C42 1552   6.865   5.916   1.451 -0.0780 -0.1700 -0.1637
    4CHTO   H84 1553   6.951   5.911   1.383  0.9360  0.9190  1.0027
    4CHTO   C44 1554   6.846   5.765   1.499  0.7050  0.0465  0.1936
    4CHTO   H86 1555   6.753   5.762   1.555  0.0608  0.4634 -0.8481
    4CHTO   O32 1556   6.841   5.684   1.378  0.2461  0.3448 -0.4614
    4CHTO   H69 1557   6.810   5.599   1.403  0.3353 -0.1001 -1.8140
    4CHTO   C48 1558   6.962   5.703   1.591 -0.6577 -0.7983  0.0682
    4CHTO   H90 1559   7.050   5.674   1.535  0.6572 -0.3477  1.8549
    4CHTO    N9 1560   6.914   5.569   1.648 -0.1203  0.1025  0.3662
    4CHTO   H77 1561   6.996   5.505   1.676 -0.7989  0.2750  2.9031
    4CHTO   H78 1562   6.846   5.588   1.731 -2.1448 -1.2962 -0.9198
    4CHTO   C51 1563   6.989   5.811   1.703 -0.1049 -0.8192 -0.5681
    4CHTO   H93 1564   6.894   5.822   1.755  0.0540  0.1469 -0.4609
    4CHTO   O30 1565   7.029   5.938   1.642  0.0014  0.9074 -0.1289
    4CHTO   C46 1566   6.913   6.004   1.571 -0.7928 -0.4838 -0.2169
    4CHTO   H88 1567   6.827   6.021   1.635 -2.4231 -0.3778 -2.3712
    4CHTO   C53 1568   6.963   6.145   1.536 -0.2983  0.4124  0.8673
    4CHTO   O72 1569   7.055   6.147   1.433  0.8231 -0.6369  0.3041
    4CHTO  H199 1570   7.120   6.082   1.452  1.0680 -0.5040 -0.0621
    4CHTO   O22 1571   7.094   5.777   1.791  0.1871 -0.0375 -0.0583
    4CHTO   C31 1572   7.090   5.831   1.931 -0.0174  0.3203 -0.0776
    4CHTO   H59 1573   7.031   5.925   1.923 -0.1556  0.2271 -0.1548
    4CHTO   C29 1574   7.027   5.731   2.024  0.3142 -0.2237 -0.2440
    4CHTO   H57 1575   7.086   5.640   2.043  0.8145  0.5800  2.2430
    4CHTO   O21 1576   6.904   5.679   1.965  1.0645  1.3845  0.0712
    4CHTO   H37 1577   6.912   5.586   1.951 -0.6594  1.3461 -0.8901
    4CHTO   C27 1578   7.007   5.794   2.166  0.2905 -0.2606  0.1266
    4CHTO   H55 1579   6.936   5.877   2.151 -2.0801 -2.1863  0.4112
    4CHTO    N5 1580   6.947   5.707   2.267 -0.3696  0.4759 -0.0064
    4CHTO   H43 1581   6.964   5.766   2.356 -0.6057  0.5977 -0.0403
    4CHTO   H44 1582   6.841   5.706   2.246 -0.0694 -0.6582 -1.5600
    4CHTO   C25 1583   7.129   5.879   2.216 -0.3275 -0.0042 -0.4066
    4CHTO   H53 1584   7.204   5.810   2.256 -1.0752 -0.0708  0.9240
    4CHTO   O17 1585   7.205   5.942   2.113 -0.1792  0.3818  0.2577
    4CHTO   C32 1586   7.227   5.872   1.992  0.5109 -0.0621  0.3618
    4CHTO   H60 1587   7.287   5.784   2.012  1.0729  0.1886 -0.2058
    4CHTO   C36 1588   7.307   5.962   1.897 -0.5646 -0.0378  0.0313
    4CHTO   O25 1589   7.413   6.023   1.967  0.6378  0.1702  0.1069
    4CHTO   H40 1590   7.486   5.966   1.982 -0.1511 -0.5760  1.1524
    4CHTO   O15 1591   7.096   5.987   2.318 -0.2213  0.2926  0.6887
    4CHTO   C19 1592   7.142   6.108   2.381  0.1173 -0.6443 -0.1582
    4CHTO   H47 1593   7.136   6.075   2.486 -0.5255  0.7740  0.2618
    4CHTO   C20 1594   7.285   6.160   2.329 -0.2773  0.2709  0.4843
    4CHTO   H48 1595   7.292   6.155   2.219 -3.9451  0.7073  0.1564
    4CHTO   O19 1596   7.382   6.067   2.373 -0.6463  0.5506  0.6435
    4CHTO   H35 1597   7.461   6.082   2.324  0.0371 -1.6845  0.9977
    4CHTO   C21 1598   7.325   6.305   2.389 -0.3028 -0.1720 -0.2782
    4CHTO   H49 1599   7.367   6.289   2.488 -0.0998  0.0998 -0.3189
    4CHTO    N4 1600   7.430   6.358   2.302 -0.2626 -0.0204  0.2068
    4CHTO   H41 1601   7.532   6.344   2.334 -0.7724 -2.0464  1.0221
    4CHTO   H42 1602   7.424   6.316   2.202  1.2776 -0.1514  0.1502
    4CHTO   C22 1603   7.203   6.398   2.403  0.5088 -0.4198 -0.1751
    4CHTO   H50 1604   7.184   6.456   2.312  1.8696 -0.8816 -0.7620
    4CHTO   O14 1605   7.079   6.332   2.444 -0.0927 -0.3550  0.7131
    4CHTO   C23 1606   7.038   6.221   2.362 -0.0396  0.8066 -0.4192
    4CHTO   H51 1607   7.037   6.255   2.257  0.3610  0.9391 -0.3838
    4CHTO   C34 1608   6.891   6.190   2.402 -0.1298 -0.1460 -0.1475
    4CHTO   O23 1609   6.823   6.093   2.323 -0.4968 -0.1479  0.1950
    4CHTO   H38 1610   6.732   6.115   2.322 -0.3640  0.4092 -0.6544
    4CHTO   O16 1611   7.230   6.500   2.505 -0.3118  0.8797  0.2071
    4CHTO   C24 1612   7.097   6.623   2.505 -0.0067 -0.0052 -0.0462
    4CHTO   H52 1613   7.040   6.623   2.412  0.3778  0.8695 -0.2851
    4CHTO   C26 1614   7.177   6.751   2.536 -0.2198 -0.0217  0.1915
    4CHTO   H54 1615   7.249   6.776   2.455 -0.7863  0.4936 -0.1604
    4CHTO   O20 1616   7.071   6.849   2.533 -0.0831 -0.6059  0.1548
    4CHTO   H36 1617   7.024   6.847   2.452  0.2773 -0.3121 -0.0660
    4CHTO   C30 1618   7.227   6.760   2.682 -0.2840  0.2147 -0.0748
    4CHTO   H58 1619   7.198   6.855   2.728  1.3094  1.1312 -0.9142
    4CHTO    N6 1620   7.376   6.768   2.680  0.2110 -0.0997  0.1168
    4CHTO   H45 1621   7.415   6.675   2.717  0.0611  0.7441  2.5030
    4CHTO   H46 1622   7.397   6.848   2.750 -0.3855  0.2823 -0.1324
    4CHTO   C33 1623   7.167   6.647   2.769 -0.1433 -0.2564  0.2547
    4CHTO   H61 1624   7.209   6.547   2.751  0.9919  0.3015 -0.2912
    4CHTO   O18 1625   7.026   6.649   2.740 -0.4546  0.4182  0.6637
    4CHTO   C28 1626   6.999   6.582   2.618  0.3630  0.6028 -0.2229
    4CHTO   H56 1627   7.012   6.475   2.632 -2.2820  0.1728 -0.7111
    4CHTO   C35 1628   6.858   6.612   2.567  0.6455 -0.1460 -0.2605
    4CHTO   O24 1629   6.819   6.535   2.455 -0.0844 -0.9955  0.1994
    4CHTO   H39 1630   6.815   6.444   2.479 -1.3068 -0.6497  1.3615
    4CHTO    O9 1631   7.199   6.672   2.914 -0.1843 -0.1373 -0.5831
    4CHTO   C13 1632   7.328   6.566   2.975 -0.7638 -0.2642  0.0482
    4CHTO   H26 1633   7.413   6.574   2.905  0.4328  0.2365  1.5383
    4CHTO   C11 1634   7.279   6.424   2.992  0.6215  0.1419 -0.2924
    4CHTO   H24 1635   7.263   6.376   2.895 -0.6184  0.6956 -0.3724
    4CHTO    O8 1636   7.143   6.436   3.040  0.4252 -0.2366  0.1727
    4CHTO    H3 1637   7.140   6.448   3.133 -1.7545 -2.1471  0.3985
    4CHTO    C9 1638   7.380   6.342   3.084 -0.3194 -0.2021  0.4108
    4CHTO   H22 1639   7.479   6.362   3.039 -1.0951 -0.6688 -1.5642
    4CHTO    N2 1640   7.345   6.200   3.093  0.2785  0.1831  0.1628
    4CHTO   H10 1641   7.417   6.155   3.160  0.0499 -0.7196 -0.1851
    4CHTO   H11 1642   7.242   6.185   3.122  0.3469  0.2000  0.4130
    4CHTO    C7 1643   7.384   6.409   3.224  0.0144 -0.3691  0.1077
    4CHTO   H20 1644   7.490   6.424   3.254  0.6614 -0.3864 -2.0488
    4CHTO    O4 1645   7.330   6.539   3.223  0.1510  0.2245  0.1212
    4CHTO   C14 1646   7.379   6.622   3.113  1.0286  0.2933 -0.1732
    4CHTO   H27 1647   7.489   6.614   3.114  1.0518  0.5143 -0.9805
    4CHTO   C18 1648   7.340   6.776   3.143  0.2510  0.2025 -0.5031
    4CHTO   O13 1649   7.389   6.861   3.042 -0.0867 -0.3400  0.7503
    4CHTO    H7 1650   7.454   6.826   2.984  0.5854  1.4697  0.3641
    4CHTO    O2 1651   7.316   6.317   3.360 -0.3592  0.0066 -0.2264
    4CHTO    C1 1652   7.373   6.355   3.486 -0.0206 -0.3418 -0.2952
    4CHTO   H14 1653   7.406   6.461   3.489  0.0382 -0.3750  0.2512
    4CHTO    C2 1654   7.501   6.265   3.522 -0.5476  0.0530 -0.1715
    4CHTO   H15 1655   7.484   6.156   3.519  0.7467 -0.2207  1.5961
    4CHTO    O6 1656   7.602   6.294   3.423 -0.2357  0.1305  0.0931
    4CHTO    H1 1657   7.564   6.305   3.337  1.4122  0.1886 -0.6542
    4CHTO    C3 1658   7.552   6.294   3.677 -0.4333  0.2032  0.7077
    4CHTO   H16 1659   7.598   6.393   3.685 -1.1588  0.5397  0.8168
    4CHTO    N1 1660   7.670   6.204   3.719 -0.1230  0.1754  0.2862
    4CHTO    H8 1661   7.627   6.105   3.707 -1.1037  0.7791 -1.4380
    4CHTO    H9 1662   7.747   6.210   3.644 -0.6335  0.5519 -0.2135
    4CHTO    C4 1663   7.434   6.291   3.781  0.0155  0.8587 -0.0540
    4CHTO   H17 1664   7.399   6.188   3.789 -0.4183  1.1534  2.0019
    4CHTO    O1 1665   7.336   6.382   3.728 -0.0703  0.4068  0.5831
    4CHTO    C5 1666   7.279   6.342   3.602 -0.7734 -0.3942  1.2909
    4CHTO   H18 1667   7.252   6.237   3.604 -1.1608 -0.3279 -0.2623
    4CHTO   C16 1668   7.156   6.431   3.577 -0.0586 -0.4593  0.4955
    4CHTO   O11 1669   7.048   6.423   3.674  0.0495 -0.3781 -0.0373
    4CHTO    H5 1670   6.985   6.491   3.664  0.5482 -0.0716 -1.1702
    4CHTO    O3 1671   7.463   6.337   3.915 -0.0650 -0.2070 -0.5252
    4CHTO    C6 1672   7.397   6.275   4.033  0.3709  0.1304  0.3063
    4CHTO   H19 1673   7.312   6.216   3.997 -0.7533  2.2225 -0.5742
    4CHTO    C8 1674   7.500   6.208   4.122  0.3393  1.0777 -0.4639
    4CHTO   H21 1675   7.582   6.276   4.144  0.1103  1.7639 -1.7354
    4CHTO    O7 1676   7.547   6.102   4.038 -0.5422 -0.1411  0.2784
    4CHTO    H2 1677   7.598   6.135   3.966 -1.7726  0.3257 -0.3839
    4CHTO   C12 1678   7.431   6.161   4.258  0.1509  0.0537 -0.0628
    4CHTO   H25 1679   7.362   6.081   4.225  1.3827 -1.6787  1.4671
    4CHTO    N3 1680   7.527   6.107   4.357 -0.5133  0.5596  0.5371
    4CHTO   H12 1681   7.611   6.173   4.371  0.0829 -0.1277  0.2211
    4CHTO   H13 1682   7.557   6.006   4.336 -1.6045  0.7021 -1.8963
    4CHTO   C15 1683   7.352   6.272   4.320 -0.6604  0.5727  0.4138
    4CHTO   H28 1684   7.420   6.352   4.352  0.8147 -0.7015  0.5006
    4CHTO   O10 1685   7.248   6.222   4.445  0.5208 -0.3034  0.4411
    4CHTO    H4 1686   7.298   6.195   4.520 -1.9084 -2.4153  1.3816
    4CHTO    O5 1687   7.264   6.334   4.226 -0.3225  0.2536 -0.3397
    4CHTO   C10 1688   7.334   6.387   4.113  0.2739  0.5179  0.2842
    4CHTO   H23 1689   7.418   6.450   4.143 -0.1065  0.9586  0.4180
    4CHTO   C17 1690   7.240   6.478   4.034 -0.0913  0.7121 -0.6661
    4CHTO   O12 1691   7.132   6.409   3.971  0.2890  0.2254 -0.2099
    4CHTO    H6 1692   7.048   6.425   4.011 -0.3106  0.3131 -1.4962
    5CHTO  H203 1693   6.951   3.623  -0.194 -0.4492  1.1928  2.6075
    5CHTO   O82 1694   6.883   3.559  -0.200  0.7020  0.1675 -0.4128
    5CHTO  C123 1695   6.808   3.530  -0.074 -0.8577 -0.0112 -0.3782
    5CHTO  H227 1696   6.868   3.565   0.012 -0.4436  1.0084 -1.0856
    5CHTO   O77 1697   6.688   3.612  -0.086 -0.2929  0.1440  0.8353
    5CHTO  C118 1698   6.589   3.607   0.016 -0.9490 -0.3034 -0.0973
    5CHTO  H222 1699   6.645   3.641   0.105 -1.0373  1.1993 -0.5957
    5CHTO  C125 1700   6.480   3.714  -0.009 -0.0364 -0.2442 -0.1834
    5CHTO   O84 1701   6.471   3.823   0.087  0.7604 -0.3085 -0.3772
    5CHTO  H205 1702   6.432   3.786   0.164  4.0035 -0.2012  1.3994
    5CHTO  C114 1703   6.531   3.465   0.032  0.6073  0.4094 -0.4330
    5CHTO  H218 1704   6.478   3.435  -0.058  0.4231  1.3117 -0.6320
    5CHTO  C116 1705   6.646   3.360   0.044 -0.6724  0.4725  0.0267
    5CHTO  H220 1706   6.690   3.378   0.144 -0.3436 -2.8317  0.5189
    5CHTO   O79 1707   6.591   3.229   0.045  0.3979 -0.6710 -0.5835
    5CHTO  H201 1708   6.521   3.225  -0.018 -0.5311 -0.6819  0.4310
    5CHTO  C120 1709   6.763   3.380  -0.069 -0.3359  1.0283 -0.1754
    5CHTO  H224 1710   6.724   3.358  -0.171  0.5882 -1.6123  0.0042
    5CHTO   N21 1711   6.878   3.286  -0.050 -0.5916  0.0312 -0.8230
    5CHTO  H211 1712   6.911   3.261   0.049  2.2962 -0.4909 -1.8622
    5CHTO  H212 1713   6.958   3.294  -0.122  0.1073 -0.0377 -0.0584
    5CHTO   O75 1714   6.448   3.487   0.153  0.0123  0.0896  0.2011
    5CHTO  C112 1715   6.321   3.378   0.160  0.1656 -0.0158  0.6320
    5CHTO  H216 1716   6.364   3.277   0.154  1.7123  0.6551 -0.0211
    5CHTO   O73 1717   6.232   3.404   0.042 -0.0387  0.2407  0.0194
    5CHTO  C113 1718   6.118   3.310   0.034  0.4927  0.0534  0.2866
    5CHTO  H217 1719   6.161   3.208   0.030 -1.7059 -0.8457 -0.6844
    5CHTO  C124 1720   6.036   3.327  -0.096 -0.0649 -0.4876  0.1388
    5CHTO   O83 1721   5.995   3.462  -0.123  0.1662 -0.3638  1.0171
    5CHTO  H204 1722   5.937   3.460  -0.197  2.9366 -0.6889 -1.2288
    5CHTO  C109 1723   6.023   3.332   0.164  0.2437 -0.1931 -0.1484
    5CHTO  H213 1724   5.980   3.433   0.157 -0.6767 -0.3216  2.9748
    5CHTO  C110 1725   6.104   3.342   0.294  0.7993 -0.2107 -0.4131
    5CHTO  H214 1726   6.104   3.237   0.322 -1.4031 -0.7571 -2.3164
    5CHTO   O78 1727   6.025   3.401   0.400 -0.1157  0.2568 -0.3681
    5CHTO  H200 1728   5.943   3.431   0.366 -0.5066  0.9420  1.1305
    5CHTO  C111 1729   6.241   3.407   0.293 -0.2760  0.1968 -0.2388
    5CHTO  H215 1730   6.232   3.516   0.302 -0.1819  0.1384  0.6316
    5CHTO   N19 1731   6.329   3.365   0.408 -0.4905  0.0626  0.3389
    5CHTO  H207 1732   6.323   3.429   0.495 -1.2927  2.1650 -1.2226
    5CHTO  H208 1733   6.294   3.265   0.431 -2.4873  0.9452  1.2136
    5CHTO   O74 1734   5.922   3.232   0.159  0.0558 -0.2597 -0.3953
    5CHTO  C115 1735   5.765   3.294   0.133  0.9798  0.6452 -0.0586
    5CHTO  H219 1736   5.764   3.403   0.130 -4.5232  0.7624  1.4156
    5CHTO   O76 1737   5.708   3.246  -0.005 -0.8490 -0.0211 -0.2530
    5CHTO  C122 1738   5.707   3.103  -0.009  0.3866  0.1161 -0.0118
    5CHTO  H226 1739   5.808   3.064  -0.013  0.6286  0.7755 -0.5777
    5CHTO  C126 1740   5.644   3.046  -0.144  0.1443 -0.5308  0.4638
    5CHTO   O85 1741   5.746   3.042  -0.242 -0.5401 -0.1180 -0.1261
    5CHTO  H206 1742   5.762   3.124  -0.284 -0.4442 -0.6644 -1.1819
    5CHTO  C121 1743   5.623   3.040   0.112 -0.1238 -0.1210 -0.6619
    5CHTO  H225 1744   5.542   2.979   0.067 -1.1402  0.0003  0.9300
    5CHTO   O81 1745   5.700   2.952   0.188  0.4273  0.0366 -0.1170
    5CHTO  H202 1746   5.648   2.905   0.250  0.3221 -1.3434 -1.2083
    5CHTO  C119 1747   5.559   3.149   0.192 -0.0901 -0.1465  0.2698
    5CHTO  H223 1748   5.499   3.214   0.128  0.5949  1.2053  0.9851
    5CHTO  C117 1749   5.670   3.248   0.251 -0.4903 -0.1279  0.5555
    5CHTO  H221 1750   5.740   3.204   0.321  1.0756 -0.8810 -1.4187
    5CHTO   N20 1751   5.615   3.369   0.320 -0.5246  0.0253  0.0207
    5CHTO  H209 1752   5.657   3.460   0.279  1.0366 -0.7834 -0.2188
    5CHTO  H210 1753   5.622   3.372   0.428  0.1575 -2.4027  0.0696
    5CHTO   O80 1754   5.455   3.094   0.291 -0.3180 -0.2520  0.5523
    5CHTO  C103 1755   5.337   2.986   0.238  0.3639  0.4119 -0.0166
    5CHTO  H190 1756   5.340   2.973   0.130  1.9143  0.9435 -0.0537
    5CHTO  C101 1757   5.334   2.845   0.302 -0.2384 -0.5095 -0.3945
    5CHTO  H188 1758   5.337   2.852   0.410 -2.2153  1.2369 -0.4150
    5CHTO   O68 1759   5.461   2.790   0.247 -0.3546 -0.5090  0.5610
    5CHTO  H168 1760   5.480   2.718   0.305  0.0024 -2.1224 -1.4922
    5CHTO   C99 1761   5.212   2.751   0.249 -0.1090  0.1514  0.3974
    5CHTO  H186 1762   5.217   2.752   0.138  1.4586  1.8207  0.4500
    5CHTO   N17 1763   5.211   2.609   0.307 -0.1190 -1.1869 -0.0863
    5CHTO  H174 1764   5.176   2.532   0.238 -0.3857 -0.6631 -0.5391
    5CHTO  H175 1765   5.309   2.593   0.349 -0.8369  1.7820  2.8275
    5CHTO   C97 1766   5.083   2.834   0.272 -0.2893  0.0037 -0.1899
    5CHTO  H184 1767   5.055   2.834   0.378  0.3399  0.4456 -0.0236
    5CHTO   O64 1768   5.094   2.969   0.219  0.0610 -0.3722 -0.1697
    5CHTO  C104 1769   5.201   3.052   0.263 -0.7936  0.0963 -0.0919
    5CHTO  H191 1770   5.200   3.085   0.367  2.7163 -0.0414  0.0336
    5CHTO  C108 1771   5.197   3.182   0.180  0.4294 -0.2964 -0.3707
    5CHTO   O71 1772   5.196   3.158   0.040  0.3538 -0.2382 -0.5161
    5CHTO  H171 1773   5.131   3.094   0.017  0.7211 -0.7449 -0.1465
    5CHTO   O62 1774   4.977   2.776   0.193 -0.1210  0.7701 -0.1635
    5CHTO   C91 1775   4.842   2.810   0.226  0.0771 -0.5911 -0.1636
    5CHTO  H178 1776   4.851   2.904   0.280  0.4318 -0.3278 -0.6668
    5CHTO   C92 1777   4.784   2.693   0.313 -1.1506 -0.2604 -0.0753
    5CHTO  H179 1778   4.838   2.683   0.409  1.0500 -1.0291 -1.3535
    5CHTO   O66 1779   4.658   2.742   0.363 -0.2304  0.6526  0.1234
    5CHTO  H166 1780   4.672   2.820   0.414  1.0063  0.8193 -0.4488
    5CHTO   C93 1781   4.749   2.562   0.239  0.6807  0.0723 -0.0747
    5CHTO  H180 1782   4.658   2.521   0.285  1.0401 -1.3635 -0.6255
    5CHTO   N16 1783   4.851   2.461   0.250 -0.6281 -0.0933  0.1285
    5CHTO  H172 1784   4.821   2.378   0.188  1.0699 -0.0808 -0.7278
    5CHTO  H173 1785   4.936   2.508   0.204 -1.4567 -0.8692 -2.2533
    5CHTO   C94 1786   4.722   2.593   0.089 -0.0992  0.5012 -0.0822
    5CHTO  H181 1787   4.814   2.584   0.030  0.4502  1.7080  0.5772
    5CHTO   O61 1788   4.662   2.718   0.067  0.0452  0.0432  0.1615
    5CHTO   C95 1789   4.749   2.831   0.101 -0.2412  0.5817  0.4202
    5CHTO  H182 1790   4.809   2.856   0.014 -0.3030  1.4226  0.6126
    5CHTO  C106 1791   4.661   2.961   0.119  0.7510  0.5442  0.0725
    5CHTO   O69 1792   4.571   2.990   0.005 -0.7926 -0.1049 -0.7280
    5CHTO  H169 1793   4.625   3.036  -0.057  1.6240  0.7298  1.8841
    5CHTO   O63 1794   4.624   2.506   0.034  0.2209 -0.0608 -0.2773
    5CHTO   C96 1795   4.602   2.531  -0.141 -0.3657  0.2026 -0.1938
    5CHTO  H183 1796   4.662   2.619  -0.162 -1.6842  1.1496 -0.0560
    5CHTO   C98 1797   4.468   2.578  -0.194 -0.1494 -0.1080  0.7346
    5CHTO  H185 1798   4.384   2.523  -0.148 -1.3001  1.2865  0.3467
    5CHTO   O67 1799   4.455   2.718  -0.150  0.1813  0.0283 -0.1895
    5CHTO  H167 1800   4.514   2.775  -0.196 -0.4612 -0.5215 -1.7209
    5CHTO  C102 1801   4.463   2.569  -0.353 -0.0012  0.0298  0.9005
    5CHTO  H189 1802   4.533   2.646  -0.388  0.2209 -0.4883  0.1921
    5CHTO   N18 1803   4.326   2.602  -0.413 -0.1670 -0.0895  0.6315
    5CHTO  H176 1804   4.343   2.680  -0.485  1.5461 -0.4695  0.6046
    5CHTO  H177 1805   4.267   2.646  -0.334 -0.1991 -1.8802  1.6322
    5CHTO  C105 1806   4.513   2.431  -0.409  0.1584 -0.6065 -0.3310
    5CHTO  H192 1807   4.442   2.354  -0.378 -0.4052  0.2179  0.4575
    5CHTO   O65 1808   4.642   2.388  -0.356  0.5047 -0.5784 -0.0107
    5CHTO  C100 1809   4.660   2.404  -0.215 -0.4193  0.5538 -1.1140
    5CHTO  H187 1810   4.630   2.318  -0.152  2.4293  0.9870  0.9397
    5CHTO  C107 1811   4.815   2.395  -0.199 -0.4315  0.0010  0.1346
    5CHTO   O70 1812   4.887   2.506  -0.236 -0.0216  0.0806 -0.1711
    5CHTO  H170 1813   4.911   2.496  -0.327 -0.4514 -1.5403 -0.1303
    5CHTO   O57 1814   4.515   2.441  -0.572 -0.0487  0.4775 -0.6880
    5CHTO   C85 1815   4.475   2.322  -0.645  0.4383  0.1740 -1.0091
    5CHTO  H157 1816   4.385   2.286  -0.590  0.3813  0.0174 -1.2073
    5CHTO   C83 1817   4.586   2.210  -0.634  0.0215  0.4846 -0.6761
    5CHTO  H155 1818   4.586   2.182  -0.528  1.1432  0.2394 -0.7432
    5CHTO   O56 1819   4.715   2.255  -0.676 -0.1828  0.1076  0.0023
    5CHTO  H135 1820   4.778   2.214  -0.621  1.1111  1.5550 -0.3451
    5CHTO   C81 1821   4.540   2.086  -0.718  0.5486 -0.7434 -0.9721
    5CHTO  H153 1822   4.440   2.053  -0.689  1.1439 -1.5465  0.2547
    5CHTO   N14 1823   4.631   1.978  -0.696 -0.2731  0.9226 -0.0533
    5CHTO  H141 1824   4.696   2.011  -0.619 -1.0305  1.1529  0.4972
    5CHTO  H142 1825   4.572   1.897  -0.657 -0.2297 -0.6965 -3.1655
    5CHTO   C79 1826   4.533   2.126  -0.866 -0.1935 -0.0022  0.3942
    5CHTO  H151 1827   4.496   2.039  -0.920  0.2556  0.1553 -0.1662
    5CHTO   O52 1828   4.431   2.232  -0.878 -0.0692 -0.6521  0.9044
    5CHTO   C86 1829   4.443   2.351  -0.791  0.2447  0.1054 -0.0593
    5CHTO  H158 1830   4.526   2.408  -0.837 -0.2345 -0.3783 -1.5360
    5CHTO   C90 1831   4.320   2.445  -0.803 -0.2626 -0.6082  0.4969
    5CHTO   O60 1832   4.188   2.388  -0.775  0.3953 -0.5646  0.4274
    5CHTO  H138 1833   4.135   2.460  -0.746  2.3579  0.4364  1.7340
    5CHTO   O50 1834   4.654   2.168  -0.929 -0.4281  0.0908  0.3848
    5CHTO   C73 1835   4.727   2.193  -1.052  0.0035 -0.2312  0.2993
    5CHTO  H145 1836   4.656   2.218  -1.132  1.4046 -2.0723 -1.5894
    5CHTO   C74 1837   4.812   2.062  -1.090  0.7798  0.1960  0.1206
    5CHTO  H146 1838   4.746   1.975  -1.107  0.5746  0.1885  0.9055
    5CHTO   O54 1839   4.861   2.089  -1.221  0.4656 -0.3681  0.3681
    5CHTO  H133 1840   4.919   2.017  -1.236 -0.7054 -1.6159  1.7621
    5CHTO   C75 1841   4.915   2.026  -0.975  0.2228  0.1884  0.3280
    5CHTO  H147 1842   4.853   2.002  -0.888 -0.4466 -0.1001 -0.2262
    5CHTO   N13 1843   5.007   1.917  -1.016  0.3042 -0.0122 -0.0543
    5CHTO  H139 1844   4.949   1.827  -1.034  0.6662 -0.7597  2.3859
    5CHTO  H140 1845   5.046   1.946  -1.113  0.2896  0.9724  0.2312
    5CHTO   C76 1846   4.994   2.162  -0.927  0.2088 -0.2608 -0.1752
    5CHTO  H148 1847   5.067   2.188  -1.004 -0.0644  2.8957  0.5569
    5CHTO   O49 1848   4.903   2.275  -0.904 -0.0122 -0.7618 -0.4794
    5CHTO   C77 1849   4.827   2.309  -1.023 -0.6347  0.6432 -0.3803
    5CHTO  H149 1850   4.887   2.323  -1.113  0.7445 -2.4375  0.0072
    5CHTO   C88 1851   4.747   2.437  -1.007 -0.3145  0.0273  0.5217
    5CHTO   O58 1852   4.846   2.549  -0.944 -0.1345  0.1342  0.2513
    5CHTO  H136 1853   4.910   2.583  -1.003  1.3853 -1.0861  1.1505
    5CHTO   O51 1854   5.059   2.138  -0.804 -0.2811 -0.2431 -0.4195
    5CHTO   C78 1855   5.172   2.247  -0.751  0.4723 -0.3374  0.6777
    5CHTO  H150 1856   5.144   2.351  -0.779 -0.6668 -0.9504 -0.5400
    5CHTO   C80 1857   5.308   2.221  -0.815  0.0293  0.1388 -0.5571
    5CHTO  H152 1858   5.336   2.114  -0.800  2.2838  0.8086  0.3324
    5CHTO   O55 1859   5.294   2.259  -0.953  0.1725  0.1890  0.3689
    5CHTO  H134 1860   5.263   2.182  -0.996 -4.7772  1.5228  1.3059
    5CHTO   C84 1861   5.423   2.309  -0.747  1.1872 -0.3572  0.1493
    5CHTO  H156 1862   5.419   2.408  -0.793 -0.1333  0.1812  1.3911
    5CHTO   N15 1863   5.553   2.257  -0.783 -0.3902 -0.9729  0.3117
    5CHTO  H143 1864   5.634   2.322  -0.756  1.0920 -0.5039 -4.7465
    5CHTO  H144 1865   5.555   2.239  -0.888  0.4527 -0.8033  0.2958
    5CHTO   C87 1866   5.411   2.326  -0.592  0.2576 -0.7438  0.8183
    5CHTO  H159 1867   5.459   2.242  -0.543 -2.1396 -2.0118  1.0600
    5CHTO   O53 1868   5.268   2.344  -0.546 -0.2409 -0.2476 -0.1041
    5CHTO   C82 1869   5.176   2.241  -0.593  0.6391 -0.3195  0.6600
    5CHTO  H154 1870   5.218   2.143  -0.569  2.4465 -0.1473 -1.5871
    5CHTO   C89 1871   5.042   2.256  -0.519 -0.1716  0.1624 -0.1220
    5CHTO   O59 1872   5.046   2.235  -0.384 -0.6074  0.4417 -0.1625
    5CHTO  H137 1873   5.046   2.318  -0.339 -1.5910 -0.0821  0.8240
    5CHTO   O45 1874   5.489   2.450  -0.543 -0.2293  0.1571  0.0142
    5CHTO   C67 1875   5.562   2.426  -0.417  0.4520 -0.3259 -0.4398
    5CHTO  H124 1876   5.527   2.333  -0.372  0.6956  0.2972  1.0402
    5CHTO   C65 1877   5.718   2.424  -0.432 -0.3164  0.4889  0.0610
    5CHTO  H122 1878   5.738   2.398  -0.535 -2.6484 -0.9168 -0.0980
    5CHTO   O44 1879   5.771   2.324  -0.348 -0.1550 -0.1532  0.4944
    5CHTO  H102 1880   5.786   2.359  -0.262  2.5841 -2.6104  1.1350
    5CHTO   C63 1881   5.776   2.570  -0.417  0.2260  0.2122  0.6620
    5CHTO  H120 1882   5.716   2.636  -0.479  2.5419  2.2907  0.5513
    5CHTO   N11 1883   5.920   2.599  -0.458 -0.0232 -0.4411 -0.0164
    5CHTO  H108 1884   5.950   2.696  -0.422  0.7185 -0.7354  0.1660
    5CHTO  H109 1885   5.927   2.599  -0.565 -1.8990 -1.2076 -0.1589
    5CHTO   C61 1886   5.746   2.614  -0.266 -0.1171  0.1874  0.4750
    5CHTO  H118 1887   5.743   2.723  -0.277  0.2323  0.1380 -0.1186
    5CHTO   O40 1888   5.610   2.575  -0.215 -0.0625  0.3398 -0.3118
    5CHTO   C68 1889   5.511   2.541  -0.319 -0.5472  0.2317  1.1358
    5CHTO  H125 1890   5.500   2.635  -0.378 -2.9091 -0.6896  0.0277
    5CHTO   C72 1891   5.375   2.511  -0.254  0.3018 -0.1126 -0.5431
    5CHTO   O48 1892   5.329   2.622  -0.177  0.1178 -0.2590  0.0319
    5CHTO  H105 1893   5.324   2.693  -0.238 -2.1687 -1.2674 -1.0030
    5CHTO   O38 1894   5.843   2.562  -0.165  0.4118 -0.2888  0.0330
    5CHTO   C55 1895   5.844   2.633  -0.036 -0.0652  0.2722  0.2500
    5CHTO  H112 1896   5.744   2.673  -0.017 -1.4106 -2.9351  0.2633
    5CHTO   C56 1897   5.957   2.744  -0.042 -0.0693 -0.4690  0.0954
    5CHTO  H113 1898   6.050   2.695  -0.076  1.1305  1.9560 -0.1746
    5CHTO   O42 1899   5.918   2.852  -0.130  0.4917 -0.2418  0.1131
    5CHTO  H100 1900   5.927   2.937  -0.093  0.0060  0.2282 -0.8292
    5CHTO   C57 1901   5.982   2.799   0.109 -0.2314 -0.2583  0.6945
    5CHTO  H114 1902   5.887   2.846   0.133  1.8444  3.7323  1.6252
    5CHTO   N10 1903   6.092   2.895   0.114  0.0762  0.3544 -0.2789
    5CHTO  H106 1904   6.149   2.871   0.202  2.4218  0.2585 -1.7782
    5CHTO  H107 1905   6.054   2.996   0.120  0.7063  0.5912 -0.2169
    5CHTO   C58 1906   6.004   2.685   0.207 -0.8003  0.3699  0.4902
    5CHTO  H115 1907   6.100   2.635   0.184 -0.6547 -0.3745  2.6260
    5CHTO   O37 1908   5.893   2.594   0.191  0.3863 -0.0946 -0.4304
    5CHTO   C59 1909   5.865   2.527   0.071  0.3751  0.1036  0.2033
    5CHTO  H116 1910   5.951   2.463   0.049 -0.3660 -1.2968  1.3163
    5CHTO   C70 1911   5.741   2.441   0.099 -0.9466  0.2954  0.0944
    5CHTO   O46 1912   5.720   2.351  -0.014  0.0713 -0.0137 -0.2747
    5CHTO  H103 1913   5.758   2.266  -0.000  1.9702  1.2479  2.7412
    5CHTO   O39 1914   6.008   2.735   0.366  0.4952 -0.4957  0.2603
    5CHTO   C60 1915   5.873   2.760   0.427 -0.8445  0.6852  0.8904
    5CHTO  H117 1916   5.805   2.798   0.351 -1.9504 -2.0818  0.4411
    5CHTO   C62 1917   5.803   2.634   0.487  0.5325 -0.4267  0.5883
    5CHTO  H119 1918   5.783   2.569   0.400  1.7963 -0.0041 -0.0279
    5CHTO   O43 1919   5.886   2.557   0.568 -0.0898  0.0679  0.0552
    5CHTO  H101 1920   5.956   2.513   0.523  0.9088  0.4275  1.2039
    5CHTO   C66 1921   5.659   2.674   0.551 -0.3833  0.0930 -0.3241
    5CHTO  H123 1922   5.604   2.737   0.481 -1.5350  0.3321  0.7662
    5CHTO   N12 1923   5.569   2.565   0.595 -0.4109  0.8547 -0.2487
    5CHTO  H110 1924   5.606   2.499   0.672 -1.6096 -0.6535 -0.9420
    5CHTO  H111 1925   5.535   2.512   0.508 -0.8740  0.3271  0.2514
    5CHTO   C69 1926   5.677   2.787   0.654  0.1449 -0.6328  0.1343
    5CHTO  H126 1927   5.725   2.747   0.746  0.2708 -2.6291 -0.7729
    5CHTO   O41 1928   5.745   2.900   0.606 -0.1816 -0.4101 -0.2496
    5CHTO   C64 1929   5.892   2.867   0.536 -0.4540  0.2782  0.2739
    5CHTO  H121 1930   5.961   2.829   0.614  2.2382  1.1145 -1.6500
    5CHTO   C71 1931   5.958   2.992   0.486 -0.8016  0.3057 -0.0228
    5CHTO   O47 1932   5.884   3.055   0.386 -0.2035  0.1953  0.0297
    5CHTO  H104 1933   5.933   3.102   0.322 -1.2241 -0.1196 -1.0013
    5CHTO   O34 1934   5.534   2.849   0.706 -0.2294 -0.4823 -0.2722
    5CHTO   C49 1935   5.460   2.927   0.791  0.4053  0.6458 -0.2252
    5CHTO   H91 1936   5.533   2.990   0.841  0.4884  0.0668  0.3814
    5CHTO   C47 1937   5.402   2.835   0.903  0.2859  0.0976 -0.2528
    5CHTO   H89 1938   5.364   2.900   0.985 -0.1453 -1.2256  0.6186
    5CHTO   O33 1939   5.515   2.761   0.955  0.4124  0.0020 -0.7512
    5CHTO   H70 1940   5.555   2.816   1.020  2.5524 -3.6752  1.2328
    5CHTO   C45 1941   5.271   2.763   0.841 -0.0654  0.8143 -0.5991
    5CHTO   H87 1942   5.293   2.701   0.753  0.0158  1.1097 -0.7877
    5CHTO    N8 1943   5.218   2.669   0.944 -0.2457  0.4059  0.0605
    5CHTO   H75 1944   5.125   2.704   0.986 -0.0407 -0.9283  1.6779
    5CHTO   H76 1945   5.203   2.580   0.886  0.6043 -0.5693  1.3081
    5CHTO   C43 1946   5.163   2.868   0.794  0.9475  0.0303  0.3334
    5CHTO   H85 1947   5.078   2.814   0.752  0.8007 -0.1504  0.8712
    5CHTO   O29 1948   5.227   2.946   0.694  0.0512 -0.2618  0.0639
    5CHTO   C50 1949   5.350   3.014   0.721 -0.9596 -0.5778  0.0653
    5CHTO   H92 1950   5.392   3.043   0.624  1.1003  0.4510  1.2311
    5CHTO   C54 1951   5.321   3.158   0.791 -0.1548  0.0649  0.3078
    5CHTO   O36 1952   5.281   3.256   0.694  0.2057 -0.1704 -0.2146
    5CHTO   H72 1953   5.298   3.339   0.734  0.6770 -0.7068  0.7435
    5CHTO   O27 1954   5.117   2.951   0.902 -0.4920 -0.0276 -0.3551
    5CHTO   C37 1955   5.015   2.965   0.999 -0.0399 -0.1008  0.0970
    5CHTO   H79 1956   5.038   2.907   1.090  1.9319 -0.7379 -0.7777
    5CHTO   C38 1957   5.023   3.117   1.037 -0.2903  0.2107  0.1152
    5CHTO   H80 1958   5.046   3.172   0.944  0.0417 -0.1607 -0.0240
    5CHTO   O31 1959   5.138   3.133   1.117 -0.3295 -0.0093 -0.2479
    5CHTO   H68 1960   5.216   3.132   1.064  1.9827 -1.6107  2.9834
    5CHTO   C39 1961   4.907   3.166   1.118 -0.6406  0.0252  0.3331
    5CHTO   H81 1962   4.922   3.118   1.215  0.6062 -0.6069 -0.1767
    5CHTO    N7 1963   4.912   3.320   1.135  0.1214 -0.2865  0.1500
    5CHTO   H73 1964   5.011   3.346   1.169 -0.9555  3.1322  0.8963
    5CHTO   H74 1965   4.830   3.348   1.199  0.7433 -0.3169  0.9683
    5CHTO   C40 1966   4.779   3.111   1.051  0.2697  0.2730  0.1244
    5CHTO   H82 1967   4.763   3.157   0.953 -2.4173 -0.1056  0.3387
    5CHTO   O26 1968   4.776   2.972   1.037  0.2833  0.4609  0.0770
    5CHTO   C41 1969   4.874   2.916   0.940 -0.1399 -0.5374 -0.7091
    5CHTO   H83 1970   4.850   2.948   0.838  2.8102  0.5022 -1.1192
    5CHTO   C52 1971   4.839   2.762   0.940  0.2581  0.0808 -0.5866
    5CHTO   O35 1972   4.855   2.689   1.100 -0.1864 -0.2988 -0.0224
    5CHTO   H71 1973   4.773   2.652   1.128 -0.6831 -0.7783 -2.0426
    5CHTO   O28 1974   4.660   3.150   1.125 -0.1664  0.4987  0.0993
    5CHTO   C42 1975   4.563   3.060   1.180 -0.0841  0.1988 -0.3003
    5CHTO   H84 1976   4.488   3.129   1.219 -0.1389  0.6506 -1.1953
    5CHTO   C44 1977   4.615   2.968   1.298 -0.9443  0.3058  0.6638
    5CHTO   H86 1978   4.698   2.907   1.263 -1.5246 -0.4383  0.5858
    5CHTO   O32 1979   4.666   3.061   1.401  0.3132 -0.3493  0.1659
    5CHTO   H69 1980   4.706   3.014   1.471  0.8318 -1.1596 -0.6671
    5CHTO   C48 1981   4.507   2.874   1.355  0.2270 -0.3926 -0.5411
    5CHTO   H90 1982   4.422   2.936   1.383  0.5139  0.4854 -1.5547
    5CHTO    N9 1983   4.562   2.805   1.482  0.5861 -0.2248 -0.1661
    5CHTO   H77 1984   4.476   2.824   1.544  0.5584  0.6362 -0.4776
    5CHTO   H78 1985   4.590   2.701   1.468 -0.0921 -0.3134 -0.8503
    5CHTO   C51 1986   4.469   2.775   1.237  0.4331  0.4290  0.2219
    5CHTO   H93 1987   4.559   2.736   1.190  0.6067  0.5721  0.4354
    5CHTO   O30 1988   4.394   2.859   1.146 -0.3988 -0.3336  0.0797
    5CHTO   C46 1989   4.484   2.974   1.075  0.8775  0.4648 -0.1665
    5CHTO   H88 1990   4.553   2.914   1.016 -1.3398 -2.3322  0.0003
    5CHTO   C53 1991   4.407   3.070   0.977  0.7276  0.2746 -0.1829
    5CHTO   O72 1992   4.283   3.117   1.042  0.0028 -0.1239  0.3480
    5CHTO  H199 1993   4.255   3.200   1.010 -2.1706 -0.9334  0.0666
    5CHTO   O22 1994   4.374   2.674   1.274 -0.9085  0.1545  0.0173
    5CHTO   C31 1995   4.392   2.541   1.210 -0.1896  0.4732 -0.7431
    5CHTO   H59 1996   4.299   2.485   1.233 -1.1581  2.2473 -0.2167
    5CHTO   C29 1997   4.396   2.563   1.052  0.0577 -0.0353  0.5053
    5CHTO   H57 1998   4.444   2.659   1.026  0.4547 -0.0500  1.1926
    5CHTO   O21 1999   4.267   2.589   1.002  0.4589 -0.3307  0.2317
    5CHTO   H37 2000   4.219   2.513   0.975 -0.3325  0.0922  0.4206
    5CHTO   C27 2001   4.470   2.445   0.968  0.3000  0.6625 -0.2038
    5CHTO   H55 2002   4.408   2.355   0.978  0.5498  0.7302  2.2227
    5CHTO    N5 2003   4.479   2.481   0.824 -0.5264 -0.2137 -0.3752
    5CHTO   H43 2004   4.483   2.587   0.804 -1.0975 -0.2127 -0.5097
    5CHTO   H44 2005   4.558   2.423   0.780 -1.0495  0.5611 -2.3910
    5CHTO   C25 2006   4.600   2.425   1.050 -0.3059  0.3746 -0.6386
    5CHTO   H53 2007   4.653   2.518   1.073 -1.3320  0.8964 -0.3740
    5CHTO   O17 2008   4.561   2.356   1.178  0.3524 -0.5636  0.5580
    5CHTO   C32 2009   4.513   2.458   1.274  1.3966  0.0775 -0.4675
    5CHTO   H60 2010   4.591   2.523   1.314 -0.5466  1.5300  1.0709
    5CHTO   C36 2011   4.470   2.385   1.411 -0.1032  0.3907 -0.0795
    5CHTO   O25 2012   4.424   2.460   1.522 -0.1544 -0.2558 -0.1177
    5CHTO   H40 2013   4.334   2.482   1.512  0.0527  0.8656  0.4146
    5CHTO   O15 2014   4.694   2.333   0.982 -0.1488  0.0965  0.3348
    5CHTO   C19 2015   4.828   2.292   1.011  0.0224  0.1073 -0.9505
    5CHTO   H47 2016   4.856   2.357   1.095 -2.4923 -0.8105  0.6601
    5CHTO   C20 2017   4.833   2.150   1.074 -0.1491  0.1689 -0.0186
    5CHTO   H48 2018   4.794   2.075   1.004  0.1832 -0.4589  0.4637
    5CHTO   O19 2019   4.753   2.146   1.191  0.0231  0.1066  0.3507
    5CHTO   H35 2020   4.793   2.188   1.265  1.6729  2.4690 -1.7964
    5CHTO   C21 2021   4.978   2.109   1.107 -0.6062 -0.1717  0.3694
    5CHTO   H49 2022   5.002   2.171   1.193 -0.9814  0.8873 -0.2784
    5CHTO    N4 2023   4.987   1.973   1.168 -0.9458 -0.0082 -0.3512
    5CHTO   H41 2024   4.899   1.910   1.176 -0.3011 -0.8029  0.5511
    5CHTO   H42 2025   5.042   1.976   1.261 -1.5790 -3.9471  0.2649
    5CHTO   C22 2026   5.086   2.150   1.004 -0.1766  0.0110 -0.8900
    5CHTO   H50 2027   5.091   2.069   0.931  3.6495 -0.2967 -0.3853
    5CHTO   O14 2028   5.069   2.281   0.948  0.0564  0.2851 -0.6305
    5CHTO   C23 2029   4.937   2.306   0.900 -0.4254  0.5029 -0.2831
    5CHTO   H51 2030   4.926   2.229   0.822  0.0431 -0.0913  0.2329
    5CHTO   C34 2031   4.919   2.436   0.825  0.2568  0.2627 -0.0014
    5CHTO   O23 2032   4.914   2.397   0.688  0.3115 -0.3364 -0.4889
    5CHTO   H38 2033   4.981   2.447   0.645 -0.1737  3.3794  2.7439
    5CHTO   O16 2034   5.211   2.164   1.067  1.0382 -0.1138  0.2518
    5CHTO   C24 2035   5.337   2.099   0.990  0.4069 -0.0605 -0.2669
    5CHTO   H52 2036   5.315   2.091   0.883  0.0734  3.4904 -0.5286
    5CHTO   C26 2037   5.371   1.965   1.052  0.0749 -0.2216 -0.0980
    5CHTO   H54 2038   5.365   1.979   1.162  0.6962  2.6207 -0.3929
    5CHTO   O20 2039   5.261   1.877   1.019 -0.5191  0.1692 -0.2950
    5CHTO   H36 2040   5.275   1.815   0.950 -0.0587  0.6308 -0.6215
    5CHTO   C30 2041   5.503   1.895   1.004 -0.5797  0.9477  0.2754
    5CHTO   H58 2042   5.484   1.868   0.899  1.2948 -1.6224  0.5329
    5CHTO    N6 2043   5.556   1.776   1.069  0.3305 -0.1153  0.4176
    5CHTO   H45 2044   5.482   1.697   1.061 -2.1555  2.2349 -0.7140
    5CHTO   H46 2045   5.576   1.797   1.173 -0.5063 -1.2120  0.8084
    5CHTO   C33 2046   5.619   1.997   1.003 -0.0864 -0.4452 -0.8380
    5CHTO   H61 2047   5.643   2.014   1.109  1.9890  0.1443 -1.3688
    5CHTO   O18 2048   5.570   2.124   0.945 -0.3134 -0.1454  0.1879
    5CHTO   C28 2049   5.459   2.194   1.002 -0.2210  0.0860 -0.6839
    5CHTO   H56 2050   5.479   2.217   1.107  1.9393  0.0724 -1.0764
    5CHTO   C35 2051   5.417   2.322   0.922  0.0676  0.1809  0.2176
    5CHTO   O24 2052   5.524   2.409   0.918  0.4272  0.0135 -0.2603
    5CHTO   H39 2053   5.499   2.497   0.940  2.4902 -0.3289  3.9974
    5CHTO    O9 2054   5.745   1.957   0.949 -0.4396 -0.5923  0.2888
    5CHTO   C13 2055   5.752   1.925   0.776  0.1031 -0.0107  0.1237
    5CHTO   H26 2056   5.659   1.869   0.753  0.8564 -1.8326  1.4411
    5CHTO   C11 2057   5.884   1.843   0.743  0.0150 -0.0585 -0.3257
    5CHTO   H24 2058   5.871   1.751   0.801 -2.0701  0.2313 -0.3216
    5CHTO    O8 2059   5.992   1.910   0.807 -0.0546 -0.4259 -0.4427
    5CHTO    H3 2060   6.009   1.890   0.897  2.5979 -1.2663 -1.0845
    5CHTO    C9 2061   5.882   1.799   0.592 -0.0081 -0.3306 -0.1754
    5CHTO   H22 2062   5.794   1.734   0.581  1.6735 -2.6485 -0.0345
    5CHTO    N2 2063   5.995   1.712   0.552 -0.3355  0.2317 -0.0153
    5CHTO   H10 2064   5.972   1.642   0.473 -2.3793 -1.3525  1.9293
    5CHTO   H11 2065   6.077   1.774   0.519 -1.3003  1.3776 -0.3203
    5CHTO    C7 2066   5.869   1.928   0.500  0.1527  0.6788  0.9240
    5CHTO   H20 2067   5.840   1.893   0.399 -0.2641  0.9093  0.9635
    5CHTO    O4 2068   5.762   2.016   0.546  0.4387 -0.3494  0.0095
    5CHTO   C14 2069   5.742   2.047   0.687  0.0295  0.3573 -0.7860
    5CHTO   H27 2070   5.642   2.093   0.700  0.9724  2.6687 -1.4134
    5CHTO   C18 2071   5.838   2.145   0.739 -0.1860 -0.2111 -0.2324
    5CHTO   O13 2072   5.799   2.277   0.693  0.1804 -0.3535 -0.0702
    5CHTO    H7 2073   5.854   2.305   0.622  1.5247 -1.7065  0.4066
    5CHTO    O2 2074   6.006   2.017   0.485 -0.2392 -0.0743  0.1197
    5CHTO    C1 2075   6.029   2.042   0.348  0.3470  0.2073 -0.0223
    5CHTO   H14 2076   5.934   2.064   0.294  0.3065 -1.4831 -0.6578
    5CHTO    C2 2077   6.110   1.926   0.269  0.5174  0.5154 -0.6544
    5CHTO   H15 2078   6.197   1.892   0.327  0.4115  0.1526 -0.7064
    5CHTO    O6 2079   6.013   1.822   0.245 -0.3253 -0.3071  0.0959
    5CHTO    H1 2080   6.042   1.749   0.194  1.6388  0.8053 -0.3932
    5CHTO    C3 2081   6.159   1.971   0.123 -0.1131  0.3192  0.7868
    5CHTO   H16 2082   6.069   1.985   0.061  0.9632  0.4993 -0.7825
    5CHTO    N1 2083   6.241   1.874   0.046  0.3735  0.0409 -0.5726
    5CHTO    H8 2084   6.218   1.867  -0.059  1.0897 -2.2785 -0.6061
    5CHTO    H9 2085   6.344   1.885   0.075 -0.1655 -0.6864  1.7346
    5CHTO    C4 2086   6.228   2.113   0.138  0.5715  0.6588  0.2723
    5CHTO   H17 2087   6.317   2.102   0.200 -0.1658 -1.4105  0.9924
    5CHTO    O1 2088   6.142   2.204   0.194  0.3300 -0.2531  0.0255
    5CHTO    C5 2089   6.112   2.179   0.331 -0.0480  0.1757 -0.6494
    5CHTO   H18 2090   6.205   2.156   0.383 -0.3913  2.2471  0.9266
    5CHTO   C16 2091   6.052   2.305   0.392  0.1902 -0.0716 -0.2026
    5CHTO   O11 2092   6.120   2.429   0.368  0.5005 -0.0223  0.2717
    5CHTO    H5 2093   6.212   2.420   0.382  0.6471  2.1262  0.8438
    5CHTO    O3 2094   6.268   2.171   0.016  0.2839  0.0811 -0.7547
    5CHTO    C6 2095   6.376   2.268   0.019 -0.7131  0.0832  1.0413
    5CHTO   H19 2096   6.379   2.333   0.106  1.2691 -0.4760  1.4239
    5CHTO    C8 2097   6.520   2.200  -0.011 -0.0869 -0.6763  0.7062
    5CHTO   H21 2098   6.517   2.140  -0.103  1.2440  2.4499 -1.4595
    5CHTO    O7 2099   6.544   2.121   0.108 -0.3880 -0.6801  0.1292
    5CHTO    H2 2100   6.636   2.103   0.116 -0.4635 -1.2573 -0.3141
    5CHTO   C12 2101   6.628   2.314  -0.019  0.0902 -0.4830  0.5696
    5CHTO   H25 2102   6.617   2.372   0.075  0.6515 -1.1168  1.0271
    5CHTO    N3 2103   6.776   2.266  -0.027  0.0727 -0.1114 -0.0654
    5CHTO   H12 2104   6.833   2.304  -0.110 -1.8423  0.2883 -1.2147
    5CHTO   H13 2105   6.790   2.160  -0.012 -1.5836 -0.2022  0.9861
    5CHTO   C15 2106   6.590   2.406  -0.146 -0.2042 -0.1474 -0.0598
    5CHTO   H28 2107   6.583   2.350  -0.239  2.1872 -0.3239 -0.1725
    5CHTO   O10 2108   6.702   2.531  -0.154  0.0254 -0.2873  0.7843
    5CHTO    H4 2109   6.771   2.519  -0.092  0.4274  1.0285  0.6111
    5CHTO    O5 2110   6.459   2.464  -0.119 -0.5726 -0.0273 -0.2657
    5CHTO   C10 2111   6.359   2.355  -0.109 -0.4426 -0.5057 -0.7510
    5CHTO   H23 2112   6.367   2.290  -0.196  0.1683  0.7620 -1.6601
    5CHTO   C17 2113   6.211   2.406  -0.120 -0.0550 -0.1702 -0.4518
    5CHTO   O12 2114   6.188   2.477  -0.243 -0.2913 -0.1599  0.7150
    5CHTO    H6 2115   6.126   2.432  -0.297 -0.6440  1.1222  0.0446
    6CHTO  H203 2116   3.960   4.271   0.605  0.0393  0.6750 -0.5795
    6CHTO   O82 2117   3.972   4.233   0.690  0.7254  0.8301 -0.6099
    6CHTO  C123 2118   4.091   4.278   0.754  0.6945  0.1604 -0.3338
    6CHTO  H227 2119   4.161   4.306   0.674  0.2007 -0.3130 -0.9416
    6CHTO   O77 2120   4.052   4.397   0.813 -0.4334  0.3513  0.3047
    6CHTO  C118 2121   4.162   4.477   0.864  0.1972  0.2869 -0.6954
    6CHTO  H222 2122   4.235   4.500   0.785  3.7696 -0.3369  2.2873
    6CHTO  C125 2123   4.096   4.610   0.921 -0.0065  0.1777  0.0498
    6CHTO   O84 2124   4.069   4.693   0.812 -0.1391  0.1623  0.3829
    6CHTO  H205 2125   4.022   4.767   0.845 -1.0084  0.8471 -2.2816
    6CHTO  C114 2126   4.245   4.408   0.976 -0.8461  0.0707 -0.0873
    6CHTO  H218 2127   4.178   4.398   1.062 -1.3711 -0.9129 -0.5998
    6CHTO  C116 2128   4.278   4.256   0.931 -0.7822  0.2329 -0.2742
    6CHTO  H220 2129   4.360   4.263   0.856  0.8352 -2.4604  1.1659
    6CHTO   O79 2130   4.330   4.182   1.040  0.1718  0.2364  0.1180
    6CHTO  H201 2131   4.301   4.217   1.122 -0.2045 -2.5085  1.2355
    6CHTO  C120 2132   4.149   4.183   0.867  0.1393 -0.1288 -0.2040
    6CHTO  H224 2133   4.077   4.165   0.949 -1.7224  0.6084 -1.6371
    6CHTO   N21 2134   4.190   4.050   0.817  0.3538  0.1366  0.2527
    6CHTO  H211 2135   4.178   3.962   0.879 -1.0885 -0.0194 -0.2258
    6CHTO  H212 2136   4.157   4.029   0.716 -2.3330  1.1334  0.8843
    6CHTO   O75 2137   4.359   4.490   1.012 -0.8562  0.0390 -0.8644
    6CHTO  C112 2138   4.418   4.458   1.160 -0.2035 -0.6931  0.6558
    6CHTO  H216 2139   4.390   4.357   1.192  2.1236 -1.6303 -0.2175
    6CHTO   O73 2140   4.357   4.557   1.250  0.1157  0.2514  0.0172
    6CHTO  C113 2141   4.403   4.548   1.391 -0.5615 -0.4506 -0.4425
    6CHTO  H217 2142   4.388   4.444   1.429 -2.6363 -0.6443 -1.7448
    6CHTO  C124 2143   4.311   4.641   1.472  0.2755 -0.3687 -0.7184
    6CHTO   O83 2144   4.319   4.639   1.614  0.1566  0.3143  0.1020
    6CHTO  H204 2145   4.392   4.695   1.630  0.6224  0.0107 -0.9096
    6CHTO  C109 2146   4.552   4.582   1.402  0.5232 -0.6428 -0.5644
    6CHTO  H213 2147   4.557   4.689   1.376  0.1022 -0.6713 -0.7630
    6CHTO  C110 2148   4.634   4.489   1.306 -0.8042 -0.1218  0.0536
    6CHTO  H214 2149   4.639   4.391   1.355  0.3983  0.8793  1.9946
    6CHTO   O78 2150   4.770   4.525   1.306  0.1242  0.6658  0.2927
    6CHTO  H200 2151   4.796   4.601   1.355  0.9551 -0.0763  1.0314
    6CHTO  C111 2152   4.575   4.474   1.160  0.3553 -0.6733 -0.4783
    6CHTO  H215 2153   4.594   4.568   1.105 -0.2597  0.3880  1.0659
    6CHTO   N19 2154   4.634   4.364   1.080 -0.3363  0.2533  0.2743
    6CHTO  H207 2155   4.705   4.309   1.141  2.3214  3.5732  0.3295
    6CHTO  H208 2156   4.682   4.402   0.991  0.2482 -0.1419  0.4157
    6CHTO   O74 2157   4.594   4.572   1.536  1.0157  0.5704  0.3442
    6CHTO  C115 2158   4.687   4.686   1.596 -0.4445  0.2866 -0.8952
    6CHTO  H219 2159   4.693   4.773   1.529 -1.5137  0.8252 -0.3142
    6CHTO   O76 2160   4.632   4.743   1.735  0.6817 -0.2373 -0.2542
    6CHTO  C122 2161   4.598   4.630   1.821  1.1075 -0.9580 -0.7051
    6CHTO  H226 2162   4.512   4.576   1.783  0.9601 -1.3889  0.2294
    6CHTO  C126 2163   4.567   4.677   1.959 -0.5018 -0.8980 -0.1189
    6CHTO   O85 2164   4.649   4.770   2.022 -0.5339  0.5093 -0.2095
    6CHTO  H206 2165   4.632   4.773   2.114 -1.2216  2.3808 -0.3783
    6CHTO  C121 2166   4.712   4.518   1.836  0.3602 -0.1092 -0.1946
    6CHTO  H225 2167   4.734   4.508   1.945 -0.1461 -0.5686 -0.1364
    6CHTO   O81 2168   4.678   4.386   1.792 -0.2198 -0.2769 -0.2891
    6CHTO  H202 2169   4.754   4.331   1.783 -0.0937 -0.6160  2.2803
    6CHTO  C119 2170   4.844   4.570   1.775  0.4211 -0.1875  0.1492
    6CHTO  H223 2171   4.868   4.657   1.835  1.3566  0.1106 -0.6470
    6CHTO  C117 2172   4.826   4.612   1.624  0.0475 -1.1348 -0.2582
    6CHTO  H221 2173   4.828   4.532   1.549 -0.0805 -1.3995  0.0212
    6CHTO   N20 2174   4.944   4.706   1.580  0.3216  0.1231  0.5805
    6CHTO  H209 2175   4.912   4.782   1.511 -0.1108 -0.1793  0.4454
    6CHTO  H210 2176   5.024   4.643   1.542 -2.4564 -1.9790 -1.9842
    6CHTO   O80 2177   4.968   4.475   1.809 -0.0103  0.0946  0.1548
    6CHTO  C103 2178   5.077   4.527   1.929  0.4486  0.5854 -0.4658
    6CHTO  H190 2179   5.159   4.456   1.940 -1.3309 -1.5076 -0.3930
    6CHTO  C101 2180   5.130   4.677   1.917  0.4481  0.4231  0.2958
    6CHTO  H188 2181   5.054   4.752   1.896  1.1902  1.0072 -0.4008
    6CHTO   O68 2182   5.226   4.685   1.803  0.0969 -0.1832  0.7366
    6CHTO  H168 2183   5.182   4.704   1.723  0.5011 -0.0695  0.5396
    6CHTO   C99 2184   5.192   4.721   2.057 -0.0618 -0.2452 -0.7865
    6CHTO  H186 2185   5.276   4.653   2.082 -0.6046 -0.3468  0.8304
    6CHTO   N17 2186   5.237   4.868   2.068  0.3855 -0.0201 -0.1196
    6CHTO  H174 2187   5.257   4.898   1.966 -1.1739  0.9971 -0.1455
    6CHTO  H175 2188   5.322   4.879   2.133  2.3057 -2.0342 -2.1989
    6CHTO   C97 2189   5.097   4.702   2.175  0.2326 -0.1108 -0.3280
    6CHTO  H184 2190   5.012   4.771   2.161  1.9299  1.7517 -1.6052
    6CHTO   O64 2191   5.054   4.565   2.174 -0.0368 -0.2312 -0.3874
    6CHTO  C104 2192   4.991   4.514   2.059  0.5089 -0.6054  0.8568
    6CHTO  H191 2193   4.908   4.585   2.053  1.6923  0.6983 -0.3354
    6CHTO  C108 2194   4.942   4.371   2.079 -0.0698 -0.4222 -0.0702
    6CHTO   O71 2195   4.849   4.356   2.187  0.0359  0.5102  0.5077
    6CHTO  H171 2196   4.908   4.359   2.260  1.7010 -0.8533 -0.7420
    6CHTO   O62 2197   5.153   4.720   2.306 -0.4942  0.0128 -0.9091
    6CHTO   C91 2198   5.074   4.764   2.421  0.6593 -0.6730 -0.2457
    6CHTO  H178 2199   5.092   4.871   2.424  0.5977 -0.6353 -1.0670
    6CHTO   C92 2200   5.139   4.706   2.549  0.1731  0.1306 -0.3388
    6CHTO  H179 2201   5.248   4.706   2.534  0.2374 -1.0394  0.0918
    6CHTO   O66 2202   5.105   4.796   2.660 -0.3893  0.1227  0.3014
    6CHTO  H166 2203   5.014   4.780   2.675 -0.3665 -0.2697  0.0142
    6CHTO   C93 2204   5.085   4.562   2.578  0.4966 -0.2008  0.0404
    6CHTO  H180 2205   5.084   4.549   2.688  0.2929 -1.2358 -0.0828
    6CHTO   N16 2206   5.169   4.449   2.531 -0.0073  0.1425  0.0375
    6CHTO  H172 2207   5.105   4.364   2.550 -0.7739  0.4921 -0.9276
    6CHTO  H173 2208   5.194   4.450   2.426  0.4746 -2.9745  0.0659
    6CHTO   C94 2209   4.939   4.533   2.523  0.8726  0.1690  0.1938
    6CHTO  H181 2210   4.941   4.501   2.419  2.8460 -3.9275  1.3782
    6CHTO   O61 2211   4.858   4.652   2.525  0.4137 -0.2926 -0.0827
    6CHTO   C95 2212   4.909   4.743   2.426  0.0218  0.7655 -0.6278
    6CHTO  H182 2213   4.887   4.701   2.328  1.3167  0.6127 -0.8566
    6CHTO  C106 2214   4.819   4.868   2.455  0.3371 -0.2471 -0.0205
    6CHTO   O69 2215   4.817   4.951   2.338  0.0952  0.0062 -0.3523
    6CHTO  H169 2216   4.752   4.918   2.279 -0.8557 -1.2505  1.3548
    6CHTO   O63 2217   4.860   4.418   2.619  0.0580  0.6137  0.3509
    6CHTO   C96 2218   4.776   4.323   2.555 -0.6378 -0.0611 -0.2022
    6CHTO  H183 2219   4.830   4.288   2.467 -1.6995  0.5685 -1.1215
    6CHTO   C98 2220   4.627   4.364   2.516  0.0146  0.0489 -0.5268
    6CHTO  H185 2221   4.587   4.410   2.608 -0.4315 -2.7616  0.7191
    6CHTO   O67 2222   4.640   4.467   2.418 -0.0620  0.0154 -0.0389
    6CHTO  H167 2223   4.666   4.550   2.454 -0.3283 -0.5646  1.5509
    6CHTO  C102 2224   4.541   4.249   2.458 -0.0544  0.3344  0.9798
    6CHTO  H189 2225   4.588   4.218   2.363 -2.0780 -2.0053  0.6790
    6CHTO   N18 2226   4.398   4.272   2.426  0.2779 -0.3468  0.0079
    6CHTO  H176 2227   4.357   4.198   2.360  2.0836 -0.5058 -0.9795
    6CHTO  H177 2228   4.387   4.377   2.399  1.1411  0.7058  3.5318
    6CHTO  C105 2229   4.552   4.132   2.557  0.0642 -0.2601 -0.5813
    6CHTO  H192 2230   4.486   4.148   2.643 -0.8598 -2.2003 -0.9056
    6CHTO   O65 2231   4.685   4.097   2.599 -0.2930 -0.4801  0.4079
    6CHTO  C100 2232   4.761   4.206   2.657 -0.5197 -0.0523  0.1039
    6CHTO  H187 2233   4.719   4.248   2.749 -1.6866  1.2725 -1.0110
    6CHTO  C107 2234   4.897   4.148   2.701  0.0799  0.5490 -0.2825
    6CHTO   O70 2235   4.968   4.242   2.783 -0.2137  0.0055  0.5428
    6CHTO  H170 2236   4.919   4.268   2.859 -0.5650  1.2832 -0.1001
    6CHTO   O57 2237   4.471   4.003   2.478  0.4347 -0.0512 -0.0392
    6CHTO   C85 2238   4.545   3.898   2.421  0.3590  0.0258 -0.0464
    6CHTO  H157 2239   4.617   3.864   2.498 -2.4449 -3.3256  1.1696
    6CHTO   C83 2240   4.630   3.948   2.299  0.5403 -0.2692 -0.4392
    6CHTO  H155 2241   4.688   4.034   2.332 -0.2669  0.6342 -1.3436
    6CHTO   O56 2242   4.541   3.991   2.189  0.4460 -0.2274  0.3232
    6CHTO  H135 2243   4.561   4.081   2.169 -1.6428  0.0162 -0.8083
    6CHTO   C81 2244   4.730   3.829   2.260 -0.3412  0.0249  0.6139
    6CHTO  H153 2245   4.787   3.796   2.347 -0.8348 -3.0720 -0.2095
    6CHTO   N14 2246   4.830   3.856   2.152  1.2225 -0.0540  0.2256
    6CHTO  H141 2247   4.857   3.959   2.168  1.3260 -0.3058  1.7180
    6CHTO  H142 2248   4.788   3.843   2.054 -0.0854 -1.7653  0.9970
    6CHTO   C79 2249   4.643   3.707   2.208 -0.6471 -0.2902 -0.6117
    6CHTO  H151 2250   4.708   3.620   2.205 -0.2252 -0.0085  0.3035
    6CHTO   O52 2251   4.535   3.672   2.304 -0.4807  0.3387 -0.5074
    6CHTO   C86 2252   4.452   3.776   2.360  0.1169  0.3677 -0.2885
    6CHTO  H158 2253   4.382   3.815   2.284 -1.1880 -1.0582  0.1729
    6CHTO   C90 2254   4.367   3.710   2.469  0.0773  0.1938 -0.0180
    6CHTO   O60 2255   4.285   3.807   2.532  0.0590 -0.3959 -0.0510
    6CHTO  H138 2256   4.230   3.767   2.597  0.1453 -4.1771 -2.1477
    6CHTO   O50 2257   4.579   3.734   2.085  0.4191  0.1294 -0.1547
    6CHTO   C73 2258   4.484   3.663   1.998 -0.4940  0.4788  0.2757
    6CHTO  H145 2259   4.403   3.625   2.062 -0.1640  0.3793  0.6426
    6CHTO   C74 2260   4.544   3.530   1.938  0.1280 -0.3750 -0.0786
    6CHTO  H146 2261   4.580   3.475   2.026  0.2039 -0.5072 -0.1908
    6CHTO   O54 2262   4.433   3.452   1.882 -0.3938  0.1946  0.5789
    6CHTO  H133 2263   4.413   3.481   1.794 -3.3122  2.7220  1.9453
    6CHTO   C75 2264   4.666   3.574   1.838  0.1406 -0.5466  0.1401
    6CHTO  H147 2265   4.749   3.611   1.899 -0.3108  2.5505 -1.0722
    6CHTO   N13 2266   4.731   3.459   1.769  0.5074  0.1243 -0.6242
    6CHTO  H139 2267   4.837   3.474   1.784  0.1430  0.3786  1.9451
    6CHTO  H140 2268   4.714   3.476   1.664 -1.1529  2.5251  0.0088
    6CHTO   C76 2269   4.614   3.695   1.747 -0.4036 -0.4895 -0.3789
    6CHTO  H148 2270   4.542   3.656   1.675  0.2918  0.3748 -1.5479
    6CHTO   O49 2271   4.555   3.813   1.817 -0.0912  0.1659 -0.0620
    6CHTO   C77 2272   4.439   3.756   1.883 -0.7424  0.3566 -0.2188
    6CHTO  H149 2273   4.377   3.701   1.812  1.0919 -0.7613 -0.9942
    6CHTO   C88 2274   4.354   3.876   1.937 -0.4219  0.7131  0.0056
    6CHTO   O58 2275   4.302   3.963   1.818  0.1355 -0.5585 -0.2541
    6CHTO  H136 2276   4.375   4.006   1.778  0.4330 -0.5720  0.2690
    6CHTO   O51 2277   4.754   3.752   1.661 -0.3916  0.5645 -0.2324
    6CHTO   C78 2278   4.819   3.894   1.693 -0.5263  0.2289 -0.2841
    6CHTO  H150 2279   4.784   3.936   1.790  3.2678  0.7421  0.9437
    6CHTO   C80 2280   4.768   3.989   1.581 -0.0009  0.3433 -0.0666
    6CHTO  H152 2281   4.777   3.933   1.485  1.5080 -0.5093  0.5475
    6CHTO   O55 2282   4.626   4.004   1.605  0.2884 -0.2333 -0.1241
    6CHTO  H134 2283   4.585   4.058   1.540  2.9726  1.0294 -0.8507
    6CHTO   C84 2284   4.841   4.127   1.595  0.2713 -0.1271  0.6695
    6CHTO  H156 2285   4.796   4.173   1.683  0.8691  2.1771 -0.1801
    6CHTO   N15 2286   4.801   4.212   1.479 -0.1859 -0.6374 -0.4213
    6CHTO  H143 2287   4.701   4.247   1.493 -0.6477 -2.5289  1.2105
    6CHTO  H144 2288   4.871   4.293   1.481  0.1324 -0.9160  2.6297
    6CHTO   C87 2289   4.995   4.108   1.604  0.4890  0.1040 -0.2958
    6CHTO  H159 2290   5.036   4.070   1.510 -1.6980 -2.1065 -0.4091
    6CHTO   O53 2291   5.026   4.007   1.721 -0.4791  0.0205  0.1647
    6CHTO   C82 2292   4.971   3.878   1.699 -0.5767  0.9867  0.1144
    6CHTO  H154 2293   5.010   3.843   1.604  0.9239  2.2238  0.2506
    6CHTO   C89 2294   5.006   3.778   1.804 -0.1835 -0.6703 -0.2087
    6CHTO   O59 2295   5.126   3.815   1.868  0.0358 -0.4756  0.0281
    6CHTO  H137 2296   5.101   3.885   1.925 -0.6946 -0.0704 -0.8018
    6CHTO   O45 2297   5.085   4.240   1.639  0.2118  1.0602 -0.1329
    6CHTO   C67 2298   5.222   4.223   1.598  0.8853 -0.9005 -0.0711
    6CHTO  H124 2299   5.251   4.118   1.597 -0.3117 -1.2343 -0.2225
    6CHTO   C65 2300   5.240   4.288   1.454 -0.4022 -0.3326  0.0437
    6CHTO  H122 2301   5.158   4.250   1.393 -1.1147 -1.6950  1.8106
    6CHTO   O44 2302   5.366   4.249   1.391 -0.4984  0.1977  0.1719
    6CHTO  H102 2303   5.388   4.297   1.314 -0.5780  0.2010  0.1508
    6CHTO   C63 2304   5.217   4.446   1.455 -0.3536 -0.0204 -0.1169
    6CHTO  H120 2305   5.117   4.467   1.494 -0.3919  1.5338 -1.0318
    6CHTO   N11 2306   5.205   4.508   1.318 -0.2476  0.4673 -0.3093
    6CHTO  H108 2307   5.299   4.533   1.275 -0.2350 -0.2301 -0.6914
    6CHTO  H109 2308   5.143   4.441   1.262 -0.6351 -0.4973  1.2592
    6CHTO   C61 2309   5.314   4.513   1.567 -0.3961 -0.2776 -0.1101
    6CHTO  H118 2310   5.257   4.606   1.580 -0.4167  0.0369 -2.2043
    6CHTO   O40 2311   5.314   4.437   1.697 -0.6484  0.8140 -0.5077
    6CHTO   C68 2312   5.317   4.290   1.699  0.1744 -0.6545 -0.5132
    6CHTO  H125 2313   5.278   4.257   1.798 -1.2949 -1.2166 -1.2652
    6CHTO   C72 2314   5.461   4.240   1.688 -0.0291  0.9513  0.2680
    6CHTO   O48 2315   5.480   4.103   1.733 -0.1194  0.4737  0.1216
    6CHTO  H105 2316   5.546   4.056   1.686 -0.3733 -1.6026  1.7852
    6CHTO   O38 2317   5.450   4.536   1.533 -0.1956  0.3527  0.0475
    6CHTO   C55 2318   5.502   4.666   1.573  0.1906 -0.3309 -0.0208
    6CHTO  H112 2319   5.421   4.725   1.618  0.7466  0.8970 -0.6204
    6CHTO   C56 2320   5.561   4.737   1.452  0.1766  0.1743  0.4622
    6CHTO  H113 2321   5.624   4.658   1.407  0.0458  0.3601 -0.0580
    6CHTO   O42 2322   5.451   4.760   1.366  0.3541  0.0232 -0.3972
    6CHTO  H100 2323   5.471   4.761   1.274 -1.1743 -5.1368 -0.9363
    6CHTO   C57 2324   5.641   4.865   1.498 -0.8791 -0.9281 -0.2379
    6CHTO  H114 2325   5.564   4.940   1.514 -0.1222 -0.1142 -0.3599
    6CHTO   N10 2326   5.707   4.919   1.379 -0.8829 -0.0825  0.2270
    6CHTO  H106 2327   5.673   5.020   1.357 -1.4128 -0.5096 -0.9438
    6CHTO  H107 2328   5.813   4.924   1.401 -0.8368  0.0074 -0.0158
    6CHTO   C58 2329   5.730   4.839   1.623 -0.3360  0.4284 -0.1760
    6CHTO  H115 2330   5.815   4.771   1.601 -0.9139 -0.5951  0.6641
    6CHTO   O37 2331   5.660   4.774   1.728  0.3526 -0.1148  0.6529
    6CHTO   C59 2332   5.603   4.649   1.689 -0.5578  0.2222  0.0740
    6CHTO  H116 2333   5.681   4.577   1.664 -1.1751 -0.5448  0.3201
    6CHTO   C70 2334   5.550   4.593   1.821 -0.3782  0.0575  0.2537
    6CHTO   O46 2335   5.649   4.507   1.893  0.3176 -1.0707 -0.2262
    6CHTO  H103 2336   5.709   4.465   1.835 -1.7084  1.3154 -4.2436
    6CHTO   O39 2337   5.779   4.966   1.675 -0.0897 -0.6988  0.1576
    6CHTO   C60 2338   5.926   4.987   1.694 -0.4628  0.6606 -0.2535
    6CHTO  H117 2339   5.981   4.899   1.661 -4.8633 -1.5097 -2.1282
    6CHTO   C62 2340   5.981   5.114   1.609 -0.2148 -0.5171 -0.1642
    6CHTO  H119 2341   5.960   5.084   1.504  0.9179  1.7811 -1.0687
    6CHTO   O43 2342   5.908   5.226   1.651 -0.1140 -0.3935 -0.7145
    6CHTO  H101 2343   5.895   5.280   1.575  1.3560 -1.9778 -2.1486
    6CHTO   C66 2344   6.146   5.123   1.623 -0.3292 -0.0286 -0.2560
    6CHTO  H123 2345   6.189   5.032   1.583  0.7182  0.3461  0.0023
    6CHTO   N12 2346   6.206   5.215   1.523  0.2165  0.0665  0.0280
    6CHTO  H110 2347   6.140   5.281   1.469 -0.9275  0.1399  1.4786
    6CHTO  H111 2348   6.297   5.261   1.559 -1.2593 -0.0770  4.2785
    6CHTO   C69 2349   6.181   5.146   1.774 -0.0700 -0.5050  0.1672
    6CHTO  H126 2350   6.131   5.241   1.800  1.2042  0.1572  0.2443
    6CHTO   O41 2351   6.115   5.014   1.864 -0.7881  0.0606  0.0097
    6CHTO   C64 2352   5.953   5.005   1.849 -0.0387  0.5548  0.3461
    6CHTO  H121 2353   5.903   5.099   1.881 -0.7626  0.7238 -1.1927
    6CHTO   C71 2354   5.899   4.884   1.940  0.2289  0.2842 -0.0593
    6CHTO   O47 2355   5.942   4.758   1.897  0.0291  0.0501 -0.2041
    6CHTO  H104 2356   5.876   4.698   1.925 -3.0418  3.2291 -0.1807
    6CHTO   O34 2357   6.341   5.147   1.810  0.2579  0.1930 -0.5348
    6CHTO   C49 2358   6.466   5.224   1.797 -0.4010 -0.0796  0.1600
    6CHTO   H91 2359   6.433   5.292   1.719  1.5757 -1.1206 -1.6689
    6CHTO   C47 2360   6.582   5.140   1.741  0.6023 -1.0096 -0.6753
    6CHTO   H89 2361   6.667   5.208   1.721  1.0777 -1.0838  0.9933
    6CHTO   O33 2362   6.541   5.096   1.614 -0.4902  0.6305  0.0035
    6CHTO   H70 2363   6.612   5.051   1.572 -1.2312 -0.3854 -0.1768
    6CHTO   C45 2364   6.612   5.022   1.841  0.6883 -0.8225  0.4380
    6CHTO   H87 2365   6.525   4.961   1.873 -0.9929 -0.3359 -3.0221
    6CHTO    N8 2366   6.716   4.929   1.793 -0.0120  0.1512 -0.0109
    6CHTO   H75 2367   6.679   4.896   1.697 -0.3441 -0.1150  0.2053
    6CHTO   H76 2368   6.805   4.985   1.769  1.5876 -2.1953  0.2734
    6CHTO   C43 2369   6.656   5.089   1.983  0.1075  0.6541  0.0893
    6CHTO   H85 2370   6.666   5.009   2.056  1.5037  0.7241 -0.0121
    6CHTO   O29 2371   6.559   5.192   2.028 -0.2032  0.5184 -0.1472
    6CHTO   C50 2372   6.515   5.287   1.926 -0.1857 -0.1597 -0.2082
    6CHTO   H92 2373   6.433   5.343   1.972 -0.7750 -1.8946  0.9008
    6CHTO   C54 2374   6.614   5.408   1.898 -0.4474  0.1641 -0.3908
    6CHTO   O36 2375   6.621   5.497   2.009 -0.1539  0.0624  0.0105
    6CHTO   H72 2376   6.592   5.583   1.986  1.1541  0.3814 -0.5245
    6CHTO   O27 2377   6.781   5.157   1.974 -0.8927  0.2694  0.2072
    6CHTO   C37 2378   6.905   5.162   2.049 -0.6620  0.7169  0.0668
    6CHTO   H79 2379   6.923   5.067   2.100  3.0748  2.1092  1.5416
    6CHTO   C38 2380   7.030   5.188   1.958  0.3036  0.0717 -0.1766
    6CHTO   H80 2381   7.014   5.282   1.903  1.7267  0.7840  0.5986
    6CHTO   O31 2382   7.030   5.077   1.866 -0.4465 -0.9048  0.3089
    6CHTO   H68 2383   6.978   5.095   1.790 -1.1391 -0.3124  0.9171
    6CHTO   C39 2384   7.164   5.203   2.042 -0.0966 -0.4078 -0.8404
    6CHTO   H81 2385   7.176   5.105   2.089 -1.1829 -0.5034 -0.7599
    6CHTO    N7 2386   7.288   5.235   1.967 -0.2893  0.2861  0.5083
    6CHTO   H73 2387   7.375   5.227   2.031  0.7621  0.1335 -0.9059
    6CHTO   H74 2388   7.281   5.330   1.916  0.2265 -0.2599 -0.6039
    6CHTO   C40 2389   7.145   5.300   2.168 -0.0299  0.2588 -0.2695
    6CHTO   H82 2390   7.140   5.406   2.146 -1.1716  0.2836  0.0698
    6CHTO   O26 2391   7.029   5.257   2.240  0.4603  0.0215  0.2493
    6CHTO   C41 2392   6.903   5.267   2.167  0.0914  0.2362 -0.2918
    6CHTO   H83 2393   6.903   5.363   2.114  2.4102  0.8025  0.6779
    6CHTO   C52 2394   6.777   5.266   2.252 -0.0722  0.4864  0.0806
    6CHTO   O35 2395   6.770   5.143   2.344 -0.0580  0.7032 -0.0812
    6CHTO   H71 2396   6.750   5.064   2.297  0.0226  1.2587 -1.0594
    6CHTO   O28 2397   7.258   5.299   2.262 -0.6080  0.0108 -0.0010
    6CHTO   C42 2398   7.271   5.402   2.367 -0.1092 -0.3571  0.5254
    6CHTO   H84 2399   7.169   5.442   2.368 -0.7829 -1.9432 -1.6958
    6CHTO   C44 2400   7.369   5.514   2.332  0.2536 -0.3180  0.0311
    6CHTO   H86 2401   7.470   5.474   2.323 -0.1761 -1.3190 -0.4580
    6CHTO   O32 2402   7.325   5.575   2.208  0.1414  0.4504  0.2365
    6CHTO   H69 2403   7.302   5.508   2.146  0.0884 -1.1837  1.9642
    6CHTO   C48 2404   7.381   5.621   2.446 -0.4169  0.3305  0.3849
    6CHTO   H90 2405   7.288   5.678   2.443 -1.2505 -1.0904 -2.6232
    6CHTO    N9 2406   7.492   5.723   2.420 -0.6608  0.0800  0.3295
    6CHTO   H77 2407   7.517   5.768   2.515 -0.6522 -0.8681  0.7789
    6CHTO   H78 2408   7.460   5.800   2.351 -0.0004  1.4233  1.5076
    6CHTO   C51 2409   7.389   5.556   2.596  0.8955  0.5350  0.4848
    6CHTO   H93 2410   7.482   5.501   2.613  1.1783  0.5607 -0.8509
    6CHTO   O30 2411   7.274   5.465   2.599 -0.3972 -0.3011  0.0020
    6CHTO   C46 2412   7.303   5.352   2.510  0.0869 -0.0199  0.0833
    6CHTO   H88 2413   7.407   5.323   2.525  1.0336  2.2467 -1.7627
    6CHTO   C53 2414   7.198   5.242   2.549 -0.5568 -1.6842 -0.6894
    6CHTO   O72 2415   7.255   5.153   2.639  0.1858 -0.2508  0.2404
    6CHTO  H199 2416   7.191   5.085   2.647 -0.5988  0.4464 -0.1182
    6CHTO   O22 2417   7.390   5.654   2.700 -0.5346 -0.0405  0.1262
    6CHTO   C31 2418   7.311   5.658   2.828 -0.6514  0.2672  0.3611
    6CHTO   H59 2419   7.206   5.635   2.802 -0.3333 -1.6876  0.7597
    6CHTO   C29 2420   7.353   5.555   2.939  0.1499 -0.6967  0.0012
    6CHTO   H57 2421   7.461   5.564   2.955  0.3188 -1.5843 -0.5619
    6CHTO   O21 2422   7.339   5.424   2.891  0.8848 -0.2227  0.3011
    6CHTO   H37 2423   7.250   5.396   2.891  1.0255 -0.6775  0.3190
    6CHTO   C27 2424   7.276   5.587   3.073  0.8728 -0.4411 -1.0713
    6CHTO   H55 2425   7.169   5.563   3.067  0.3033  1.1800  1.6343
    6CHTO    N5 2426   7.334   5.504   3.183 -0.1641 -0.2878 -0.1005
    6CHTO   H43 2427   7.374   5.568   3.260 -1.2375  0.8482 -0.4629
    6CHTO   H44 2428   7.264   5.427   3.214  2.8317 -2.0098  2.7644
    6CHTO   C25 2429   7.285   5.740   3.113 -0.1936 -0.6926 -0.6320
    6CHTO   H53 2430   7.391   5.759   3.134 -0.3063  0.1194 -0.7728
    6CHTO   O17 2431   7.237   5.816   2.996 -0.0625  0.1826 -0.8067
    6CHTO   C32 2432   7.314   5.804   2.879  0.0242 -0.4656  0.1793
    6CHTO   H60 2433   7.414   5.837   2.909 -0.8780  1.6249  0.9722
    6CHTO   C36 2434   7.255   5.907   2.779  0.1822  0.2970 -0.4379
    6CHTO   O25 2435   7.242   6.039   2.836 -0.2857 -0.1892  0.6414
    6CHTO   H40 2436   7.219   6.033   2.927  0.1892  2.5003  0.9801
    6CHTO   O15 2437   7.186   5.782   3.236  0.0716 -0.0600 -0.0610
    6CHTO   C19 2438   7.058   5.857   3.260 -0.3242 -0.0690 -0.0626
    6CHTO   H47 2439   7.028   5.833   3.363  1.8111 -0.8459  0.4132
    6CHTO   C20 2440   7.080   6.006   3.256  0.0956  0.1277  0.8387
    6CHTO   H48 2441   7.108   6.044   3.156  1.4911  0.5169  1.3615
    6CHTO   O19 2442   7.183   6.033   3.355  0.5550  0.3755  0.5609
    6CHTO   H35 2443   7.263   5.992   3.327  1.5083  2.8750 -0.5564
    6CHTO   C21 2444   6.947   6.089   3.298 -1.0657  0.4877 -0.1668
    6CHTO   H49 2445   6.930   6.073   3.405  1.7575  1.1473  0.4405
    6CHTO    N4 2446   6.971   6.236   3.302 -0.8023  0.1858  0.3903
    6CHTO   H41 2447   7.071   6.251   3.339 -0.5942  0.6093 -0.3300
    6CHTO   H42 2448   6.954   6.284   3.207 -0.8543 -0.0222  0.2930
    6CHTO   C22 2449   6.830   6.042   3.203 -0.3006  0.4084 -0.2031
    6CHTO   H50 2450   6.838   6.095   3.108 -0.4001  0.2275 -0.3123
    6CHTO   O14 2451   6.825   5.895   3.206 -0.1068 -0.0262  0.9486
    6CHTO   C23 2452   6.937   5.818   3.164 -0.5944  0.4393 -0.5734
    6CHTO   H51 2453   6.962   5.832   3.058  1.9782 -3.0681 -0.5278
    6CHTO   C34 2454   6.910   5.664   3.177 -0.2343  0.1404  0.7639
    6CHTO   O23 2455   6.789   5.620   3.112 -0.0569  0.0205 -0.9943
    6CHTO   H38 2456   6.719   5.614   3.175  0.3652  0.0539 -0.5172
    6CHTO   O16 2457   6.697   6.080   3.258  0.3184 -0.3038  0.6177
    6CHTO   C24 2458   6.590   6.114   3.154 -0.2096  0.4946 -0.3099
    6CHTO   H52 2459   6.628   6.097   3.053 -0.8093  0.6858 -0.5662
    6CHTO   C26 2460   6.556   6.263   3.155 -0.7948  0.1904 -0.4783
    6CHTO   H54 2461   6.532   6.292   3.259  1.3174 -1.3947  0.4948
    6CHTO   O20 2462   6.679   6.337   3.143  0.5779 -0.6575 -0.4112
    6CHTO   H36 2463   6.724   6.344   3.225 -1.5681  0.4040  0.7175
    6CHTO   C30 2464   6.443   6.298   3.060 -0.3418  0.0401 -0.1619
    6CHTO   H58 2465   6.480   6.297   2.957 -1.3018 -0.4510 -0.5109
    6CHTO    N6 2466   6.399   6.437   3.085  0.9660 -0.2053 -0.1874
    6CHTO   H45 2467   6.404   6.458   3.191 -1.7445 -0.9809  0.1521
    6CHTO   H46 2468   6.465   6.507   3.037  2.6638 -1.3786  0.4142
    6CHTO   C33 2469   6.326   6.197   3.073 -0.1630  0.0967  0.1977
    6CHTO   H61 2470   6.271   6.223   3.164 -0.1566  0.0770  0.2073
    6CHTO   O18 2471   6.366   6.055   3.077 -1.2294  0.1489  0.8159
    6CHTO   C28 2472   6.461   6.027   3.178  0.1578  0.0063 -0.3797
    6CHTO   H56 2473   6.419   6.057   3.274  2.0652  1.4389  0.0357
    6CHTO   C35 2474   6.488   5.875   3.182  0.5553 -0.1096 -0.1589
    6CHTO   O24 2475   6.551   5.828   3.298  0.7214  0.0300 -0.1602
    6CHTO   H39 2476   6.644   5.828   3.296  0.7367 -1.7325  0.2292
    6CHTO    O9 2477   6.231   6.224   2.964 -0.1081 -0.7616  0.7653
    6CHTO   C13 2478   6.077   6.192   3.020  0.6716 -1.1151  0.6326
    6CHTO   H26 2479   6.068   6.227   3.125  2.3626 -0.5450  0.5973
    6CHTO   C11 2480   6.046   6.034   3.003 -0.3333 -0.2317  0.0942
    6CHTO   H24 2481   6.119   5.976   3.061  1.1727  2.4287  0.9397
    6CHTO    O8 2482   6.055   5.978   2.871 -0.3122 -0.4039 -0.6001
    6CHTO    H3 2483   5.983   5.919   2.859 -0.8514 -0.2394  1.5583
    6CHTO    C9 2484   5.904   6.015   3.062 -0.0392  0.2994 -0.3701
    6CHTO   H22 2485   5.911   6.055   3.165 -3.2892 -2.2125  0.9296
    6CHTO    N2 2486   5.865   5.871   3.082 -0.3647 -0.2989  0.1274
    6CHTO   H10 2487   5.774   5.869   3.140 -0.7242 -1.1656 -0.4563
    6CHTO   H11 2488   5.843   5.820   2.989  2.0281 -2.1701  0.5535
    6CHTO    C7 2489   5.798   6.104   2.976 -0.2431  0.4528  0.6329
    6CHTO   H20 2490   5.738   6.152   3.056  0.2467  1.2300  0.5407
    6CHTO    O4 2491   5.866   6.185   2.875 -0.1813 -0.2342 -0.1260
    6CHTO   C14 2492   5.967   6.271   2.938  0.4577  0.6648  0.3856
    6CHTO   H27 2493   5.912   6.327   3.016  0.7778 -0.8261  1.7244
    6CHTO   C18 2494   6.028   6.370   2.833  0.4639 -0.0508 -0.0679
    6CHTO   O13 2495   6.072   6.301   2.717 -0.3200  0.4156  0.6399
    6CHTO    H7 2496   6.006   6.243   2.684  1.6313 -1.5549  0.0557
    6CHTO    O2 2497   5.682   6.006   2.893 -0.2671 -0.1451  0.6188
    6CHTO    C1 2498   5.549   6.063   2.901  0.7386 -0.0310  0.0629
    6CHTO   H14 2499   5.554   6.148   2.972  0.5386  0.3661 -0.3975
    6CHTO    C2 2500   5.434   5.966   2.952  0.5120  0.2089 -0.4258
    6CHTO   H15 2501   5.428   5.878   2.887  2.2961 -1.1092  1.1471
    6CHTO    O6 2502   5.471   5.931   3.084 -0.1343  0.1711 -0.2327
    6CHTO    H1 2503   5.468   5.837   3.093  0.3809  0.2844  1.1851
    6CHTO    C3 2504   5.289   6.037   2.961 -0.0371  0.3995 -0.0868
    6CHTO   H16 2505   5.271   6.115   3.037 -0.0752  0.4485 -0.1458
    6CHTO    N1 2506   5.181   5.942   2.988  0.2169  0.2163 -0.5864
    6CHTO    H8 2507   5.211   5.844   2.953  0.4567 -0.7463  2.2072
    6CHTO    H9 2508   5.164   5.937   3.094 -1.1622  0.5778 -0.7883
    6CHTO    C4 2509   5.264   6.106   2.822  0.5578  0.4452 -0.1387
    6CHTO   H17 2510   5.246   6.029   2.746 -1.4813 -0.3540  1.1198
    6CHTO    O1 2511   5.376   6.190   2.798  0.4696  0.1788 -0.5205
    6CHTO    C5 2512   5.501   6.133   2.773  0.1144  0.1165 -0.5339
    6CHTO   H18 2513   5.483   6.053   2.701  2.0375 -1.2425  0.4572
    6CHTO   C16 2514   5.596   6.245   2.705  0.1183  0.2748 -0.2795
    6CHTO   O11 2515   5.539   6.283   2.583 -0.3093 -0.2669  0.3409
    6CHTO    H5 2516   5.514   6.373   2.580 -1.4812 -0.5531  1.1131
    6CHTO    O3 2517   5.151   6.202   2.828  0.1732  0.3894  0.2962
    6CHTO    C6 2518   5.084   6.249   2.709  0.5208 -0.0332 -0.5284
    6CHTO   H19 2519   4.997   6.309   2.738  2.0333  2.1020 -0.2822
    6CHTO    C8 2520   5.174   6.329   2.619 -0.1495 -0.5371  0.2663
    6CHTO   H21 2521   5.256   6.264   2.589 -1.5710 -2.3700  0.2885
    6CHTO    O7 2522   5.234   6.435   2.698  0.3436  0.4679 -0.0393
    6CHTO    H2 2523   5.306   6.477   2.655 -1.3894  2.6872 -0.8864
    6CHTO   C12 2524   5.092   6.387   2.494  0.2871  0.7180 -0.8501
    6CHTO   H25 2525   5.019   6.458   2.539  0.4758  1.8105 -2.2127
    6CHTO    N3 2526   5.178   6.457   2.392 -0.5581  0.5331  0.3132
    6CHTO   H12 2527   5.241   6.537   2.429 -1.5588  1.2641  0.4657
    6CHTO   H13 2528   5.109   6.496   2.319 -1.6166 -0.5923  0.6899
    6CHTO   C15 2529   4.996   6.268   2.431 -0.7806  0.4877  0.5213
    6CHTO   H28 2530   5.055   6.209   2.361 -0.1015  0.4169  1.1499
    6CHTO   O10 2531   4.868   6.341   2.361 -0.2946  0.1952  0.2163
    6CHTO    H4 2532   4.902   6.418   2.321 -0.8749  0.5134  0.3392
    6CHTO    O5 2533   4.937   6.188   2.527  0.8215 -0.0062  0.2227
    6CHTO   C10 2534   5.019   6.133   2.633  0.5801 -0.6706  0.0009
    6CHTO   H23 2535   5.089   6.066   2.584 -0.7503 -3.0562  1.2860
    6CHTO   C17 2536   4.934   6.028   2.704 -0.2074  0.2021  0.6482
    6CHTO   O12 2537   4.890   5.917   2.629 -0.3291 -0.0325  0.1769
    6CHTO    H6 2538   4.875   5.842   2.684  0.3170 -1.1004 -1.0621
    7CHTO  H203 2539   4.568   1.219   0.516  0.3203 -1.8676  2.3186
    7CHTO   O82 2540   4.588   1.145   0.462  0.1221 -0.1248 -0.2209
    7CHTO  C123 2541   4.691   1.191   0.377 -0.1670 -0.4374  0.6016
    7CHTO  H227 2542   4.706   1.123   0.291 -3.3241  1.8415 -1.8615
    7CHTO   O77 2543   4.643   1.312   0.310  0.1763 -0.3906  0.1915
    7CHTO  C118 2544   4.722   1.377   0.212  0.8574 -0.1506 -0.1087
    7CHTO  H222 2545   4.746   1.318   0.122  2.3526  1.0961 -0.5481
    7CHTO  C125 2546   4.633   1.507   0.174  0.3778 -0.3625 -0.0976
    7CHTO   O84 2547   4.513   1.469   0.099  0.2671  0.5379  0.0314
    7CHTO  H205 2548   4.431   1.479   0.144 -0.0704  3.9779 -1.2390
    7CHTO  C114 2549   4.847   1.432   0.280  0.1230 -0.3960 -0.0126
    7CHTO  H218 2550   4.809   1.495   0.360 -2.0257 -1.1357 -0.4288
    7CHTO  C116 2551   4.922   1.311   0.351 -0.2818 -0.4412 -0.3710
    7CHTO  H220 2552   4.979   1.257   0.272 -2.2980  1.1566 -2.9763
    7CHTO   O79 2553   5.038   1.364   0.428  0.1777  0.3297  0.1188
    7CHTO  H201 2554   5.086   1.305   0.482  2.1049  0.6433 -1.2228
    7CHTO  C120 2555   4.832   1.222   0.445 -0.3068 -0.4637 -0.3627
    7CHTO  H224 2556   4.814   1.285   0.535 -1.6198  0.7510 -1.4550
    7CHTO   N21 2557   4.897   1.094   0.487 -0.3204 -0.5747 -0.6999
    7CHTO  H211 2558   4.971   1.107   0.564  1.5401  0.1458 -2.5757
    7CHTO  H212 2559   4.942   1.030   0.412  1.3296 -0.2956  0.0261
    7CHTO   O75 2560   4.923   1.497   0.174 -0.0857  0.1369 -0.6826
    7CHTO  C112 2561   5.040   1.601   0.206  0.2208  0.7202  0.1348
    7CHTO  H216 2562   5.132   1.543   0.220 -0.1381 -0.1540 -1.0857
    7CHTO   O73 2563   5.004   1.678   0.324 -0.4912  0.0600  0.0658
    7CHTO  C113 2564   5.114   1.752   0.370  0.0357 -0.8116  0.4922
    7CHTO  H217 2565   5.202   1.687   0.384  1.0941  0.6600  0.8197
    7CHTO  C124 2566   5.068   1.814   0.504  0.2974  0.6666 -0.4032
    7CHTO   O83 2567   5.163   1.904   0.569 -0.7469  0.3230  0.3842
    7CHTO  H204 2568   5.110   1.978   0.591  0.5832  0.3761  3.5697
    7CHTO  C109 2569   5.133   1.870   0.261 -0.1691  0.5871  0.3058
    7CHTO  H213 2570   5.043   1.932   0.265 -1.4139 -1.2769  2.8889
    7CHTO  C110 2571   5.160   1.815   0.126  0.4225 -0.3095  0.1693
    7CHTO  H214 2572   5.260   1.773   0.134  0.6184  0.1193  0.0047
    7CHTO   O78 2573   5.148   1.924   0.031  0.1062 -0.2355  0.1447
    7CHTO  H200 2574   5.070   1.976   0.040 -0.2602 -0.5558 -1.0550
    7CHTO  C111 2575   5.064   1.701   0.082 -0.8220  0.8592  0.2066
    7CHTO  H215 2576   4.962   1.741   0.068 -1.7296 -0.9254  1.4946
    7CHTO   N19 2577   5.105   1.625  -0.039 -0.0939 -0.2473 -0.6312
    7CHTO  H207 2578   5.121   1.695  -0.120  0.0550  0.8459  0.3254
    7CHTO  H208 2579   5.034   1.544  -0.052 -1.2207  0.6760 -0.3083
    7CHTO   O74 2580   5.246   1.953   0.311 -0.1998  0.0064 -0.2181
    7CHTO  C115 2581   5.251   2.085   0.244  0.5233 -0.0074 -0.0477
    7CHTO  H219 2582   5.171   2.100   0.172  1.0661  0.9900 -0.4628
    7CHTO   O76 2583   5.232   2.200   0.351  0.2134  0.2999  0.0967
    7CHTO  C122 2584   5.342   2.190   0.445  0.4863 -0.8333 -1.0714
    7CHTO  H226 2585   5.334   2.091   0.491  2.7997 -0.7616 -0.4664
    7CHTO  C126 2586   5.313   2.283   0.564  0.8738 -0.0402 -0.3696
    7CHTO   O85 2587   5.215   2.229   0.653 -0.1828  0.1657 -0.0943
    7CHTO  H206 2588   5.131   2.229   0.611 -0.8820  0.9454  1.2619
    7CHTO  C121 2589   5.484   2.217   0.372  0.6483  0.5040  0.0944
    7CHTO  H225 2590   5.492   2.315   0.321  1.3103  0.4212  0.0262
    7CHTO   O81 2591   5.589   2.234   0.464 -0.9221  0.5208  0.2781
    7CHTO  H202 2592   5.580   2.171   0.533  0.0918  0.6350  0.5187
    7CHTO  C119 2593   5.508   2.106   0.272  0.0295 -0.0787  0.3995
    7CHTO  H223 2594   5.606   2.132   0.234  0.8391 -0.2673  2.2755
    7CHTO  C117 2595   5.386   2.091   0.164  0.3902  0.5767 -0.5815
    7CHTO  H221 2596   5.377   2.010   0.092 -0.1365 -0.8734  1.0776
    7CHTO   N20 2597   5.389   2.214   0.073  0.3269  0.5802 -0.2194
    7CHTO  H209 2598   5.425   2.297   0.132  1.0828 -1.0555  1.6765
    7CHTO  H210 2599   5.464   2.198  -0.003 -1.2973 -0.0962 -1.7394
    7CHTO   O80 2600   5.534   1.979   0.339 -0.7124  0.0181 -0.0887
    7CHTO  C103 2601   5.549   1.845   0.261  0.8265 -0.3646  0.1685
    7CHTO  H190 2602   5.455   1.823   0.209  0.4663  1.7393 -0.1193
    7CHTO  C101 2603   5.664   1.843   0.151 -0.7385 -0.6171  0.0769
    7CHTO  H188 2604   5.756   1.865   0.204 -0.4319 -2.6798  0.4296
    7CHTO   O68 2605   5.637   1.943   0.040  0.1700  0.5275 -0.6552
    7CHTO  H168 2606   5.547   1.957   0.016  0.5076  1.7706 -1.2285
    7CHTO   C99 2607   5.683   1.694   0.094 -0.5435 -0.3123  0.1549
    7CHTO  H186 2608   5.599   1.660   0.030 -0.5132  1.6656 -0.9774
    7CHTO   N17 2609   5.809   1.682   0.013  0.6088 -0.2292  0.2002
    7CHTO  H174 2610   5.833   1.581  -0.018 -1.0102 -0.6599  0.3494
    7CHTO  H175 2611   5.895   1.734   0.053  1.6312 -1.0034 -0.9203
    7CHTO   C97 2612   5.693   1.594   0.215  0.9797 -0.2221 -0.1484
    7CHTO  H184 2613   5.787   1.615   0.269 -0.3831  0.8516  1.8577
    7CHTO   O64 2614   5.578   1.606   0.297 -0.0827 -0.2500  0.1601
    7CHTO  C104 2615   5.577   1.732   0.369 -0.1890 -0.6207 -0.2158
    7CHTO  H191 2616   5.664   1.758   0.429  0.2448 -2.5629  0.0581
    7CHTO  C108 2617   5.456   1.728   0.462 -0.4497  0.2298  1.1647
    7CHTO   O71 2618   5.470   1.626   0.557  0.3245 -0.0351  0.5462
    7CHTO  H171 2619   5.512   1.656   0.634  0.5389 -0.7440  0.7095
    7CHTO   O62 2620   5.689   1.453   0.185 -0.3791 -0.4109  0.0289
    7CHTO   C91 2621   5.610   1.393   0.076 -0.0053 -0.0417  0.3202
    7CHTO  H178 2622   5.612   1.461  -0.009 -1.8132  0.4243  0.6397
    7CHTO   C92 2623   5.462   1.375   0.119 -0.4777  1.0295  0.1569
    7CHTO  H179 2624   5.427   1.475   0.147 -0.1375  1.2878 -0.3138
    7CHTO   O66 2625   5.379   1.344   0.004 -0.3010  0.0280  0.3093
    7CHTO  H166 2626   5.366   1.426  -0.039  1.3484  0.1280 -0.0341
    7CHTO   C93 2627   5.432   1.269   0.235  0.3419 -0.1066  0.1593
    7CHTO  H180 2628   5.326   1.241   0.231  0.7027 -1.3963 -1.1198
    7CHTO   N16 2629   5.447   1.314   0.375  0.1391  0.1007 -0.7810
    7CHTO  H172 2630   5.545   1.355   0.393  0.3217 -0.9422  0.7574
    7CHTO  H173 2631   5.370   1.388   0.393 -2.9209 -2.6025 -2.2168
    7CHTO   C94 2632   5.522   1.144   0.197  1.0866  0.2694  0.0879
    7CHTO  H181 2633   5.610   1.134   0.261  1.3755  1.5654 -0.0753
    7CHTO   O61 2634   5.573   1.139   0.057 -0.0386 -0.2713  0.3256
    7CHTO   C95 2635   5.664   1.251   0.030  0.4865  0.0792 -0.3277
    7CHTO  H182 2636   5.762   1.231   0.076  1.1521  0.2466 -1.6595
    7CHTO  C106 2637   5.689   1.246  -0.126  0.0917  0.7162  0.2233
    7CHTO   O69 2638   5.818   1.314  -0.146  0.2027 -0.7214 -0.1413
    7CHTO  H169 2639   5.802   1.406  -0.155  0.8085 -0.3893  1.7671
    7CHTO   O63 2640   5.439   1.041   0.210  0.1709  0.3330 -0.4464
    7CHTO   C96 2641   5.490   0.924   0.290  0.5351 -0.2547  0.3770
    7CHTO  H183 2642   5.518   0.965   0.386  0.2763 -0.2044  0.4314
    7CHTO   C98 2643   5.631   0.858   0.242 -0.4780  0.4160  0.0412
    7CHTO  H185 2644   5.696   0.936   0.199 -2.1525  1.9153  0.1584
    7CHTO   O67 2645   5.701   0.805   0.355 -0.1700  0.3185 -0.1036
    7CHTO  H167 2646   5.646   0.755   0.412 -0.2976  1.0744  0.4416
    7CHTO  C102 2647   5.613   0.734   0.142 -0.7962  0.3787  0.7599
    7CHTO  H189 2648   5.704   0.674   0.158 -1.2286 -0.4263  0.2272
    7CHTO   N18 2649   5.626   0.786   0.003 -0.5010  0.3865  0.6297
    7CHTO  H176 2650   5.723   0.833  -0.004 -1.1837  1.9554  1.4020
    7CHTO  H177 2651   5.542   0.848  -0.023 -0.8670 -0.4534 -0.2062
    7CHTO  C105 2652   5.484   0.650   0.163  0.3457 -0.1737  0.2037
    7CHTO  H192 2653   5.410   0.677   0.087  0.2735 -2.7523 -0.6995
    7CHTO   O65 2654   5.425   0.677   0.297 -0.4846 -0.0803  0.1371
    7CHTO  C100 2655   5.373   0.815   0.323  0.2629 -0.1469 -0.2299
    7CHTO  H187 2656   5.295   0.833   0.247  1.4330  0.0993 -1.3700
    7CHTO  C107 2657   5.313   0.831   0.469 -0.3323 -0.3522  0.2888
    7CHTO   O70 2658   5.406   0.788   0.567 -0.6060 -0.0590 -0.3015
    7CHTO  H170 2659   5.372   0.814   0.651 -2.5390 -0.9879 -0.7784
    7CHTO   O57 2660   5.516   0.491   0.147 -0.3507 -0.3703 -0.0678
    7CHTO   C85 2661   5.412   0.400   0.100 -0.0535 -0.4359  0.6864
    7CHTO  H157 2662   5.363   0.457   0.018 -1.0978  2.3806  3.2002
    7CHTO   C83 2663   5.309   0.376   0.208  0.4157  0.1682 -0.5421
    7CHTO  H155 2664   5.263   0.470   0.239 -0.5961 -1.0127  1.6275
    7CHTO   O56 2665   5.366   0.319   0.327 -0.0595 -0.2585 -0.0150
    7CHTO  H135 2666   5.302   0.321   0.395 -0.4982 -1.0591 -0.3881
    7CHTO   C81 2667   5.197   0.286   0.147 -0.4319 -0.1920  0.0912
    7CHTO  H153 2668   5.159   0.337   0.058  1.1354 -1.3875 -1.2880
    7CHTO   N14 2669   5.084   0.285   0.243  0.3483 -0.1411  0.4817
    7CHTO  H141 2670   5.108   0.324   0.340  0.7728 -0.4866  0.5164
    7CHTO  H142 2671   4.997   0.337   0.209 -0.6298 -1.0101  1.5807
    7CHTO   C79 2672   5.250   0.149   0.106 -0.0586 -0.1262  0.9370
    7CHTO  H151 2673   5.174   0.101   0.044  0.4146  1.4945 -0.9618
    7CHTO   O52 2674   5.366   0.163   0.019 -0.6027 -0.1728  0.8436
    7CHTO   C86 2675   5.470   0.267   0.053  0.0398  0.0199  0.6791
    7CHTO  H158 2676   5.526   0.218   0.135 -0.5892  1.5062  2.0355
    7CHTO   C90 2677   5.571   0.285  -0.067  0.4019  0.2899 -0.3541
    7CHTO   O60 2678   5.645   0.164  -0.101  0.0565 -0.0820  0.1886
    7CHTO  H138 2679   5.593   0.086  -0.098 -1.2152  0.5756 -2.9542
    7CHTO   O50 2680   5.286   0.055   0.210  0.0006  0.0427  0.1891
    7CHTO   C73 2681   5.330  -0.075   0.183 -0.3903 -0.0369 -0.2849
    7CHTO  H145 2682   5.398  -0.070   0.096  0.0411  1.7945  0.1274
    7CHTO   C74 2683   5.210  -0.169   0.148 -0.5383 -0.0720  0.4539
    7CHTO  H146 2684   5.161  -0.115   0.066 -1.3561  0.7110  1.4493
    7CHTO   O54 2685   5.254  -0.303   0.103 -0.4548 -0.1624 -0.0911
    7CHTO  H133 2686   5.293  -0.351   0.174 -0.0277  0.6471  0.2302
    7CHTO   C75 2687   5.119  -0.174   0.279  0.1808 -0.3355 -0.2958
    7CHTO  H147 2688   5.081  -0.073   0.300  0.1331  0.0543 -2.1893
    7CHTO   N13 2689   4.996  -0.246   0.269  0.3102  0.0938  0.3445
    7CHTO  H139 2690   4.931  -0.229   0.353 -0.0532 -0.0627  0.1001
    7CHTO  H140 2691   5.007  -0.354   0.263 -1.9666 -0.1955  0.7772
    7CHTO   C76 2692   5.207  -0.219   0.412 -0.4653 -0.3617  0.1797
    7CHTO  H148 2693   5.232  -0.325   0.409  2.0247  0.1995  0.2324
    7CHTO   O49 2694   5.334  -0.140   0.423 -0.3742 -0.0966 -0.2472
    7CHTO   C77 2695   5.407  -0.135   0.305  0.2365  0.9341  0.4002
    7CHTO  H149 2696   5.438  -0.233   0.269 -1.2427  0.4302  0.4707
    7CHTO   C88 2697   5.531  -0.056   0.334  0.7330  0.3508  0.4135
    7CHTO   O58 2698   5.633  -0.030   0.228 -0.1827 -0.0167  0.1848
    7CHTO  H136 2699   5.592   0.008   0.153  0.0678 -0.7370 -0.3216
    7CHTO   O51 2700   5.127  -0.183   0.555 -0.0719 -0.0369 -0.4991
    7CHTO   C78 2701   5.196  -0.259   0.689  0.2192  0.4210 -0.4929
    7CHTO  H150 2702   5.299  -0.293   0.667 -0.1141 -0.8602 -0.1349
    7CHTO   C80 2703   5.114  -0.384   0.722  0.4533  0.1890 -0.2303
    7CHTO  H152 2704   5.006  -0.361   0.727  0.5529  1.0626 -1.8229
    7CHTO   O55 2705   5.128  -0.472   0.607  0.1296  0.0203  0.7546
    7CHTO  H134 2706   5.090  -0.422   0.538  1.1457  0.8516  0.7798
    7CHTO   C84 2707   5.147  -0.454   0.855 -0.0039  0.1834 -0.0052
    7CHTO  H156 2708   5.254  -0.475   0.855 -0.1636 -0.6448 -0.2836
    7CHTO   N15 2709   5.086  -0.585   0.878 -0.0750  0.1623 -0.6607
    7CHTO  H143 2710   5.081  -0.644   0.789  0.7341 -0.6224 -0.2015
    7CHTO  H144 2711   5.136  -0.639   0.956 -0.0913 -1.1360 -1.5231
    7CHTO   C87 2712   5.123  -0.349   0.958  0.2939  0.4899 -0.1237
    7CHTO  H159 2713   5.021  -0.313   0.961  0.9250  2.5811 -2.4907
    7CHTO   O53 2714   5.231  -0.220   0.928  0.1614  0.1337  0.0513
    7CHTO   C82 2715   5.201  -0.156   0.804  0.0961 -0.4098 -0.5394
    7CHTO  H154 2716   5.103  -0.113   0.822  0.6331  0.4321  0.4520
    7CHTO   C89 2717   5.299  -0.034   0.781  0.0172  0.1507 -0.3954
    7CHTO   O59 2718   5.435  -0.071   0.752 -0.1804 -0.3505 -0.9005
    7CHTO  H137 2719   5.501  -0.007   0.773 -1.6773  1.0805 -0.4888
    7CHTO   O45 2720   5.148  -0.401   1.116  0.1079 -0.3856 -0.3505
    7CHTO   C67 2721   5.160  -0.292   1.209  0.2222  0.3489 -0.3104
    7CHTO  H124 2722   5.219  -0.220   1.151  0.5414 -0.9783 -1.6606
    7CHTO   C65 2723   5.023  -0.229   1.250  0.3274  0.4813 -0.0598
    7CHTO  H122 2724   4.948  -0.308   1.237  1.3787 -0.5987  0.2884
    7CHTO   O44 2725   4.999  -0.128   1.151  0.0137  0.2885  0.3941
    7CHTO  H102 2726   4.914  -0.090   1.162  0.9103  2.5878 -0.3619
    7CHTO   C63 2727   5.011  -0.190   1.398  0.4365 -1.1070 -0.4174
    7CHTO  H120 2728   5.011  -0.280   1.460  1.3828  0.0926  1.3709
    7CHTO   N11 2729   4.884  -0.121   1.434 -0.3032 -0.3511  0.3391
    7CHTO  H108 2730   4.897  -0.086   1.534  0.2403  0.5799 -0.0587
    7CHTO  H109 2731   4.877  -0.039   1.366 -0.0632  0.5350  1.3757
    7CHTO   C61 2732   5.150  -0.117   1.437  0.5133  0.7375  0.0339
    7CHTO  H118 2733   5.144  -0.078   1.539  1.0702  1.1609 -0.0916
    7CHTO   O40 2734   5.255  -0.209   1.434  0.1456  0.1529  0.5414
    7CHTO   C68 2735   5.240  -0.323   1.336  0.3919  0.5634 -0.0341
    7CHTO  H125 2736   5.180  -0.396   1.394 -0.0025  0.3502 -0.7111
    7CHTO   C72 2737   5.371  -0.390   1.305 -0.0847  0.2898  0.4538
    7CHTO   O48 2738   5.402  -0.499   1.405  0.0249  0.5016 -0.1879
    7CHTO  H105 2739   5.491  -0.493   1.435  0.1100 -0.7818 -0.1379
    7CHTO   O38 2740   5.180  -0.009   1.343 -0.6977  0.0394  0.5324
    7CHTO   C55 2741   5.261   0.101   1.402 -0.1890 -0.2866 -0.3228
    7CHTO  H112 2742   5.311   0.066   1.493 -1.2782 -0.0310  0.3818
    7CHTO   C56 2743   5.171   0.217   1.434 -0.3378  0.3993 -0.9547
    7CHTO  H113 2744   5.131   0.248   1.336 -1.7139  2.1217  0.1232
    7CHTO   O42 2745   5.071   0.169   1.518 -0.4248  0.2026  0.3756
    7CHTO  H100 2746   5.075   0.215   1.600  0.9451 -0.6349  0.8036
    7CHTO   C57 2747   5.244   0.344   1.484 -0.3175 -0.0584 -0.7043
    7CHTO  H114 2748   5.288   0.319   1.581 -0.5378  2.4390  0.0774
    7CHTO   N10 2749   5.154   0.463   1.503 -0.2070  0.5367 -0.0969
    7CHTO  H106 2750   5.193   0.535   1.574  1.3850  1.1337 -1.5413
    7CHTO  H107 2751   5.144   0.504   1.403  0.4675  1.1740  0.0903
    7CHTO   C58 2752   5.358   0.384   1.386  0.1376 -0.1182 -0.2568
    7CHTO  H115 2753   5.313   0.430   1.296 -0.3604 -0.7136 -0.3118
    7CHTO   O37 2754   5.435   0.270   1.353  0.5892 -0.1748  0.3676
    7CHTO   C59 2755   5.363   0.159   1.294  0.2404  0.3703 -0.3622
    7CHTO  H116 2756   5.321   0.181   1.196 -0.6849  2.7896  0.5475
    7CHTO   C70 2757   5.449   0.036   1.258 -0.1267  0.9243 -0.2902
    7CHTO   O46 2758   5.399  -0.052   1.159 -0.0051 -0.4083  0.4986
    7CHTO  H103 2759   5.422  -0.138   1.189  0.6857 -0.6760 -0.7570
    7CHTO   O39 2760   5.483   0.492   1.456  0.6594 -0.2045  0.2852
    7CHTO   C60 2761   5.585   0.536   1.358 -0.2609 -0.6645 -0.7239
    7CHTO  H117 2762   5.586   0.471   1.271 -1.9906 -0.2061 -1.1040
    7CHTO   C62 2763   5.551   0.678   1.303  0.0229  0.2900 -0.9105
    7CHTO  H119 2764   5.456   0.667   1.248  1.0045 -0.8966 -2.4332
    7CHTO   O43 2765   5.542   0.768   1.409 -0.4959 -0.1943  0.3420
    7CHTO  H101 2766   5.575   0.851   1.381 -0.1312  0.1839  1.8177
    7CHTO   C66 2767   5.660   0.705   1.192 -0.1577 -0.4228  0.1211
    7CHTO  H123 2768   5.649   0.636   1.108 -1.3758  0.6341 -0.5966
    7CHTO   N12 2769   5.643   0.841   1.125 -0.1691  0.1654  0.3414
    7CHTO  H110 2770   5.538   0.867   1.119 -0.1565  0.1460  0.0487
    7CHTO  H111 2771   5.695   0.918   1.180 -0.3651  1.0203 -0.6594
    7CHTO   C69 2772   5.796   0.700   1.260  0.3567  0.1848  1.0947
    7CHTO  H126 2773   5.816   0.788   1.325  0.5763  0.4047  0.7304
    7CHTO   O41 2774   5.834   0.560   1.343 -0.4241 -0.1922  0.1619
    7CHTO   C64 2775   5.729   0.526   1.425 -0.0388  0.4899  0.5058
    7CHTO  H121 2776   5.731   0.597   1.511  2.9636  1.4795 -0.3126
    7CHTO   C71 2777   5.750   0.380   1.473  0.3802  0.2122 -0.4771
    7CHTO   O47 2778   5.771   0.286   1.369 -0.6143  0.0092 -0.3196
    7CHTO  H104 2779   5.801   0.204   1.402 -0.1974  0.6318  0.8305
    7CHTO   O34 2780   5.907   0.705   1.144  0.6822  0.3038  0.0445
    7CHTO   C49 2781   6.042   0.630   1.096  0.0406  0.1916  0.1767
    7CHTO   H91 2782   6.101   0.700   1.038 -0.6628  0.7503  0.1177
    7CHTO   C47 2783   5.990   0.525   1.001  0.3663 -0.0661  0.0340
    7CHTO   H89 2784   6.081   0.500   0.942 -0.4907 -0.9955 -0.8969
    7CHTO   O33 2785   5.893   0.586   0.911 -0.3111 -0.2641 -0.3013
    7CHTO   H70 2786   5.870   0.526   0.842  2.3360 -1.0282 -0.5835
    7CHTO   C45 2787   5.935   0.391   1.069  0.2151  0.3483  0.4037
    7CHTO   H87 2788   5.842   0.421   1.120 -0.5596 -2.4016  0.6646
    7CHTO    N8 2789   5.899   0.289   0.972 -0.1165 -0.6958 -0.1230
    7CHTO   H75 2790   5.910   0.331   0.873 -2.2723 -0.7824 -0.4253
    7CHTO   H76 2791   5.797   0.253   0.977 -0.5135  0.4045 -0.0803
    7CHTO   C43 2792   6.038   0.339   1.184  0.1855 -0.1652 -0.1089
    7CHTO   H85 2793   5.976   0.273   1.245 -1.3207  1.0186 -0.3256
    7CHTO   O29 2794   6.085   0.451   1.262  0.1006 -0.0846  0.5156
    7CHTO   C50 2795   6.122   0.579   1.208 -0.2075  0.4884 -0.7153
    7CHTO   H92 2796   6.114   0.647   1.294 -1.1311 -0.0351 -0.3793
    7CHTO   C54 2797   6.279   0.589   1.187 -0.2975  1.1031 -0.3616
    7CHTO   O36 2798   6.332   0.493   1.096 -0.0725  0.1149 -0.5318
    7CHTO   H72 2799   6.311   0.406   1.125 -0.8248  0.4146 -0.1577
    7CHTO   O27 2800   6.151   0.268   1.132  0.0310  0.0796  0.0664
    7CHTO   C37 2801   6.207   0.135   1.145  0.1263  0.3601  0.0886
    7CHTO   H79 2802   6.183   0.101   1.247  2.6194  0.4359  0.7217
    7CHTO   C38 2803   6.162   0.022   1.040  0.4233  0.0195 -1.0274
    7CHTO   H80 2804   6.156   0.064   0.938  0.2230  2.1456 -0.1529
    7CHTO   O31 2805   6.033  -0.018   1.081  0.6054 -0.0290 -0.3402
    7CHTO   H68 2806   6.009  -0.095   1.034 -1.0082  0.1922  0.0829
    7CHTO   C39 2807   6.249  -0.106   1.040  0.3133 -0.2100 -0.0025
    7CHTO   H81 2808   6.238  -0.143   1.142  0.1750  2.0697  0.8396
    7CHTO    N7 2809   6.212  -0.219   0.946 -0.3543  0.6153  0.0140
    7CHTO   H73 2810   6.199  -0.191   0.843  0.3545  0.5482 -0.0982
    7CHTO   H74 2811   6.126  -0.267   0.990 -1.0861  0.2959 -1.7439
    7CHTO   C40 2812   6.403  -0.061   1.026  0.1229 -0.6293 -0.1125
    7CHTO   H82 2813   6.418  -0.005   0.934 -1.5477  0.0891  0.0239
    7CHTO   O26 2814   6.421   0.018   1.142 -0.4809 -0.1798 -0.3627
    7CHTO   C41 2815   6.357   0.147   1.139  0.9709  0.0930  0.0346
    7CHTO   H83 2816   6.382   0.190   1.041 -0.6992  3.9095  1.2015
    7CHTO   C52 2817   6.414   0.234   1.253 -0.0927 -0.5561 -0.3813
    7CHTO   O35 2818   6.553   0.252   1.240  0.5157 -0.4134  0.2828
    7CHTO   H71 2819   6.599   0.180   1.280  0.6519 -2.1307 -2.8346
    7CHTO   O28 2820   6.507  -0.159   1.039 -0.0447  0.1056 -0.0611
    7CHTO   C42 2821   6.643  -0.127   0.994  0.1225 -0.1371 -0.5202
    7CHTO   H84 2822   6.702  -0.215   1.021 -0.9565 -0.3769  1.1762
    7CHTO   C44 2823   6.719  -0.005   1.064 -0.3891 -0.6612  0.3880
    7CHTO   H86 2824   6.653   0.082   1.059 -0.8616 -1.0962 -1.0356
    7CHTO   O32 2825   6.746  -0.043   1.196 -0.7270 -0.2662 -0.2732
    7CHTO   H69 2826   6.676  -0.068   1.252  0.8293 -2.2813  0.8424
    7CHTO   C48 2827   6.857   0.038   0.987  0.4335 -0.4010  0.6388
    7CHTO   H90 2828   6.938  -0.036   0.986  0.0128 -0.8613 -2.5994
    7CHTO    N9 2829   6.916   0.159   1.060  0.0572 -0.4300 -0.9071
    7CHTO   H77 2830   6.851   0.244   1.046  2.3667  1.4766 -0.2886
    7CHTO   H78 2831   7.019   0.175   1.031  0.4858  0.5800  1.0843
    7CHTO   C51 2832   6.830   0.067   0.842 -0.3604  0.1638 -0.1649
    7CHTO   H93 2833   6.737   0.123   0.850 -0.7463 -0.5129  0.1187
    7CHTO   O30 2834   6.805  -0.060   0.785  0.1610 -0.0599 -0.2860
    7CHTO   C46 2835   6.652  -0.109   0.838  0.2945  0.2140  0.4355
    7CHTO   H88 2836   6.589  -0.028   0.802  0.1488 -0.2296 -0.3172
    7CHTO   C53 2837   6.609  -0.235   0.762 -0.4981 -0.3737  0.0354
    7CHTO   O72 2838   6.714  -0.322   0.736 -0.3844  0.0273 -0.1274
    7CHTO  H199 2839   6.743  -0.299   0.650 -0.5531 -0.8041 -0.4144
    7CHTO   O22 2840   6.938   0.125   0.759 -0.2411 -0.1335 -0.1485
    7CHTO   C31 2841   6.920   0.213   0.637 -0.3885 -0.7933  0.4800
    7CHTO   H59 2842   6.980   0.305   0.653  0.1017 -0.4421 -2.9390
    7CHTO   C29 2843   6.983   0.144   0.514 -0.1314  0.2037  0.1537
    7CHTO   H57 2844   6.947   0.040   0.516 -1.4802  0.6603  0.2226
    7CHTO   O21 2845   7.120   0.132   0.538  0.2374  0.1343 -0.0080
    7CHTO   H37 2846   7.164   0.077   0.476  0.3191  2.0638 -1.7113
    7CHTO   C27 2847   6.944   0.210   0.377 -0.2295 -0.7359 -0.5932
    7CHTO   H55 2848   6.984   0.312   0.367 -0.0526 -0.9035 -1.7323
    7CHTO    N5 2849   6.990   0.137   0.261 -0.9372 -0.0561  0.0267
    7CHTO   H43 2850   6.933   0.048   0.239  1.9142 -1.2186 -2.9952
    7CHTO   H44 2851   6.993   0.210   0.182  0.8127 -0.3334 -0.1854
    7CHTO   C25 2852   6.791   0.244   0.368  0.3974 -1.0411  0.3803
    7CHTO   H53 2853   6.745   0.145   0.369 -0.4105 -0.7477 -2.8149
    7CHTO   O17 2854   6.755   0.322   0.487 -0.0473 -0.4894  0.3053
    7CHTO   C32 2855   6.773   0.259   0.616  0.1367  0.8989  0.3089
    7CHTO   H60 2856   6.709   0.172   0.626 -2.0517  2.2956 -0.9632
    7CHTO   C36 2857   6.746   0.373   0.721 -0.3767  0.7519  0.1421
    7CHTO   O25 2858   6.608   0.416   0.734 -0.1280 -0.1144  0.1422
    7CHTO   H40 2859   6.554   0.339   0.737  1.3254 -1.1087  2.4479
    7CHTO   O15 2860   6.755   0.317   0.249  0.4204  0.3845  0.1240
    7CHTO   C19 2861   6.736   0.442   0.180  0.0148 -0.1980 -0.4636
    7CHTO   H47 2862   6.792   0.514   0.243 -0.2383 -0.4951  0.1022
    7CHTO   C20 2863   6.796   0.442   0.034  0.0156 -0.2466  0.5466
    7CHTO   H48 2864   6.744   0.371  -0.031  1.5597 -0.9881  0.1019
    7CHTO   O19 2865   6.936   0.411   0.029 -0.6735  0.0390 -0.6737
    7CHTO   H35 2866   6.976   0.397   0.113 -1.4563 -0.7884 -0.4275
    7CHTO   C21 2867   6.751   0.589  -0.038  0.0628  0.2923  0.2709
    7CHTO   H49 2868   6.806   0.676  -0.001  0.7611  1.6242 -3.6716
    7CHTO    N4 2869   6.792   0.584  -0.177  0.0003 -0.0960 -0.2666
    7CHTO   H41 2870   6.898   0.564  -0.185  0.2454  1.5283 -1.3688
    7CHTO   H42 2871   6.773   0.677  -0.228 -1.3090 -0.8527 -1.1783
    7CHTO   C22 2872   6.599   0.622  -0.017 -0.1405  0.0307  0.2984
    7CHTO   H50 2873   6.536   0.547  -0.064 -0.8014  1.8173 -1.7505
    7CHTO   O14 2874   6.580   0.618   0.125  0.0785 -0.3780 -0.1580
    7CHTO   C23 2875   6.583   0.481   0.177  0.3466 -0.4252  0.3149
    7CHTO   H51 2876   6.527   0.415   0.109 -0.3387  1.3684 -0.8891
    7CHTO   C34 2877   6.529   0.482   0.322  0.0589 -0.8250 -0.1547
    7CHTO   O23 2878   6.469   0.358   0.358  0.0993 -0.1184  0.7747
    7CHTO   H38 2879   6.388   0.378   0.400 -0.4426 -1.4478  0.3901
    7CHTO   O16 2880   6.562   0.756  -0.069  0.2412 -0.3756  0.0180
    7CHTO   C24 2881   6.492   0.860   0.028  0.1268 -0.2006 -0.0460
    7CHTO   H52 2882   6.489   0.827   0.132 -0.8316  0.0405  0.0039
    7CHTO   C26 2883   6.347   0.881  -0.023  0.3285 -0.3539  0.1808
    7CHTO   H54 2884   6.349   0.899  -0.132 -1.1812 -1.1861 -0.0046
    7CHTO   O20 2885   6.260   0.763   0.001 -0.6087 -0.0826  0.3934
    7CHTO   H36 2886   6.256   0.702  -0.070  1.1644  2.1987 -1.7652
    7CHTO   C30 2887   6.270   1.006   0.043  0.0954  0.1413 -0.0388
    7CHTO   H58 2888   6.240   0.987   0.147 -0.1355  2.8280  0.3991
    7CHTO    N6 2889   6.142   1.036  -0.024 -0.7209  0.6042  0.6618
    7CHTO   H45 2890   6.099   0.938  -0.042  1.2875  0.1648 -1.9009
    7CHTO   H46 2891   6.079   1.097   0.039  0.1925  3.7413 -1.3552
    7CHTO   C33 2892   6.374   1.125   0.050 -0.0120  1.1504 -0.7248
    7CHTO   H61 2893   6.391   1.161  -0.053 -0.7332  0.8929 -0.9345
    7CHTO   O18 2894   6.495   1.088   0.109 -0.2319 -0.3381  0.2815
    7CHTO   C28 2895   6.570   0.994   0.036  0.1914 -0.0158  0.2537
    7CHTO   H56 2896   6.594   1.021  -0.067  1.1240  1.2289  0.7886
    7CHTO   C35 2897   6.704   0.957   0.100  0.4768 -0.3135  0.6015
    7CHTO   O24 2898   6.785   1.076   0.125 -0.1562  0.3224  0.2655
    7CHTO   H39 2899   6.873   1.072   0.094 -0.8839 -1.1850 -1.7182
    7CHTO    O9 2900   6.306   1.225   0.118 -0.6681 -0.2901 -0.0536
    7CHTO   C13 2901   6.355   1.370   0.068  0.3067 -0.5261  0.2458
    7CHTO   H26 2902   6.327   1.375  -0.039 -1.4763  1.4080  0.7743
    7CHTO   C11 2903   6.512   1.396   0.087  0.7911  0.3941  0.3403
    7CHTO   H24 2904   6.554   1.346  -0.002 -2.1176 -0.9600 -0.3382
    7CHTO    O8 2905   6.564   1.330   0.195 -1.1453 -0.3294 -0.1590
    7CHTO    H3 2906   6.599   1.247   0.171  1.4681  0.8018 -0.4660
    7CHTO    C9 2907   6.543   1.544   0.074  0.7913 -0.1610 -0.4125
    7CHTO   H22 2908   6.485   1.581  -0.012  0.5589  1.5272  0.4345
    7CHTO    N2 2909   6.681   1.573   0.038 -0.8899  0.4368 -0.3360
    7CHTO   H10 2910   6.687   1.639  -0.047 -1.2853 -1.6465 -2.0066
    7CHTO   H11 2911   6.758   1.497   0.037 -0.2780  1.0615 -0.6820
    7CHTO    C7 2912   6.484   1.614   0.208  0.1832  0.2739  0.4106
    7CHTO   H20 2913   6.459   1.717   0.174  0.6762  1.4153  3.3594
    7CHTO    O4 2914   6.364   1.546   0.244  0.3029  0.1116  0.5520
    7CHTO   C14 2915   6.273   1.495   0.142 -0.4486  0.2615 -0.2776
    7CHTO   H27 2916   6.247   1.575   0.069  2.5650  1.2462 -0.3430
    7CHTO   C18 2917   6.137   1.437   0.202 -0.2046 -0.6559 -0.5223
    7CHTO   O13 2918   6.069   1.539   0.273 -0.3312 -0.1616 -0.5175
    7CHTO    H7 2919   6.064   1.619   0.224 -1.0115  0.9251  1.2830
    7CHTO    O2 2920   6.603   1.602   0.341  0.0132 -0.1018 -0.6517
    7CHTO    C1 2921   6.600   1.713   0.432  0.4237  0.2665  0.1774
    7CHTO   H14 2922   6.633   1.675   0.531  1.4178  0.0842 -0.2214
    7CHTO    C2 2923   6.459   1.783   0.454 -0.0105  0.1038  0.4743
    7CHTO   H15 2924   6.427   1.825   0.357 -2.7290 -0.4774  1.0828
    7CHTO    O6 2925   6.368   1.694   0.522 -0.0738  0.3652  0.2968
    7CHTO    H1 2926   6.420   1.633   0.569  2.1424  1.3407 -0.8250
    7CHTO    C3 2927   6.490   1.909   0.544 -0.2427  0.0326  0.0113
    7CHTO   H16 2928   6.539   1.885   0.639 -0.3618  1.1776  0.3616
    7CHTO    N1 2929   6.361   1.979   0.592  0.5344 -0.3825 -0.5052
    7CHTO    H8 2930   6.372   2.064   0.657 -1.8750  0.1027 -0.6675
    7CHTO    H9 2931   6.292   1.906   0.632  1.9777 -1.7633 -0.5161
    7CHTO    C4 2932   6.588   2.006   0.467  0.2511 -0.0835  0.2965
    7CHTO   H17 2933   6.547   2.022   0.367  1.1739  4.3520  0.5647
    7CHTO    O1 2934   6.711   1.931   0.460 -0.0309 -0.2404  0.5218
    7CHTO    C5 2935   6.703   1.816   0.372 -0.2510 -0.5225  0.1691
    7CHTO   H18 2936   6.664   1.855   0.278 -0.9093  0.6200  0.9004
    7CHTO   C16 2937   6.850   1.773   0.349 -0.5003  0.3910  0.1468
    7CHTO   O11 2938   6.904   1.862   0.251  0.2096  0.3892  0.0996
    7CHTO    H5 2939   6.962   1.916   0.301 -1.3785 -0.6884  3.2512
    7CHTO    O3 2940   6.619   2.132   0.535 -0.4240 -0.8058  0.0001
    7CHTO    C6 2941   6.664   2.251   0.463 -0.5210 -0.0188  0.0988
    7CHTO   H19 2942   6.707   2.221   0.367 -2.7401  1.2039 -1.3225
    7CHTO    C8 2943   6.553   2.352   0.437  0.2646 -0.7744  0.2247
    7CHTO   H21 2944   6.498   2.369   0.530 -2.4192 -0.6121 -1.3251
    7CHTO    O7 2945   6.465   2.299   0.334  0.7197  0.3364  0.1003
    7CHTO    H2 2946   6.393   2.359   0.331  0.9408  0.8199  2.6553
    7CHTO   C12 2947   6.613   2.497   0.388  0.0636 -0.3409 -0.1191
    7CHTO   H25 2948   6.652   2.467   0.288 -3.4539  1.9800 -2.3150
    7CHTO    N3 2949   6.508   2.602   0.372  0.5855  0.6809  0.0825
    7CHTO   H12 2950   6.451   2.606   0.463 -1.5237 -0.3452 -1.1746
    7CHTO   H13 2951   6.563   2.693   0.352 -0.6137  2.1740  3.2485
    7CHTO   C15 2952   6.734   2.540   0.483  0.7066  0.2393  0.5892
    7CHTO   H28 2953   6.696   2.589   0.573  1.6639  0.7502  0.7118
    7CHTO   O10 2954   6.824   2.621   0.418 -0.2258  0.5433 -0.2446
    7CHTO    H4 2955   6.793   2.709   0.428  0.7896  0.8800 -0.0458
    7CHTO    O5 2956   6.829   2.436   0.506  0.5805 -0.3032 -0.8058
    7CHTO   C10 2957   6.779   2.310   0.551 -0.2786  0.3460 -0.3786
    7CHTO   H23 2958   6.754   2.316   0.657  2.0450 -1.8771  0.3457
    7CHTO   C17 2959   6.898   2.215   0.558 -0.0635 -0.3142 -0.0525
    7CHTO   O12 2960   6.973   2.206   0.438 -0.1612  0.1892  0.5172
    7CHTO    H6 2961   6.924   2.201   0.358  0.5205 -0.2345  0.1256
    8CHTO  H203 2962   7.491   7.889   1.921 -0.2576 -0.6702  0.3045
    8CHTO   O82 2963   7.401   7.912   1.926 -0.0603  0.1995  0.0058
    8CHTO  C123 2964   7.319   7.840   1.837 -0.2842  0.6040  0.5619
    8CHTO  H227 2965   7.372   7.745   1.819  3.2837  2.4490  0.9313
    8CHTO   O77 2966   7.196   7.812   1.914  0.2845  0.6621  0.1109
    8CHTO  C118 2967   7.093   7.752   1.833 -0.3978  0.2410  0.1185
    8CHTO  H222 2968   7.126   7.667   1.772  2.8316  1.3125  0.2958
    8CHTO  C125 2969   6.981   7.706   1.933 -0.2273 -0.0394 -0.0978
    8CHTO   O84 2970   7.013   7.608   2.030 -0.6706  0.4557  0.2804
    8CHTO  H205 2971   6.933   7.580   2.070 -0.4424  0.3481  0.6690
    8CHTO  C114 2972   7.047   7.863   1.739  0.6749 -0.1054 -0.2706
    8CHTO  H218 2973   7.021   7.952   1.796  1.5756  0.6144 -0.9486
    8CHTO  C116 2974   7.156   7.899   1.637  0.4180  0.2456 -0.4650
    8CHTO  H220 2975   7.173   7.809   1.574  1.0638 -0.7449  1.1041
    8CHTO   O79 2976   7.115   8.008   1.555 -0.2209 -0.1084 -0.0606
    8CHTO  H201 2977   7.060   7.968   1.490 -2.1722  0.2898  1.3183
    8CHTO  C120 2978   7.288   7.939   1.711  0.2894 -0.0746 -0.5840
    8CHTO  H224 2979   7.267   8.040   1.751 -1.8855 -0.8020  0.2135
    8CHTO   N21 2980   7.405   7.951   1.619  0.3581 -0.6745 -0.8062
    8CHTO  H211 2981   7.411   8.056   1.591  1.5934 -1.0778 -2.1253
    8CHTO  H212 2982   7.493   7.919   1.673 -1.6938 -1.7321  2.0087
    8CHTO   O75 2983   6.923   7.811   1.670 -0.0759 -0.3941 -0.2491
    8CHTO  C112 2984   6.797   7.917   1.666  0.0611 -0.0696 -0.4485
    8CHTO  H216 2985   6.841   8.017   1.652  0.6384 -0.0488  1.3831
    8CHTO   O73 2986   6.729   7.905   1.799 -0.0216  0.1632 -0.8446
    8CHTO  C113 2987   6.636   8.013   1.810 -0.6145  0.6009 -0.1137
    8CHTO  H217 2988   6.692   8.109   1.807  1.2419 -0.3471  2.3156
    8CHTO  C124 2989   6.571   8.009   1.953 -0.0140 -0.4623  0.0197
    8CHTO   O83 2990   6.663   8.057   2.051  0.3939  0.0398 -0.1028
    8CHTO  H204 2991   6.717   8.122   2.012 -0.5757  2.0007  1.7166
    8CHTO  C109 2992   6.523   8.008   1.698  0.5163 -0.1344 -0.6800
    8CHTO  H213 2993   6.462   7.920   1.723 -0.5853  0.9939  0.6501
    8CHTO  C110 2994   6.586   8.000   1.555  0.0161  0.0753  0.4701
    8CHTO  H214 2995   6.623   8.096   1.520 -3.0139  2.0328  2.3998
    8CHTO   O78 2996   6.478   7.985   1.458  0.0332 -0.2255 -0.1135
    8CHTO  H200 2997   6.448   7.897   1.465  0.7373 -0.3278  2.1640
    8CHTO  C111 2998   6.699   7.892   1.549 -0.4437 -0.1395 -0.4260
    8CHTO  H215 2999   6.654   7.792   1.558  1.4762 -0.7955  2.5499
    8CHTO   N19 3000   6.770   7.901   1.416 -0.1443 -0.7695  0.6776
    8CHTO  H207 3001   6.837   7.985   1.418 -0.2902 -0.6695  1.8888
    8CHTO  H208 3002   6.844   7.823   1.426  1.1903  0.4015  0.0811
    8CHTO   O74 3003   6.435   8.130   1.706  0.7756  0.3926  0.0574
    8CHTO  C115 3004   6.274   8.105   1.697 -0.1627 -0.4395 -0.0625
    8CHTO  H219 3005   6.250   8.002   1.669  0.5809 -0.9689  1.1951
    8CHTO   O76 3006   6.194   8.137   1.841 -0.4108  0.1984  0.9634
    8CHTO  C122 3007   6.210   8.278   1.870  0.3294 -0.3342  0.1101
    8CHTO  H226 3008   6.315   8.304   1.873 -0.0230  1.4278 -1.4558
    8CHTO  C126 3009   6.151   8.308   2.023  0.5089  0.5024  0.3164
    8CHTO   O85 3010   6.006   8.288   2.038 -0.2290  0.3415 -0.5616
    8CHTO  H206 3011   5.978   8.217   1.984  1.8096  0.2772 -1.5817
    8CHTO  C121 3012   6.134   8.360   1.755  0.6377  0.5767 -0.5304
    8CHTO  H225 3013   6.029   8.329   1.737  1.0535  0.8068 -3.7697
    8CHTO   O81 3014   6.128   8.499   1.792  0.3023  0.4097  0.2555
    8CHTO  H202 3015   6.073   8.548   1.735  1.5057 -1.0960 -2.3036
    8CHTO  C119 3016   6.212   8.339   1.619  0.5678 -0.6121 -0.8005
    8CHTO  H223 3017   6.164   8.402   1.544 -0.2202 -0.9832 -0.6067
    8CHTO  C117 3018   6.213   8.195   1.576 -1.1772  0.4035  0.0769
    8CHTO  H221 3019   6.281   8.169   1.494 -0.0998  0.4309  0.9508
    8CHTO   N20 3020   6.080   8.137   1.541  0.4063  0.5300  0.4473
    8CHTO  H209 3021   6.016   8.142   1.628  1.1804 -0.5427  1.0908
    8CHTO  H210 3022   6.091   8.031   1.525  0.2515  0.1180  2.9061
    8CHTO   O80 3023   6.375   8.407   1.627  0.1878 -0.4877 -0.0390
    8CHTO  C103 3024   6.392   8.551   1.596 -0.7327  0.3594  0.7480
    8CHTO  H190 3025   6.300   8.597   1.560 -0.1257  0.5614 -0.5905
    8CHTO  C101 3026   6.466   8.632   1.709 -0.4642 -0.0805 -0.9288
    8CHTO  H188 3027   6.547   8.573   1.750 -0.0680  1.4253  0.5291
    8CHTO   O68 3028   6.374   8.646   1.824 -0.4049 -0.1547  0.5972
    8CHTO  H168 3029   6.285   8.670   1.803  0.1539  0.4955 -1.0381
    8CHTO   C99 3030   6.540   8.768   1.664  0.2746 -0.1102 -0.2390
    8CHTO  H186 3031   6.455   8.836   1.642 -0.0959 -0.4960 -0.0021
    8CHTO   N17 3032   6.630   8.830   1.766  0.3483  0.1434  0.5461
    8CHTO  H174 3033   6.594   8.918   1.816 -1.2326 -0.8254  1.1512
    8CHTO  H175 3034   6.662   8.753   1.834 -0.7336 -0.0103  0.8933
    8CHTO   C97 3035   6.603   8.750   1.529 -0.2853  0.1168 -0.2253
    8CHTO  H184 3036   6.695   8.692   1.543  0.0884  0.5479 -0.8422
    8CHTO   O64 3037   6.509   8.692   1.438  0.1615 -0.1822  0.1758
    8CHTO  C104 3038   6.489   8.552   1.473  0.2529 -0.2434 -0.6981
    8CHTO  H191 3039   6.586   8.511   1.502  1.3344  1.7659 -1.3371
    8CHTO  C108 3040   6.436   8.473   1.358 -0.6888 -0.2908  0.6546
    8CHTO   O71 3041   6.531   8.459   1.255 -0.4053  0.1757 -0.1732
    8CHTO  H171 3042   6.489   8.410   1.187 -0.6668 -1.0111  0.8187
    8CHTO   O62 3043   6.627   8.883   1.475 -0.7517  0.2666  0.2208
    8CHTO   C91 3044   6.751   8.929   1.419 -0.4082 -0.6252 -0.0135
    8CHTO  H178 3045   6.831   8.863   1.455  0.5381  1.6306  2.1862
    8CHTO   C92 3046   6.783   9.075   1.481 -0.2365  0.0729  0.2406
    8CHTO  H179 3047   6.768   9.076   1.590 -2.0263  1.0537  0.0082
    8CHTO   O66 3048   6.921   9.110   1.447  0.3380  0.0461  0.4257
    8CHTO  H166 3049   6.940   9.090   1.358 -1.4692 -0.9158  0.2418
    8CHTO   C93 3050   6.681   9.178   1.419  0.1484  0.8930  0.2315
    8CHTO  H180 3051   6.728   9.277   1.420  1.9182  0.0740  1.3311
    8CHTO   N16 3052   6.556   9.210   1.495 -0.2320  1.3856  0.0967
    8CHTO  H172 3053   6.498   9.119   1.492  1.8661  0.0257  0.0832
    8CHTO  H173 3054   6.593   9.243   1.591  0.2231  1.4213 -0.0901
    8CHTO   C94 3055   6.642   9.146   1.271  0.3726 -0.9892 -0.6730
    8CHTO  H181 3056   6.547   9.092   1.261 -0.4251  0.2779 -0.1345
    8CHTO   O61 3057   6.744   9.063   1.210  0.0209  0.0454 -0.2335
    8CHTO   C95 3058   6.762   8.928   1.263 -0.3513  0.0487 -0.2489
    8CHTO  H182 3059   6.682   8.863   1.229 -2.1021 -0.2992  4.1298
    8CHTO  C106 3060   6.900   8.864   1.213  0.4874 -0.2245 -0.4960
    8CHTO   O69 3061   6.884   8.843   1.075  0.5047 -0.1575  0.4293
    8CHTO  H169 3062   6.839   8.761   1.065 -0.2072  0.4093 -1.1525
    8CHTO   O63 3063   6.636   9.290   1.201  0.7469 -0.5057 -0.6763
    8CHTO   C96 3064   6.567   9.300   1.059 -0.0873  0.4963 -0.0037
    8CHTO  H183 3065   6.513   9.207   1.044 -1.5714  1.1376  1.1147
    8CHTO   C98 3066   6.661   9.314   0.941 -0.0699 -0.7166  0.2089
    8CHTO  H185 3067   6.702   9.415   0.938 -1.8407  0.1924  3.8236
    8CHTO   O67 3068   6.773   9.227   0.962  0.1353 -0.1637  0.2573
    8CHTO  H167 3069   6.854   9.273   0.953 -1.6382  2.7296 -1.9628
    8CHTO  C102 3070   6.576   9.289   0.812 -0.1042  0.5868  0.2067
    8CHTO  H189 3071   6.533   9.189   0.829 -0.1420  0.6271  0.3493
    8CHTO   N18 3072   6.648   9.289   0.683  0.2421  0.4476 -0.5181
    8CHTO  H176 3073   6.755   9.273   0.694  0.0054 -1.4720 -0.8074
    8CHTO  H177 3074   6.612   9.209   0.619  1.9732 -1.6534  1.0490
    8CHTO  C105 3075   6.453   9.389   0.813  0.2974 -1.1910 -0.1159
    8CHTO  H192 3076   6.475   9.457   0.731  2.1108 -0.1251  1.2328
    8CHTO   O65 3077   6.433   9.468   0.931  0.5653 -0.3513  0.0261
    8CHTO  C100 3078   6.472   9.417   1.060  0.1885  0.0639 -0.3338
    8CHTO  H187 3079   6.512   9.501   1.119  1.2168 -1.0554  0.5997
    8CHTO  C107 3080   6.344   9.371   1.127  0.1777 -0.0158 -0.1714
    8CHTO   O70 3081   6.248   9.477   1.135  0.2348  0.1374 -0.2083
    8CHTO  H170 3082   6.167   9.440   1.164  2.0069 -2.1449  2.1055
    8CHTO   O57 3083   6.335   9.303   0.776 -0.3510 -0.3071  0.2583
    8CHTO   C85 3084   6.211   9.348   0.716  0.7542  0.3725 -0.2264
    8CHTO  H157 3085   6.240   9.438   0.658 -0.0066  1.5502  1.1830
    8CHTO   C83 3086   6.113   9.400   0.826 -0.2370  0.4096 -0.4207
    8CHTO  H155 3087   6.156   9.478   0.889  1.0188 -0.6716  0.0977
    8CHTO   O56 3088   6.103   9.284   0.913 -0.0738  0.2455  0.2253
    8CHTO  H135 3089   6.154   9.302   0.989  0.6026  0.4578 -0.2718
    8CHTO   C81 3090   5.975   9.444   0.768 -1.0134  0.3563  0.1486
    8CHTO  H153 3091   5.997   9.520   0.692 -0.3336 -1.9096 -1.9905
    8CHTO   N14 3092   5.883   9.509   0.869 -0.1996  0.3490  0.5407
    8CHTO  H141 3093   5.948   9.563   0.936 -0.1071 -0.1458  0.8545
    8CHTO  H142 3094   5.804   9.572   0.833 -0.1101 -0.2708 -0.7707
    8CHTO   C79 3095   5.902   9.321   0.696 -0.7708 -0.3806 -0.0198
    8CHTO  H151 3096   5.819   9.362   0.638 -0.1021 -0.8543 -1.3302
    8CHTO   O52 3097   6.000   9.269   0.592  1.2434  0.3178 -0.3340
    8CHTO   C86 3098   6.139   9.243   0.629  0.1402  0.2111  0.0649
    8CHTO  H158 3099   6.123   9.146   0.681  2.6419  0.1569  0.7925
    8CHTO   C90 3100   6.233   9.208   0.515  0.1546 -0.4268  1.0415
    8CHTO   O60 3101   6.178   9.112   0.425 -0.3231 -0.5229 -0.5531
    8CHTO  H138 3102   6.154   9.157   0.346  1.3040  2.1069  0.3842
    8CHTO   O50 3103   5.858   9.217   0.783 -0.1049 -0.3109  0.1773
    8CHTO   C73 3104   5.742   9.129   0.782 -0.3720 -0.3586  0.0557
    8CHTO  H145 3105   5.741   9.075   0.686 -2.6298 -0.0440 -0.1069
    8CHTO   C74 3106   5.603   9.186   0.806 -0.4062  0.3801 -0.2357
    8CHTO  H146 3107   5.570   9.254   0.727  0.9237 -0.1168 -1.2403
    8CHTO   O54 3108   5.511   9.077   0.798  0.5152  0.6896 -0.4231
    8CHTO  H133 3109   5.490   9.045   0.884 -0.3871 -1.7100 -1.5147
    8CHTO   C75 3110   5.608   9.255   0.945 -0.0893 -0.6450  0.1625
    8CHTO  H147 3111   5.672   9.343   0.931 -1.8799  0.4709 -1.3325
    8CHTO   N13 3112   5.481   9.324   0.981 -0.1935  0.0030 -0.2537
    8CHTO  H139 3113   5.488   9.354   1.084 -2.1557 -1.7187  0.4038
    8CHTO  H140 3114   5.395   9.258   0.985 -0.7641  0.7485 -0.1997
    8CHTO   C76 3115   5.676   9.157   1.056  0.1812 -0.3284 -0.3756
    8CHTO  H148 3116   5.601   9.082   1.084 -0.3923  0.3789  0.0131
    8CHTO   O49 3117   5.804   9.096   1.008 -0.4702 -0.3081  0.2219
    8CHTO   C77 3118   5.773   9.020   0.890 -0.3172  0.3895 -0.5475
    8CHTO  H149 3119   5.692   8.947   0.897  1.0253 -1.1436 -0.7915
    8CHTO   C88 3120   5.903   8.943   0.854 -0.3722 -0.1046 -0.2887
    8CHTO   O58 3121   5.885   8.837   0.763 -0.2089 -0.0011 -0.4552
    8CHTO  H136 3122   5.968   8.809   0.728 -0.1323  0.5055 -0.6829
    8CHTO   O51 3123   5.715   9.232   1.169 -0.2352 -0.5011 -0.0603
    8CHTO   C78 3124   5.725   9.146   1.299 -1.1945  0.2000 -0.2131
    8CHTO  H150 3125   5.751   9.043   1.270  0.7718  0.3633  0.9117
    8CHTO   C80 3126   5.588   9.131   1.371  0.3174  0.7211 -0.2310
    8CHTO  H152 3127   5.538   9.229   1.386 -0.5361  0.1743  0.5877
    8CHTO   O55 3128   5.501   9.053   1.286  0.2773  0.1066 -0.2586
    8CHTO  H134 3129   5.433   9.105   1.247  1.7906  0.4221 -2.5493
    8CHTO   C84 3130   5.602   9.061   1.512 -0.0622 -0.3681 -0.5863
    8CHTO  H156 3131   5.597   8.953   1.504  0.7749 -0.6492  2.2094
    8CHTO   N15 3132   5.486   9.097   1.593 -0.1956  0.4236  0.1737
    8CHTO  H143 3133   5.483   9.042   1.685 -0.9277  0.5519  0.2264
    8CHTO  H144 3134   5.397   9.075   1.539 -1.1183 -0.2837  1.9316
    8CHTO   C87 3135   5.736   9.098   1.590  0.4510 -0.3164  0.1981
    8CHTO  H159 3136   5.742   9.191   1.646 -0.5481 -0.0899 -0.0686
    8CHTO   O53 3137   5.854   9.098   1.494  0.2274  0.7430 -0.1399
    8CHTO   C82 3138   5.844   9.195   1.393  0.5717  0.1435 -0.2858
    8CHTO  H154 3139   5.808   9.291   1.429  0.4469  0.0841 -0.2537
    8CHTO   C89 3140   5.963   9.217   1.302 -0.5905 -0.2758 -0.3326
    8CHTO   O59 3141   6.080   9.265   1.361  0.5140  0.1926  0.4809
    8CHTO  H137 3142   6.081   9.358   1.349 -2.2062  0.0926 -0.9545
    8CHTO   O45 3143   5.761   8.975   1.720 -0.0957  0.2114 -0.5615
    8CHTO   C67 3144   5.873   8.995   1.809 -0.1755 -0.7590  0.4471
    8CHTO  H124 3145   5.854   8.920   1.885 -2.4946 -1.2929 -0.5940
    8CHTO   C65 3146   6.014   8.980   1.753  0.4458  0.1667  0.3516
    8CHTO  H122 3147   6.002   9.015   1.651  1.8178 -0.5375 -0.0623
    8CHTO   O44 3148   6.041   8.838   1.756  0.3983 -0.0808  0.0746
    8CHTO  H102 3149   6.092   8.821   1.679  0.7285  0.5224  0.1596
    8CHTO   C63 3150   6.117   9.077   1.812 -0.0944 -0.0356  0.0144
    8CHTO  H120 3151   6.097   9.176   1.772 -1.1024 -1.2215 -2.5446
    8CHTO   N11 3152   6.258   9.050   1.783 -0.2992 -0.2635  0.2961
    8CHTO  H108 3153   6.295   8.956   1.820  2.5997  0.3595 -0.8669
    8CHTO  H109 3154   6.324   9.134   1.785 -0.7134  0.0826 -0.4939
    8CHTO   C61 3155   6.088   9.098   1.969 -0.8956 -0.0016 -0.1553
    8CHTO  H118 3156   6.159   9.177   1.999 -3.2053  2.1397 -0.0791
    8CHTO   O40 3157   5.947   9.148   1.997  0.0617  0.0473 -0.1308
    8CHTO   C68 3158   5.848   9.134   1.889  0.3720  0.1099  0.7254
    8CHTO  H125 3159   5.858   9.224   1.825  0.7903  1.2322  2.3555
    8CHTO   C72 3160   5.707   9.150   1.966  0.0427  0.6187  0.9910
    8CHTO   O48 3161   5.678   9.286   1.997  0.3507 -0.0594 -0.3763
    8CHTO  H105 3162   5.690   9.334   1.917  0.6210 -0.1325 -0.3766
    8CHTO   O38 3163   6.109   8.977   2.041 -0.1670  0.2519 -0.0437
    8CHTO   C55 3164   6.204   8.970   2.150  0.2262 -0.3875 -0.4108
    8CHTO  H112 3165   6.296   9.025   2.125  0.2082  0.6968  1.8583
    8CHTO   C56 3166   6.237   8.814   2.170 -0.7494  0.0284  0.5976
    8CHTO  H113 3167   6.238   8.772   2.069  0.5457  2.3736 -0.4175
    8CHTO   O42 3168   6.371   8.800   2.228 -0.1324  0.0973  0.6255
    8CHTO  H100 3169   6.423   8.776   2.153 -1.6983 -2.0034  0.1708
    8CHTO   C57 3170   6.136   8.741   2.262  0.0504 -0.9541  0.1078
    8CHTO  H114 3171   6.183   8.712   2.356  1.8023 -1.4839 -0.8961
    8CHTO   N10 3172   6.112   8.597   2.228  0.5742 -0.0855 -0.5888
    8CHTO  H106 3173   6.083   8.596   2.124 -0.8152  2.1937 -0.2631
    8CHTO  H107 3174   6.029   8.567   2.291  1.7548 -0.4255  0.8473
    8CHTO   C58 3175   6.003   8.816   2.281 -0.6587 -0.1367  0.0716
    8CHTO  H115 3176   5.968   8.831   2.177  1.8853 -1.2188 -0.9536
    8CHTO   O37 3177   6.044   8.944   2.337  0.1021  0.0127  0.0510
    8CHTO   C59 3178   6.140   9.034   2.279  0.0070  0.2768  1.0789
    8CHTO  H116 3179   6.090   9.126   2.247 -1.8354 -0.3611  2.0457
    8CHTO   C70 3180   6.243   9.071   2.383 -0.1937  0.2550 -0.3742
    8CHTO   O46 3181   6.193   9.167   2.469 -0.3180 -0.3062  0.1691
    8CHTO  H103 3182   6.126   9.124   2.519  0.2311  0.8895  1.9824
    8CHTO   O39 3183   5.907   8.739   2.384 -0.1163 -0.5863 -0.3723
    8CHTO   C60 3184   5.769   8.736   2.339 -0.2104  0.3197 -0.5763
    8CHTO  H117 3185   5.755   8.793   2.248 -0.3991 -1.2103 -1.5272
    8CHTO   C62 3186   5.719   8.591   2.303 -0.5462  0.2676 -0.3500
    8CHTO  H119 3187   5.794   8.553   2.231  0.3023  0.0644  0.6209
    8CHTO   O43 3188   5.722   8.510   2.420  0.3618  0.3450  0.2556
    8CHTO  H101 3189   5.706   8.421   2.392 -1.6611  1.0552 -0.9317
    8CHTO   C66 3190   5.568   8.601   2.242 -0.7145 -0.2378 -0.7605
    8CHTO  H123 3191   5.564   8.671   2.159  1.3221 -0.8861 -1.4131
    8CHTO   N12 3192   5.527   8.466   2.192  0.4857 -0.0162  0.1323
    8CHTO  H110 3193   5.577   8.445   2.099 -1.5235  0.0491 -0.9910
    8CHTO  H111 3194   5.423   8.464   2.164  0.9594  2.2125 -1.9629
    8CHTO   C69 3195   5.477   8.664   2.345  0.0862 -0.3379  0.3874
    8CHTO  H126 3196   5.463   8.602   2.436  1.7020 -0.3734  0.6366
    8CHTO   O41 3197   5.534   8.801   2.391  0.5198  0.1788  0.4339
    8CHTO   C64 3198   5.675   8.795   2.442  0.2650 -0.0616  0.1367
    8CHTO  H121 3199   5.692   8.746   2.540 -1.5279 -0.8374  0.0805
    8CHTO   C71 3200   5.717   8.944   2.467 -0.3110  0.1766 -0.1643
    8CHTO   O47 3201   5.634   9.011   2.564 -0.3173  0.6375 -0.0748
    8CHTO  H104 3202   5.631   9.105   2.556  0.6557  0.7492  0.6988
    8CHTO   O34 3203   5.346   8.701   2.291  0.6743 -0.1329 -0.4856
    8CHTO   C49 3204   5.225   8.801   2.331  0.2317 -0.2778  0.1240
    8CHTO   H91 3205   5.212   8.796   2.439 -1.3717 -0.1474 -0.0486
    8CHTO   C47 3206   5.089   8.754   2.263  0.7179 -0.0543  0.2056
    8CHTO   H89 3207   5.005   8.813   2.306 -1.4949 -1.8966 -1.3973
    8CHTO   O33 3208   5.071   8.615   2.311  0.1902 -0.8406 -0.5350
    8CHTO   H70 3209   4.993   8.576   2.276 -0.0658 -0.2468 -0.6315
    8CHTO   C45 3210   5.096   8.764   2.109  0.3577  0.6911 -0.4096
    8CHTO   H87 3211   5.176   8.697   2.073  0.3052  1.0780 -1.2460
    8CHTO    N8 3212   4.974   8.713   2.039  0.3924 -0.7129  0.5100
    8CHTO   H75 3213   4.992   8.727   1.934 -2.1011  0.2866  0.1627
    8CHTO   H76 3214   4.958   8.607   2.049 -3.3565 -0.2624 -0.0060
    8CHTO   C43 3215   5.129   8.921   2.080  0.3685 -0.0268 -0.4353
    8CHTO   H85 3216   5.144   8.928   1.972 -1.0779 -1.4069 -0.7504
    8CHTO   O29 3217   5.246   8.965   2.149 -0.2222  0.2508 -0.3039
    8CHTO   C50 3218   5.251   8.952   2.295  0.2924 -0.4159  0.2966
    8CHTO   H92 3219   5.352   8.989   2.319 -0.6950  1.3925  1.7801
    8CHTO   C54 3220   5.164   9.049   2.383  0.2900  0.0956  0.6437
    8CHTO   O36 3221   5.173   9.189   2.343  0.1516  0.4055 -0.2393
    8CHTO   H72 3222   5.157   9.242   2.419  1.6311  1.8967 -0.9139
    8CHTO   O27 3223   5.019   9.011   2.108  0.2185 -0.3728  0.2007
    8CHTO   C37 3224   4.972   9.114   2.019  0.0855  0.0918  0.3895
    8CHTO   H79 3225   4.975   9.080   1.915  1.0085  0.5252  0.2724
    8CHTO   C38 3226   4.823   9.150   2.044  0.1348 -0.4133  0.0638
    8CHTO   H80 3227   4.815   9.181   2.149 -0.0593 -0.2515  0.0008
    8CHTO   O31 3228   4.751   9.026   2.026 -0.3478 -0.4236  0.6415
    8CHTO   H68 3229   4.663   9.030   1.994 -0.1096 -4.3916 -0.7799
    8CHTO   C39 3230   4.771   9.268   1.956 -0.6729 -0.2588  0.4301
    8CHTO   H81 3231   4.777   9.227   1.856  2.7241  0.6129  0.2389
    8CHTO    N7 3232   4.630   9.311   1.980 -0.5298  0.2032  0.1325
    8CHTO   H73 3233   4.611   9.416   1.997  1.2640  0.5682  0.0193
    8CHTO   H74 3234   4.563   9.272   1.906 -0.2702  0.8151 -0.4248
    8CHTO   C40 3235   4.871   9.391   1.959  0.1708  0.2871  0.0448
    8CHTO   H82 3236   4.848   9.449   2.049 -2.9275  0.5420 -0.8840
    8CHTO   O26 3237   5.013   9.351   1.955 -0.4649  0.3299  0.0290
    8CHTO   C41 3238   5.059   9.236   2.035  0.7835  0.2263  0.1267
    8CHTO   H83 3239   5.070   9.266   2.140 -2.3285  1.5849  0.1058
    8CHTO   C52 3240   5.199   9.233   1.982  0.3792 -0.0233  0.3122
    8CHTO   O35 3241   5.197   9.197   1.841  0.5416 -0.1929  0.0752
    8CHTO   H71 3242   5.171   9.110   1.819  1.0238  0.0880 -1.6561
    8CHTO   O28 3243   4.859   9.487   1.852 -0.3728  0.6496 -0.2621
    8CHTO   C42 3244   4.854   9.470   1.705  0.7764  0.5130 -0.4903
    8CHTO   H84 3245   4.874   9.575   1.684  0.9444  0.5466 -0.1656
    8CHTO   C44 3246   4.716   9.440   1.645 -0.0939 -0.0743  0.2577
    8CHTO   H86 3247   4.697   9.333   1.653 -2.1455  0.3157  1.1097
    8CHTO   O32 3248   4.612   9.510   1.718  0.2489  0.2204  0.0549
    8CHTO   H69 3249   4.528   9.479   1.689  0.4121 -0.8069  0.6503
    8CHTO   C48 3250   4.714   9.468   1.495  0.4260 -0.2089  0.3893
    8CHTO   H90 3251   4.738   9.573   1.474  0.6303 -0.2755  0.2998
    8CHTO    N9 3252   4.579   9.444   1.431  0.2954 -0.8452 -0.5306
    8CHTO   H77 3253   4.515   9.408   1.511  0.2707 -0.1338 -0.2267
    8CHTO   H78 3254   4.542   9.535   1.387 -0.5588 -0.8795  0.0999
    8CHTO   C51 3255   4.829   9.377   1.442 -0.3055  0.5241 -0.4477
    8CHTO   H93 3256   4.807   9.270   1.446  1.5790 -0.0031 -3.0653
    8CHTO   O30 3257   4.957   9.402   1.497  0.2582 -0.2753 -0.1066
    8CHTO   C46 3258   4.966   9.389   1.636  0.1225 -0.2739  0.1835
    8CHTO   H88 3259   4.961   9.283   1.661 -2.4963  0.0379  1.1008
    8CHTO   C53 3260   5.112   9.433   1.674 -0.0026 -0.1883  0.6945
    8CHTO   O72 3261   5.210   9.343   1.620 -0.1053 -0.4944  0.0241
    8CHTO  H199 3262   5.290   9.336   1.667 -0.5539  2.6062  1.3311
    8CHTO   O22 3263   4.861   9.421   1.309  0.3968 -0.2801  0.0161
    8CHTO   C31 3264   4.919   9.325   1.212  0.2773  0.4106  0.3128
    8CHTO   H59 3265   4.952   9.387   1.127  1.1874  0.5491  0.7591
    8CHTO   C29 3266   5.042   9.244   1.263  0.1851  0.6673 -0.0545
    8CHTO   H57 3267   5.013   9.201   1.360  0.9811  1.2676  0.4508
    8CHTO   O21 3268   5.154   9.329   1.279  0.1333 -0.0939  0.6229
    8CHTO   H37 3269   5.208   9.350   1.206 -0.3490  1.0389  0.5916
    8CHTO   C27 3270   5.076   9.127   1.162  0.2269  0.1010 -0.6241
    8CHTO   H55 3271   5.119   9.167   1.069  1.4208 -3.7923 -1.8233
    8CHTO    N5 3272   5.173   9.032   1.232  0.4602 -0.0666  0.4236
    8CHTO   H43 3273   5.227   8.980   1.155  0.0510  0.6324 -0.3418
    8CHTO   H44 3274   5.118   8.951   1.278  0.5817 -2.3034 -3.2343
    8CHTO   C25 3275   4.945   9.048   1.126 -0.0095 -0.6151  0.1090
    8CHTO   H53 3276   4.897   9.008   1.216 -0.0402  0.2677  0.4886
    8CHTO   O17 3277   4.845   9.137   1.070 -0.0016  0.0305 -0.0499
    8CHTO   C32 3278   4.805   9.242   1.160 -0.1870 -0.6987 -0.4300
    8CHTO   H60 3279   4.757   9.186   1.240  0.7525  0.5579  1.0624
    8CHTO   C36 3280   4.696   9.312   1.091  0.1409  0.4193  0.2895
    8CHTO   O25 3281   4.749   9.402   0.992  0.4372 -0.7304 -0.2350
    8CHTO   H40 3282   4.676   9.431   0.941 -0.5984  2.0817  2.7098
    8CHTO   O15 3283   4.974   8.917   1.018 -0.0798  0.0716  0.2342
    8CHTO   C19 3284   5.025   8.923   0.874  0.4555 -0.5458 -0.5122
    8CHTO   H47 3285   5.007   8.819   0.843  0.9927 -0.4613 -1.1053
    8CHTO   C20 3286   4.941   9.015   0.795  0.6290  0.2422  0.6706
    8CHTO   H48 3287   4.934   9.114   0.842 -0.5446  0.1494  0.6837
    8CHTO   O19 3288   4.808   8.952   0.793 -0.2109 -0.0633 -0.3165
    8CHTO   H35 3289   4.772   8.918   0.872  2.4765  1.3523  1.6140
    8CHTO   C21 3290   4.997   9.038   0.648  0.1599 -0.2750  0.5861
    8CHTO   H49 3291   4.984   8.948   0.589  1.6607 -0.5303  0.6243
    8CHTO    N4 3292   4.936   9.150   0.577  0.1833 -0.0981  0.4200
    8CHTO   H41 3293   4.871   9.122   0.495 -0.4049  0.1367  0.7992
    8CHTO   H42 3294   5.004   9.226   0.542 -1.2718  1.5947  1.1645
    8CHTO   C22 3295   5.157   9.047   0.650  0.2564 -0.1483  0.2202
    8CHTO   H50 3296   5.196   9.137   0.696  0.2773  0.9975 -1.9638
    8CHTO   O14 3297   5.218   8.942   0.721  0.1900  0.3372  0.3691
    8CHTO   C23 3298   5.177   8.943   0.859  0.6328  0.3626 -0.6036
    8CHTO   H51 3299   5.211   9.038   0.904  1.1632 -0.1123  0.0100
    8CHTO   C34 3300   5.253   8.827   0.924  0.1079  0.1130  0.0050
    8CHTO   O23 3301   5.385   8.870   0.958 -0.5793 -0.2648  0.2961
    8CHTO   H38 3302   5.387   8.935   1.026 -1.7267  0.8987 -0.7536
    8CHTO   O16 3303   5.215   9.025   0.521  0.0950  0.3816  0.7777
    8CHTO   C24 3304   5.365   9.062   0.491 -0.0103 -1.0811 -0.8794
    8CHTO   H52 3305   5.423   9.064   0.583 -2.6782 -1.7709  0.8626
    8CHTO   C26 3306   5.364   9.201   0.424  0.1855 -0.5714 -0.6195
    8CHTO   H54 3307   5.298   9.197   0.335  1.0670 -2.5002 -1.2239
    8CHTO   O20 3308   5.296   9.292   0.514  0.1668 -0.3795  0.4720
    8CHTO   H36 3309   5.356   9.329   0.576  1.5823  0.0548 -1.1214
    8CHTO   C30 3310   5.510   9.243   0.391 -0.1209 -0.3351 -0.6500
    8CHTO   H58 3311   5.570   9.252   0.483  0.4346  1.1583 -1.1375
    8CHTO    N6 3312   5.528   9.373   0.320 -0.3566 -0.6536 -0.0803
    8CHTO   H45 3313   5.467   9.389   0.233  0.4078  0.4034 -0.4296
    8CHTO   H46 3314   5.631   9.378   0.288  0.9407 -1.6802  3.6860
    8CHTO   C33 3315   5.582   9.127   0.310  0.1370 -0.1486 -0.2683
    8CHTO   H61 3316   5.537   9.117   0.210 -0.9754 -0.1296  0.2293
    8CHTO   O18 3317   5.567   9.004   0.379 -0.2625  0.3615  0.4083
    8CHTO   C28 3318   5.433   8.968   0.397  0.6907  0.5085 -0.1777
    8CHTO   H56 3319   5.384   8.962   0.300 -1.4958 -0.4473  0.9536
    8CHTO   C35 3320   5.419   8.824   0.443  0.4744  0.6924 -0.4098
    8CHTO   O24 3321   5.492   8.794   0.563  0.1246 -0.6873  0.4085
    8CHTO   H39 3322   5.577   8.762   0.540  1.0882  1.9988  0.1213
    8CHTO    O9 3323   5.718   9.157   0.286 -0.1512  0.2199  0.1687
    8CHTO   C13 3324   5.803   9.056   0.177 -0.0346  0.0456 -0.0749
    8CHTO   H26 3325   5.745   9.046   0.083  3.3121 -2.3165 -1.9680
    8CHTO   C11 3326   5.833   8.920   0.236 -0.3151 -0.3457 -0.2635
    8CHTO   H24 3327   5.742   8.862   0.256 -0.5826 -0.1981 -1.0615
    8CHTO    O8 3328   5.906   8.935   0.364 -0.0594  0.0416 -0.3766
    8CHTO    H3 3329   5.968   8.870   0.391  0.9527  1.2599  0.2596
    8CHTO    C9 3330   5.910   8.834   0.130 -0.7747  0.5123 -0.1917
    8CHTO   H22 3331   5.840   8.830   0.046  0.2472  1.6018 -1.1161
    8CHTO    N2 3332   5.934   8.688   0.169  0.1719 -0.0990 -0.0984
    8CHTO   H10 3333   5.857   8.623   0.131 -0.0682  0.8059 -1.1784
    8CHTO   H11 3334   6.031   8.653   0.137  0.3833  1.0557 -0.7333
    8CHTO    C7 3335   6.042   8.916   0.086 -0.7978  0.1071  0.0369
    8CHTO   H20 3336   6.021   8.938  -0.020 -0.2866  2.5801  0.4225
    8CHTO    O4 3337   6.058   9.044   0.140  0.5119 -0.0111  0.0765
    8CHTO   C14 3338   5.941   9.125   0.127 -0.1250 -0.2757  0.1063
    8CHTO   H27 3339   5.943   9.147   0.018 -1.0518  1.3999  0.4158
    8CHTO   C18 3340   5.962   9.264   0.200 -0.8410  0.6760  0.2346
    8CHTO   O13 3341   6.082   9.332   0.154 -0.5892  0.8249 -0.0936
    8CHTO    H7 3342   6.078   9.422   0.181 -2.4952  1.1493 -1.3552
    8CHTO    O2 3343   6.190   8.835   0.125  0.5702  0.1838  0.5618
    8CHTO    C1 3344   6.281   8.828   0.018  0.8519  0.2503 -0.7393
    8CHTO   H14 3345   6.239   8.877  -0.073 -0.8691  1.8338  0.8560
    8CHTO    C2 3346   6.303   8.673  -0.015  0.0832  0.4338  0.2582
    8CHTO   H15 3347   6.329   8.617   0.076  1.4562 -1.3795 -1.2206
    8CHTO    O6 3348   6.181   8.616  -0.062  0.0023  0.7599 -0.3034
    8CHTO    H1 3349   6.187   8.523  -0.066 -1.0706  0.6740 -0.1853
    8CHTO    C3 3350   6.409   8.650  -0.134 -0.8144  0.3993  0.6921
    8CHTO   H16 3351   6.358   8.683  -0.226 -1.2164 -0.0872  0.7405
    8CHTO    N1 3352   6.442   8.499  -0.146 -0.6205  0.3440 -0.7780
    8CHTO    H8 3353   6.414   8.460  -0.242  0.3350 -1.8770 -0.1907
    8CHTO    H9 3354   6.399   8.445  -0.063 -0.7323  2.8280  0.8149
    8CHTO    C4 3355   6.531   8.740  -0.123  0.8132  0.1417 -0.0270
    8CHTO   H17 3356   6.609   8.689  -0.066  2.1353  0.3228 -1.6365
    8CHTO    O1 3357   6.501   8.876  -0.074 -0.6551  0.4390 -0.2218
    8CHTO    C5 3358   6.421   8.885   0.042 -0.0087  0.2976  0.2679
    8CHTO   H18 3359   6.474   8.829   0.119 -0.6051 -0.9875 -0.2414
    8CHTO   C16 3360   6.412   9.043   0.081 -0.1973 -0.0497 -0.8228
    8CHTO   O11 3361   6.346   9.055   0.213 -0.2006  0.6364  0.7767
    8CHTO    H5 3362   6.339   8.974   0.260 -3.9715  0.2253 -0.2812
    8CHTO    O3 3363   6.578   8.764  -0.257  0.1073  0.0357 -0.4273
    8CHTO    C6 3364   6.717   8.813  -0.270 -0.3587 -0.3330 -0.2974
    8CHTO   H19 3365   6.750   8.862  -0.178  0.0045  0.5526 -0.8955
    8CHTO    C8 3366   6.820   8.701  -0.306  0.0838  0.1652 -0.3262
    8CHTO   H21 3367   6.790   8.649  -0.397 -0.8488  0.5650 -0.2492
    8CHTO    O7 3368   6.843   8.607  -0.199  0.2086  0.1138 -0.8488
    8CHTO    H2 3369   6.805   8.522  -0.212  2.2133 -0.9355  0.0332
    8CHTO   C12 3370   6.955   8.771  -0.346  0.0463 -0.5032 -0.4715
    8CHTO   H25 3371   7.001   8.809  -0.253 -1.7313  0.3581  0.0723
    8CHTO    N3 3372   7.056   8.675  -0.402  0.5152 -0.3295 -0.2968
    8CHTO   H12 3373   7.137   8.744  -0.420 -1.2802  1.7637 -0.4516
    8CHTO   H13 3374   7.027   8.644  -0.501 -0.3859 -0.4437  0.0017
    8CHTO   C15 3375   6.936   8.893  -0.446 -0.9172  0.7356 -0.2273
    8CHTO   H28 3376   6.920   8.854  -0.547  0.5186 -0.2033 -0.1053
    8CHTO   O10 3377   7.083   8.990  -0.463  0.5723 -0.5249 -0.4015
    8CHTO    H4 3378   7.153   8.943  -0.503  1.6184  0.0101  0.7587
    8CHTO    O5 3379   6.841   8.990  -0.399 -0.1651  0.0455 -0.3050
    8CHTO   C10 3380   6.711   8.926  -0.379 -1.0320 -0.3455  0.1914
    8CHTO   H23 3381   6.686   8.881  -0.475  0.3076  1.3158 -0.9799
    8CHTO   C17 3382   6.611   9.040  -0.354  0.6538 -0.1043 -0.1002
    8CHTO   O12 3383   6.638   9.103  -0.229 -0.4365 -0.2609  0.2342
    8CHTO    H6 3384   6.562   9.143  -0.191  0.0505  1.2937 -0.4402
    9CHTO  H203 3385   6.656   3.521   1.858  0.1336  0.6475  1.6148
    9CHTO   O82 3386   6.565   3.501   1.871  0.1297 -0.4050  0.0531
    9CHTO  C123 3387   6.531   3.405   1.774 -0.6272 -0.3540 -0.7929
    9CHTO  H227 3388   6.449   3.343   1.812 -3.4244  2.1086 -2.6078
    9CHTO   O77 3389   6.497   3.487   1.653 -0.2052 -0.3270 -0.7207
    9CHTO  C118 3390   6.435   3.410   1.552  0.0276  0.3391  0.8375
    9CHTO  H222 3391   6.352   3.352   1.595 -3.4813  3.3933 -1.4738
    9CHTO  C125 3392   6.371   3.512   1.445  0.2094  0.4296  0.3131
    9CHTO   O84 3393   6.286   3.614   1.506 -0.4857  0.0576 -0.3840
    9CHTO  H205 3394   6.316   3.628   1.594  2.4165 -0.4294 -1.2475
    9CHTO  C114 3395   6.544   3.312   1.495 -0.2565 -0.9390  0.1631
    9CHTO  H218 3396   6.621   3.372   1.446 -0.1496  0.9063  2.5325
    9CHTO  C116 3397   6.603   3.220   1.603 -0.5157 -0.2036 -0.3427
    9CHTO  H220 3398   6.530   3.142   1.634  1.6271 -3.3801 -3.0024
    9CHTO   O79 3399   6.712   3.147   1.540 -0.1179 -0.1905 -0.1616
    9CHTO  H201 3400   6.692   3.079   1.479 -2.1581  0.4450 -0.2452
    9CHTO  C120 3401   6.644   3.313   1.728  0.4651  0.0114 -0.0452
    9CHTO  H224 3402   6.724   3.375   1.683 -1.7206  2.4934 -0.6373
    9CHTO   N21 3403   6.703   3.233   1.836  0.5294  0.3492 -0.3924
    9CHTO  H211 3404   6.624   3.199   1.901  0.8631 -1.3396 -0.8563
    9CHTO  H212 3405   6.769   3.153   1.807  0.7245  0.2793  0.2348
    9CHTO   O75 3406   6.467   3.243   1.395  0.7298  0.5900  0.3488
    9CHTO  C112 3407   6.533   3.249   1.232 -0.2047 -0.1378 -0.1346
    9CHTO  H216 3408   6.632   3.201   1.236 -0.1870 -0.0729  0.2678
    9CHTO   O73 3409   6.543   3.387   1.195  0.2729 -0.2224 -0.3152
    9CHTO  C113 3410   6.610   3.405   1.072 -0.7901 -0.4120 -0.2466
    9CHTO  H217 3411   6.707   3.352   1.084  0.0928  1.3693  0.8012
    9CHTO  C124 3412   6.619   3.553   1.047 -0.1445 -0.0190 -0.0786
    9CHTO   O83 3413   6.500   3.627   1.080  0.2454 -0.4529 -0.1661
    9CHTO  H204 3414   6.523   3.717   1.091  0.1663 -0.1955 -2.0024
    9CHTO  C109 3415   6.535   3.335   0.953  0.1030 -0.0655 -0.0751
    9CHTO  H213 3416   6.438   3.385   0.943 -0.3991 -1.3222 -1.5790
    9CHTO  C110 3417   6.506   3.189   0.989  0.3050 -0.3798  0.4575
    9CHTO  H214 3418   6.596   3.128   0.982  1.1884  0.8372  0.9896
    9CHTO   O78 3419   6.420   3.132   0.894 -0.1770 -0.0001  0.1189
    9CHTO  H200 3420   6.407   3.040   0.905  0.5927  0.0378  1.4659
    9CHTO  C111 3421   6.446   3.171   1.132 -0.5789  0.0787  0.7781
    9CHTO  H215 3422   6.346   3.216   1.132  1.3050  4.5579  0.1885
    9CHTO   N19 3423   6.437   3.027   1.177  0.7438  0.3587  0.0677
    9CHTO  H207 3424   6.404   2.972   1.090  1.5192 -1.3274  0.8403
    9CHTO  H208 3425   6.531   2.983   1.207  0.9615  1.4149  0.9951
    9CHTO   O74 3426   6.611   3.355   0.826 -0.3455 -0.1091 -0.2182
    9CHTO  C115 3427   6.749   3.242   0.815 -0.1775  0.4148  0.3828
    9CHTO  H219 3428   6.786   3.210   0.912  1.2958  0.1036 -0.2681
    9CHTO   O76 3429   6.701   3.105   0.746 -0.0058  0.1270  0.0437
    9CHTO  C122 3430   6.654   3.123   0.616 -0.7885  0.3436  0.2562
    9CHTO  H226 3431   6.567   3.187   0.612  0.4711  2.1708  1.5070
    9CHTO  C126 3432   6.598   2.979   0.586 -0.0552  0.4087 -0.2643
    9CHTO   O85 3433   6.456   2.946   0.591  0.4208 -0.0347 -0.1976
    9CHTO  H206 3434   6.445   2.860   0.555 -1.1780  0.8300 -1.8385
    9CHTO  C121 3435   6.776   3.179   0.524  0.9639 -0.6424  0.3816
    9CHTO  H225 3436   6.859   3.106   0.535 -0.4464 -2.1381  1.1259
    9CHTO   O81 3437   6.739   3.189   0.380 -0.4276  0.0065  0.4454
    9CHTO  H202 3438   6.788   3.251   0.328  0.4195 -1.1684 -0.1685
    9CHTO  C119 3439   6.825   3.317   0.576 -0.8550 -0.3100 -0.2435
    9CHTO  H223 3440   6.914   3.346   0.519 -2.0131 -1.4785 -2.7531
    9CHTO  C117 3441   6.863   3.312   0.731 -0.2607  0.0090 -0.4486
    9CHTO  H221 3442   6.877   3.410   0.776 -2.2652  0.1751 -0.1253
    9CHTO   N20 3443   6.996   3.246   0.743  0.2341  0.1694  0.6321
    9CHTO  H209 3444   7.075   3.295   0.688  0.4355  0.1940  0.9411
    9CHTO  H210 3445   6.983   3.148   0.699 -0.0612  0.8756 -0.8912
    9CHTO   O80 3446   6.715   3.444   0.537 -0.4832  0.0284  0.5316
    9CHTO  C103 3447   6.776   3.593   0.502 -0.1404 -0.0285 -0.5833
    9CHTO  H190 3448   6.852   3.621   0.574 -0.4813 -0.8960  0.1183
    9CHTO  C101 3449   6.830   3.605   0.351 -0.5999  0.3676  0.3477
    9CHTO  H188 3450   6.755   3.565   0.282 -0.1351 -1.3409  0.8144
    9CHTO   O68 3451   6.938   3.515   0.333  0.5044  0.0812  0.0038
    9CHTO  H168 3452   7.014   3.536   0.385  0.6075 -0.0129 -0.1066
    9CHTO   C99 3453   6.879   3.760   0.322 -0.2550  0.6033 -0.9592
    9CHTO  H186 3454   6.963   3.777   0.392 -0.2691 -0.8050 -0.5716
    9CHTO   N17 3455   6.935   3.792   0.186  0.2024  0.8736 -0.0554
    9CHTO  H174 3456   6.879   3.753   0.102  2.8515 -0.4128 -1.3031
    9CHTO  H175 3457   6.960   3.897   0.178 -0.2370  0.9093 -1.1272
    9CHTO   C97 3458   6.773   3.857   0.374  0.3867  0.1217 -0.3915
    9CHTO  H184 3459   6.690   3.857   0.302  0.2744  0.7709 -0.2703
    9CHTO   O64 3460   6.724   3.829   0.505  0.3936  0.7149 -0.1526
    9CHTO  C104 3461   6.662   3.697   0.520 -0.0825  0.6186  0.8336
    9CHTO  H191 3462   6.579   3.672   0.453  0.2113  1.1042  0.2837
    9CHTO  C108 3463   6.623   3.682   0.666  0.1459  0.2586 -0.1064
    9CHTO   O71 3464   6.507   3.607   0.685 -0.7944 -0.1302  0.0302
    9CHTO  H171 3465   6.431   3.652   0.655  0.9032  2.5693 -0.4140
    9CHTO   O62 3466   6.817   3.984   0.409 -0.0076 -0.2144 -0.0956
    9CHTO   C91 3467   6.809   4.090   0.313  0.2526  0.2836 -0.3728
    9CHTO  H178 3468   6.823   4.052   0.212 -0.7883 -0.2673 -0.3206
    9CHTO   C92 3469   6.921   4.188   0.345 -0.3977 -0.2800 -0.2177
    9CHTO  H179 3470   7.017   4.135   0.339  0.3916  0.9651  1.2036
    9CHTO   O66 3471   6.932   4.282   0.236  0.2877 -0.2463  0.4888
    9CHTO  H166 3472   6.850   4.310   0.202  0.8830 -0.5500 -1.2507
    9CHTO   C93 3473   6.902   4.266   0.484 -1.0347  0.5670 -0.3373
    9CHTO  H180 3474   6.976   4.347   0.480  1.1354 -1.2482  1.4084
    9CHTO   N16 3475   6.945   4.210   0.611 -0.2800  0.1851  0.0660
    9CHTO  H172 3476   7.046   4.171   0.609 -0.8193 -1.1735 -2.5332
    9CHTO  H173 3477   6.879   4.130   0.641 -0.4157  0.4212  0.3976
    9CHTO   C94 3478   6.762   4.318   0.489  0.7775 -0.2323 -0.1347
    9CHTO  H181 3479   6.700   4.268   0.564  1.2250 -0.4458  0.0994
    9CHTO   O61 3480   6.690   4.298   0.362 -0.1376  0.1318 -0.3189
    9CHTO   C95 3481   6.669   4.162   0.324 -0.1594 -0.0489  0.6952
    9CHTO  H182 3482   6.607   4.109   0.396  0.4511 -1.1913  0.3919
    9CHTO  C106 3483   6.602   4.148   0.186 -0.1316  0.6172  0.2549
    9CHTO   O69 3484   6.463   4.190   0.196  0.3121  0.0927  0.0051
    9CHTO  H169 3485   6.420   4.127   0.143  1.7493 -1.0818  0.2111
    9CHTO   O63 3486   6.768   4.476   0.519  0.3948  0.0625  0.4112
    9CHTO   C96 3487   6.629   4.536   0.597  0.1588 -0.5521 -0.0090
    9CHTO  H183 3488   6.604   4.473   0.682 -1.3739  1.6987  1.2723
    9CHTO   C98 3489   6.501   4.544   0.509 -0.2822 -0.6162 -0.9615
    9CHTO  H185 3490   6.522   4.592   0.413  1.0850  2.5560  0.8473
    9CHTO   O67 3491   6.449   4.412   0.480  0.2313  0.8095  0.3146
    9CHTO  H167 3492   6.478   4.347   0.542 -0.6640  0.5635  0.4800
    9CHTO  C102 3493   6.384   4.616   0.585  0.5861 -0.3287 -0.6916
    9CHTO  H189 3494   6.350   4.543   0.659 -0.6382  1.0243  0.1042
    9CHTO   N18 3495   6.259   4.640   0.501 -0.3962 -0.1807 -0.3710
    9CHTO  H176 3496   6.187   4.695   0.560  0.2629 -1.7808  2.0149
    9CHTO  H177 3497   6.278   4.687   0.406 -0.4525  0.2307 -0.1770
    9CHTO  C105 3498   6.432   4.753   0.642  0.0218 -0.3344  0.0950
    9CHTO  H192 3499   6.460   4.817   0.558  0.2556 -1.4444 -0.6869
    9CHTO   O65 3500   6.546   4.730   0.726  0.4697  0.1773 -0.5947
    9CHTO  C100 3501   6.659   4.688   0.649 -0.1141  0.2075 -0.5203
    9CHTO  H187 3502   6.678   4.756   0.564 -0.3687  1.4737  0.4194
    9CHTO  C107 3503   6.785   4.698   0.749 -0.0257  0.0482  0.5950
    9CHTO   O70 3504   6.909   4.687   0.682 -0.1032 -0.1245  0.4694
    9CHTO  H170 3505   6.958   4.765   0.668 -2.0504  1.0107 -0.1164
    9CHTO   O57 3506   6.337   4.819   0.735 -0.3970 -0.0512 -0.5755
    9CHTO   C85 3507   6.284   4.952   0.720  0.1728 -0.8151  0.1775
    9CHTO  H157 3508   6.234   4.980   0.624 -0.4992  1.3196  1.1236
    9CHTO   C83 3509   6.394   5.069   0.719 -0.6955 -0.1951  0.4771
    9CHTO  H155 3510   6.446   5.061   0.624  0.8292 -0.3049  1.2948
    9CHTO   O56 3511   6.496   5.045   0.824  0.3635  0.7216  0.5909
    9CHTO  H135 3512   6.513   4.952   0.829 -0.2716  0.6192  0.9332
    9CHTO   C81 3513   6.325   5.209   0.732  0.0197 -0.1588  0.1512
    9CHTO  H153 3514   6.257   5.227   0.648 -0.6477 -0.2514  0.6690
    9CHTO   N14 3515   6.418   5.324   0.719 -0.6081 -0.8171  0.3967
    9CHTO  H141 3516   6.471   5.320   0.626  0.7516  2.5721  0.9754
    9CHTO  H142 3517   6.377   5.421   0.735 -0.0922 -0.4871 -0.2522
    9CHTO   C79 3518   6.239   5.215   0.868 -0.6550 -0.5387  0.5621
    9CHTO  H151 3519   6.199   5.316   0.877 -0.4757 -0.4144  0.0036
    9CHTO   O52 3520   6.137   5.113   0.856 -0.3129 -0.2384 -0.2399
    9CHTO   C86 3521   6.184   4.978   0.839 -0.3888  0.0942  0.3135
    9CHTO  H158 3522   6.231   4.951   0.936  1.1019 -1.5907 -0.8554
    9CHTO   C90 3523   6.060   4.885   0.827  0.5204  0.0651  0.5612
    9CHTO   O60 3524   6.082   4.744   0.834 -0.1011 -0.2535 -0.8006
    9CHTO  H138 3525   6.128   4.739   0.916  0.0085  1.9026 -0.7140
    9CHTO   O50 3526   6.317   5.188   0.987  0.0980 -0.3603 -0.3059
    9CHTO   C73 3527   6.318   5.224   1.125 -0.2753  0.6117  0.7747
    9CHTO  H145 3528   6.213   5.224   1.157 -0.6547 -1.6372 -0.4345
    9CHTO   C74 3529   6.384   5.367   1.140 -0.2102  0.0497  0.2547
    9CHTO  H146 3530   6.328   5.434   1.074 -1.5009 -1.4229 -0.1618
    9CHTO   O54 3531   6.364   5.406   1.274  0.5523 -0.2465  0.2432
    9CHTO  H133 3532   6.392   5.495   1.290 -0.2639 -0.1075  0.9268
    9CHTO   C75 3533   6.536   5.364   1.103  0.3728  0.4245  0.3328
    9CHTO  H147 3534   6.546   5.330   0.999 -0.4093 -0.5577  0.5691
    9CHTO   N13 3535   6.597   5.502   1.117 -0.4955  0.6478 -0.4436
    9CHTO  H139 3536   6.543   5.561   1.189 -0.2568 -0.0623  0.3320
    9CHTO  H140 3537   6.696   5.506   1.159 -1.6558  1.7094  2.2736
    9CHTO   C76 3538   6.597   5.252   1.199  0.1832  0.0325 -0.9747
    9CHTO  H148 3539   6.601   5.300   1.296 -0.4809  1.0108 -1.4294
    9CHTO   O49 3540   6.537   5.122   1.187 -0.6987  0.2416  0.0742
    9CHTO   C77 3541   6.393   5.121   1.207  0.0174 -1.2540 -0.2899
    9CHTO  H149 3542   6.365   5.120   1.312 -1.4455 -0.5688 -0.6640
    9CHTO   C88 3543   6.363   4.977   1.174  0.0424 -0.1004 -0.2953
    9CHTO   O58 3544   6.421   4.876   1.302  0.4102  0.4116 -0.5159
    9CHTO  H136 3545   6.464   4.807   1.255 -0.9207 -0.2267 -0.8015
    9CHTO   O51 3546   6.734   5.219   1.152 -0.3099 -0.8905  0.6716
    9CHTO   C78 3547   6.820   5.134   1.249  0.1320  0.7942  0.5262
    9CHTO  H150 3548   6.758   5.079   1.323 -0.6325 -0.2106 -0.8364
    9CHTO   C80 3549   6.910   5.228   1.324  0.0850 -0.5078 -0.0262
    9CHTO  H152 3550   6.964   5.292   1.251  0.4049  0.1667  0.7796
    9CHTO   O55 3551   6.829   5.318   1.401  0.9003  0.0389  0.2522
    9CHTO  H134 3552   6.883   5.387   1.435  1.5295  0.5756 -1.8025
    9CHTO   C84 3553   7.013   5.146   1.414  0.7049 -0.2246  0.2498
    9CHTO  H156 3554   6.954   5.112   1.500  1.3989 -1.4221  0.2696
    9CHTO   N15 3555   7.114   5.242   1.473  0.4165  0.7008 -0.3293
    9CHTO  H143 3556   7.079   5.281   1.566  0.8485 -0.7618  0.4648
    9CHTO  H144 3557   7.209   5.198   1.494  1.1572  3.3479  2.0472
    9CHTO   C87 3558   7.090   5.030   1.342  0.0846 -0.6184  0.1728
    9CHTO  H159 3559   7.164   5.074   1.276 -0.3842  2.2080  1.4485
    9CHTO   O53 3560   6.976   4.937   1.269  0.1107 -0.2924 -0.1365
    9CHTO   C82 3561   6.904   5.030   1.173  0.7368  0.7057  0.1941
    9CHTO  H154 3562   6.973   5.082   1.106 -0.3056  2.0238  0.1272
    9CHTO   C89 3563   6.820   4.945   1.090 -0.7495  0.1684  0.2251
    9CHTO   O59 3564   6.728   4.879   1.178 -0.1378  0.0734 -0.3048
    9CHTO  H137 3565   6.649   4.850   1.138  0.0248 -1.3290  0.3756
    9CHTO   O45 3566   7.168   4.930   1.471  0.5233 -0.0823 -0.1213
    9CHTO   C67 3567   7.241   4.817   1.430  0.1779 -0.2014 -0.9707
    9CHTO  H124 3568   7.186   4.756   1.359 -0.0133 -0.9155 -0.2098
    9CHTO   C65 3569   7.373   4.869   1.362 -0.0388 -0.0834  0.7977
    9CHTO  H122 3570   7.359   4.977   1.371 -1.1604 -0.0309 -1.3085
    9CHTO   O44 3571   7.361   4.834   1.218 -0.2696  0.2956 -0.5450
    9CHTO  H102 3572   7.442   4.848   1.173  1.0332  0.0236  1.6221
    9CHTO   C63 3573   7.505   4.812   1.434  0.3244 -0.7411  0.0698
    9CHTO  H120 3574   7.506   4.854   1.535  2.0605  0.3881 -0.4053
    9CHTO   N11 3575   7.636   4.859   1.378  0.3172 -0.3905 -1.0018
    9CHTO  H108 3576   7.656   4.799   1.292 -1.4943 -1.3860 -0.7637
    9CHTO  H109 3577   7.638   4.963   1.356  1.2845  0.4985  2.8145
    9CHTO   C61 3578   7.488   4.658   1.458  0.4361  0.1988 -0.3656
    9CHTO  H118 3579   7.570   4.621   1.522 -1.2122 -0.2881  1.5009
    9CHTO   O40 3580   7.365   4.612   1.521  0.6603  0.7814  0.8132
    9CHTO   C68 3581   7.281   4.727   1.555 -0.1269 -0.2333  0.0519
    9CHTO  H125 3582   7.332   4.787   1.633  1.2757 -0.7438 -0.4628
    9CHTO   C72 3583   7.146   4.667   1.617 -0.4551 -0.0604  0.0553
    9CHTO   O48 3584   7.162   4.580   1.726  0.2746 -0.2420  0.1969
    9CHTO  H105 3585   7.209   4.504   1.696 -1.3002 -0.9643 -0.5150
    9CHTO   O38 3586   7.490   4.605   1.326 -0.4740 -0.4379  0.6023
    9CHTO   C55 3587   7.524   4.466   1.307 -0.4327 -0.2935  0.0228
    9CHTO  H112 3588   7.514   4.417   1.405 -1.9405  2.5701  1.3538
    9CHTO   C56 3589   7.669   4.450   1.247 -0.0512  0.5964 -0.4420
    9CHTO  H113 3590   7.669   4.530   1.172 -0.8923  3.6197  2.6379
    9CHTO   O42 3591   7.776   4.485   1.342 -0.1901  0.1001 -0.4276
    9CHTO  H100 3592   7.774   4.576   1.364  0.7011 -0.1830  0.8455
    9CHTO   C57 3593   7.700   4.305   1.185  0.0150  0.1824  0.3031
    9CHTO  H114 3594   7.739   4.248   1.270  0.0538  0.5756  0.5510
    9CHTO   N10 3595   7.807   4.307   1.085  0.2182 -0.1066 -0.6790
    9CHTO  H106 3596   7.854   4.212   1.062 -0.5954 -0.2074 -2.0175
    9CHTO  H107 3597   7.765   4.346   0.993 -1.9549 -1.0079 -0.0893
    9CHTO   C58 3598   7.576   4.228   1.129  0.7255  0.4682 -0.3092
    9CHTO  H115 3599   7.559   4.258   1.024  1.9386  0.2592 -0.5770
    9CHTO   O37 3600   7.455   4.254   1.200 -0.3988 -0.3202  0.3461
    9CHTO   C59 3601   7.420   4.394   1.207 -0.5147 -0.2924 -0.2395
    9CHTO  H116 3602   7.421   4.437   1.106 -0.7322 -1.5480 -0.7867
    9CHTO   C70 3603   7.278   4.405   1.273  0.3261  0.2862  0.7600
    9CHTO   O46 3604   7.267   4.345   1.402  0.3118  0.1437  0.0074
    9CHTO  H103 3605   7.310   4.398   1.467 -1.2501  1.6569 -0.1669
    9CHTO   O39 3606   7.601   4.071   1.144 -0.7535 -0.0690  0.5521
    9CHTO   C60 3607   7.490   3.982   1.105 -0.2512 -0.7737  0.2596
    9CHTO  H117 3608   7.398   4.039   1.105  1.2386  1.7051  1.7531
    9CHTO   C62 3609   7.518   3.911   0.970  0.2845 -0.8207  0.1903
    9CHTO  H119 3610   7.528   4.002   0.907  2.2538  0.2792  2.0154
    9CHTO   O43 3611   7.645   3.843   0.959 -0.1780  0.4831 -0.2254
    9CHTO  H101 3612   7.692   3.822   1.038  1.4904  0.9022 -1.0836
    9CHTO   C66 3613   7.399   3.820   0.931 -0.2539 -0.2304  0.9463
    9CHTO  H123 3614   7.305   3.876   0.934 -0.6246 -0.6469 -1.7553
    9CHTO   N12 3615   7.400   3.772   0.790 -0.3190 -0.1614  0.0975
    9CHTO  H110 3616   7.500   3.736   0.772 -0.5398 -1.3375  1.1163
    9CHTO  H111 3617   7.320   3.712   0.750 -0.5345  0.8252 -0.9776
    9CHTO   C69 3618   7.391   3.695   1.027 -0.4795 -0.3600  0.1581
    9CHTO  H126 3619   7.483   3.633   1.027 -0.1044  0.1825  0.5725
    9CHTO   O41 3620   7.372   3.765   1.183 -0.6473 -0.0289  0.2361
    9CHTO   C64 3621   7.471   3.870   1.215  0.1865  0.3629  0.1583
    9CHTO  H121 3622   7.569   3.831   1.250 -0.2791 -0.3972  0.6303
    9CHTO   C71 3623   7.427   3.944   1.344  0.4667  0.0496  1.1645
    9CHTO   O47 3624   7.539   4.001   1.421 -0.1542 -0.3573  0.0945
    9CHTO  H104 3625   7.520   4.093   1.420 -0.7012 -0.4720 -0.0241
    9CHTO   O34 3626   7.267   3.605   1.010  0.2070 -0.2620  0.6960
    9CHTO   C49 3627   7.125   3.543   1.046  0.0379 -1.1554  0.4308
    9CHTO   H91 3628   7.110   3.460   0.977  0.5462  0.6604 -1.9442
    9CHTO   C47 3629   7.016   3.650   1.014  0.7252  0.9532  1.3626
    9CHTO   H89 3630   6.919   3.597   1.028 -0.1788  1.4864 -2.4543
    9CHTO   O33 3631   7.020   3.688   0.878 -0.0322  0.1148  0.8532
    9CHTO   H70 3632   7.101   3.727   0.850  0.4819 -0.3354  1.7071
    9CHTO   C45 3633   7.032   3.758   1.128  0.0437  0.5891  0.3410
    9CHTO   H87 3634   7.134   3.797   1.117  0.4770 -0.4799  0.5283
    9CHTO    N8 3635   6.932   3.870   1.110 -0.1177  0.0025  0.4185
    9CHTO   H75 3636   6.971   3.934   1.032 -0.1477 -2.1537 -1.3835
    9CHTO   H76 3637   6.833   3.830   1.095 -0.8649  1.4836  1.2648
    9CHTO   C43 3638   7.026   3.703   1.282 -0.0986  0.5559  0.4779
    9CHTO   H85 3639   7.043   3.792   1.342 -1.7626  0.4158  1.1845
    9CHTO   O29 3640   7.128   3.601   1.300 -0.1290 -0.2098 -0.2632
    9CHTO   C50 3641   7.125   3.495   1.198  0.0989  0.3017  1.0232
    9CHTO   H92 3642   7.220   3.442   1.216 -0.2942 -1.1210 -1.0103
    9CHTO   C54 3643   7.025   3.383   1.236 -0.1637 -0.6358 -0.2308
    9CHTO   O36 3644   7.019   3.294   1.130  0.6480 -0.1991 -0.2693
    9CHTO   H72 3645   6.968   3.223   1.163  0.2279  1.1417  2.0539
    9CHTO   O27 3646   6.895   3.652   1.330 -0.2537  0.6715  0.1490
    9CHTO   C37 3647   6.811   3.654   1.445 -0.6022  0.5175  0.0257
    9CHTO   H79 3648   6.739   3.572   1.448 -0.4467  0.4602  2.7431
    9CHTO   C38 3649   6.907   3.624   1.566  0.0662  0.5704  0.1184
    9CHTO   H80 3650   7.006   3.667   1.545  0.5793 -0.4718  0.3596
    9CHTO   O31 3651   6.928   3.486   1.560  0.1725  0.6570 -0.1685
    9CHTO   H68 3652   7.004   3.453   1.605 -0.3713  0.2106  0.4362
    9CHTO   C39 3653   6.855   3.664   1.699  0.2039 -0.4301 -0.3307
    9CHTO   H81 3654   6.793   3.582   1.734  1.5663 -0.7217  1.4925
    9CHTO    N7 3655   6.968   3.667   1.804  0.4767  0.1266  0.0508
    9CHTO   H73 3656   6.941   3.619   1.896 -0.9351 -1.5104 -1.1797
    9CHTO   H74 3657   7.058   3.623   1.763 -0.9394 -1.5391 -1.3671
    9CHTO   C40 3658   6.769   3.801   1.695 -0.0463  0.0604 -0.2145
    9CHTO   H82 3659   6.822   3.895   1.685 -0.7602  0.7543  2.2149
    9CHTO   O26 3660   6.671   3.784   1.584 -0.2789  0.0281 -0.5486
    9CHTO   C41 3661   6.739   3.790   1.463 -0.4075  0.2237 -0.2926
    9CHTO   H83 3662   6.804   3.878   1.457 -1.3555  0.8776 -1.0879
    9CHTO   C52 3663   6.640   3.804   1.356 -0.1861 -0.4492 -0.5743
    9CHTO   O35 3664   6.557   3.944   1.355 -0.6162  0.6056  0.7270
    9CHTO   H71 3665   6.480   3.925   1.306 -0.4039  2.5183 -0.3812
    9CHTO   O28 3666   6.673   3.812   1.803 -0.1258  0.4192  0.1448
    9CHTO   C42 3667   6.560   3.905   1.822  0.4473 -0.6893 -1.0922
    9CHTO   H84 3668   6.536   3.906   1.928 -1.3248  2.1674 -1.4839
    9CHTO   C44 3669   6.428   3.867   1.750  0.3609  0.8530  0.7891
    9CHTO   H86 3670   6.444   3.845   1.645 -2.5532 -0.5963  0.5927
    9CHTO   O32 3671   6.391   3.737   1.807  0.1206 -0.7316  0.2401
    9CHTO   H69 3672   6.446   3.666   1.782 -0.9486 -1.5008  0.0123
    9CHTO   C48 3673   6.324   3.990   1.749  0.0775 -0.2990  0.5028
    9CHTO   H90 3674   6.289   4.022   1.847 -2.0657 -4.6700  1.3044
    9CHTO    N9 3675   6.193   3.960   1.687 -0.1633 -0.7401  0.0326
    9CHTO   H77 3676   6.119   4.038   1.697 -0.6782 -1.1112 -0.7685
    9CHTO   H78 3677   6.155   3.870   1.732  0.7554 -0.8956  0.4971
    9CHTO   C51 3678   6.400   4.109   1.682  0.0066 -0.3750  0.6843
    9CHTO   H93 3679   6.453   4.075   1.593  0.0315 -2.4892  1.4656
    9CHTO   O30 3680   6.496   4.143   1.783 -0.4605  0.3114 -0.0841
    9CHTO   C46 3681   6.612   4.047   1.785  0.2376  0.4438 -0.2539
    9CHTO   H88 3682   6.656   4.048   1.685 -0.6687  1.5563 -0.6643
    9CHTO   C53 3683   6.707   4.107   1.895 -0.6115  0.0979  0.0247
    9CHTO   O72 3684   6.842   4.074   1.859 -0.4721 -0.5947  0.7485
    9CHTO  H199 3685   6.882   4.027   1.930  0.1980 -0.0029  0.7721
    9CHTO   O22 3686   6.335   4.235   1.652  0.2769 -0.3279 -0.2609
    9CHTO   C31 3687   6.382   4.326   1.549  0.9571  0.1354 -0.3079
    9CHTO   H59 3688   6.309   4.409   1.553 -1.5465 -2.0376  0.4250
    9CHTO   C29 3689   6.525   4.389   1.581  0.5843  0.7227 -0.1899
    9CHTO   H57 3690   6.604   4.313   1.590 -0.2582 -0.3110 -1.4091
    9CHTO   O21 3691   6.508   4.457   1.709  0.1707 -0.7613 -0.2389
    9CHTO   H37 3692   6.573   4.522   1.725  2.0013 -2.5583 -0.2268
    9CHTO   C27 3693   6.562   4.490   1.469 -0.3140 -0.6461  0.5949
    9CHTO   H55 3694   6.484   4.567   1.463 -0.3805 -0.7779 -0.3507
    9CHTO    N5 3695   6.694   4.556   1.494 -0.1475 -0.7021 -1.1395
    9CHTO   H43 3696   6.733   4.628   1.424  1.3571  1.2918  1.6069
    9CHTO   H44 3697   6.770   4.482   1.514 -0.2265 -0.2616  0.9040
    9CHTO   C25 3698   6.561   4.414   1.334  0.2869 -0.0425 -0.4682
    9CHTO   H53 3699   6.631   4.329   1.333  2.5120  1.7288 -0.5222
    9CHTO   O17 3700   6.418   4.363   1.311 -0.5347 -0.2481  0.5933
    9CHTO   C32 3701   6.376   4.264   1.406  0.7252  0.1447 -0.3426
    9CHTO   H60 3702   6.443   4.179   1.407  1.3430  0.5753  3.4096
    9CHTO   C36 3703   6.230   4.211   1.366  0.0668  0.3212 -0.5601
    9CHTO   O25 3704   6.207   4.135   1.244  0.6380  0.4871 -0.0488
    9CHTO   H40 3705   6.162   4.059   1.273 -0.1265  0.6197 -0.8703
    9CHTO   O15 3706   6.601   4.522   1.211 -0.5079 -0.2764  0.0010
    9CHTO   C19 3707   6.588   4.461   1.072  0.0189  0.2204  0.0594
    9CHTO   H47 3708   6.645   4.524   1.003  1.4536 -0.3717  0.6653
    9CHTO   C20 3709   6.649   4.312   1.058 -0.2000 -0.6708  0.8020
    9CHTO   H48 3710   6.610   4.244   1.135  0.2598 -1.6184  0.2148
    9CHTO   O19 3711   6.789   4.331   1.076  0.2057  0.1160  0.4059
    9CHTO   H35 3712   6.816   4.367   1.158 -2.1544  5.1479 -0.8189
    9CHTO   C21 3713   6.620   4.248   0.908 -0.1050  0.8097 -0.0772
    9CHTO   H49 3714   6.691   4.291   0.837  0.2916  0.6165  0.2005
    9CHTO    N4 3715   6.648   4.102   0.902 -0.2021 -0.8731  0.0498
    9CHTO   H41 3716   6.690   4.081   0.805 -0.4467 -0.5604 -0.1251
    9CHTO   H42 3717   6.717   4.073   0.980  0.0341 -0.9801 -0.1993
    9CHTO   C22 3718   6.476   4.279   0.857  0.1031  0.0219 -0.2306
    9CHTO   H50 3719   6.410   4.218   0.919 -0.4953  1.0180  0.1268
    9CHTO   O14 3720   6.449   4.419   0.883 -0.1726  0.1806  0.2439
    9CHTO   C23 3721   6.444   4.464   1.012  0.1304  0.1139  0.5945
    9CHTO   H51 3722   6.375   4.395   1.062 -0.9445  0.3223 -0.5625
    9CHTO   C34 3723   6.376   4.603   1.010 -0.9347  0.5214 -0.2932
    9CHTO   O23 3724   6.322   4.618   1.144 -0.1423  0.1995  0.1390
    9CHTO   H38 3725   6.378   4.666   1.203 -0.7161 -0.5215  1.2792
    9CHTO   O16 3726   6.453   4.265   0.718 -0.1184 -0.4649  0.1146
    9CHTO   C24 3727   6.344   4.169   0.696  0.6027 -0.1698  0.0992
    9CHTO   H52 3728   6.325   4.109   0.784  0.7935 -2.5085 -1.4036
    9CHTO   C26 3729   6.386   4.085   0.572  0.4345  0.4094 -0.4898
    9CHTO   H54 3730   6.410   4.156   0.490  3.3886  2.7897  2.3554
    9CHTO   O20 3731   6.507   4.015   0.596 -0.3457  0.3250  0.4508
    9CHTO   H36 3732   6.511   3.935   0.644  1.3641  1.5285  2.4004
    9CHTO   C30 3733   6.272   3.981   0.530  0.7664  0.8010  0.0443
    9CHTO   H58 3734   6.271   3.903   0.608 -0.2952 -1.0020 -1.7388
    9CHTO    N6 3735   6.306   3.915   0.399  0.0311 -0.3063 -0.6792
    9CHTO   H45 3736   6.235   3.835   0.386 -1.5570  1.1351 -1.0151
    9CHTO   H46 3737   6.407   3.875   0.395  0.1871 -0.0347  0.3575
    9CHTO   C33 3738   6.131   4.047   0.527 -0.3454 -0.5758  0.4015
    9CHTO   H61 3739   6.121   4.098   0.430 -0.6713  0.8140  1.1486
    9CHTO   O18 3740   6.115   4.144   0.636  0.4622 -0.5525 -0.0549
    9CHTO   C28 3741   6.215   4.245   0.660 -0.7998 -0.4324 -0.1436
    9CHTO   H56 3742   6.239   4.321   0.585  0.3393 -0.1836  0.4643
    9CHTO   C35 3743   6.166   4.332   0.773 -0.8577 -0.2979  0.4046
    9CHTO   O24 3744   6.132   4.260   0.894  0.6927 -0.4294  0.1808
    9CHTO   H39 3745   6.071   4.191   0.877  0.2652 -0.0324  0.0813
    9CHTO    O9 3746   6.026   3.942   0.529  0.2695 -0.0079 -0.0031
    9CHTO   C13 3747   5.917   3.960   0.424 -0.3410 -0.2773  0.0146
    9CHTO   H26 3748   5.964   3.990   0.328 -0.4172 -2.3633 -0.7139
    9CHTO   C11 3749   5.813   4.066   0.470 -0.1791  0.4194 -0.3556
    9CHTO   H24 3750   5.865   4.163   0.478  0.0603  0.1567  1.5242
    9CHTO    O8 3751   5.764   4.042   0.601  0.2492  0.2835  0.0378
    9CHTO    H3 3752   5.707   3.967   0.602 -0.1871  0.5725 -1.6358
    9CHTO    C9 3753   5.702   4.070   0.366  0.0872 -0.2268 -1.1318
    9CHTO   H22 3754   5.746   4.091   0.268 -1.9622 -0.3167 -2.0886
    9CHTO    N2 3755   5.614   4.190   0.389 -0.2049  0.4145  0.2847
    9CHTO   H10 3756   5.604   4.212   0.495 -0.7183 -0.7295  0.4833
    9CHTO   H11 3757   5.640   4.272   0.324 -0.6946  0.5196  0.2135
    9CHTO    C7 3758   5.632   3.923   0.349 -1.1310  0.4359  0.6172
    9CHTO   H20 3759   5.639   3.911   0.238  1.4657 -1.7410  0.9507
    9CHTO    O4 3760   5.707   3.831   0.424 -0.2859 -0.0912  0.9757
    9CHTO   C14 3761   5.841   3.822   0.379 -0.0728  0.4934  0.5699
    9CHTO   H27 3762   5.842   3.812   0.269 -1.1510 -0.9734  0.6775
    9CHTO   C18 3763   5.917   3.698   0.433  0.5314 -0.4343 -0.1022
    9CHTO   O13 3764   6.041   3.684   0.363  0.2057 -0.0931 -0.4393
    9CHTO    H7 3765   6.098   3.658   0.433  0.0197  1.4579  0.3034
    9CHTO    O2 3766   5.470   3.913   0.413 -0.4724  0.5892  0.7067
    9CHTO    C1 3767   5.405   3.789   0.435 -0.2337 -0.4937 -0.0280
    9CHTO   H14 3768   5.484   3.717   0.468  0.0408 -0.2299 -0.1056
    9CHTO    C2 3769   5.330   3.737   0.304 -0.0082  0.2300  0.3779
    9CHTO   H15 3770   5.265   3.818   0.267 -1.5282 -1.0980  0.0628
    9CHTO    O6 3771   5.428   3.697   0.203  0.8288  0.3929  0.2426
    9CHTO    H1 3772   5.432   3.765   0.139  1.0926 -1.0602 -1.3147
    9CHTO    C3 3773   5.235   3.610   0.340 -0.2938 -0.3105 -0.3920
    9CHTO   H16 3774   5.290   3.517   0.361  0.5384  0.6803  1.9432
    9CHTO    N1 3775   5.146   3.575   0.221 -0.0649  0.4443 -1.2233
    9CHTO    H8 3776   5.059   3.636   0.201 -2.2263 -1.8026  0.9552
    9CHTO    H9 3777   5.212   3.570   0.136 -2.1575  3.1541 -3.0842
    9CHTO    C4 3778   5.156   3.638   0.476 -0.4780  0.1066  0.1863
    9CHTO   H17 3779   5.072   3.705   0.460 -0.4669  0.2969  0.9176
    9CHTO    O1 3780   5.240   3.678   0.582  0.2446 -0.4855  0.0577
    9CHTO    C5 3781   5.307   3.803   0.557 -1.0103  0.3061 -0.2269
    9CHTO   H18 3782   5.239   3.886   0.538  0.2825  1.2757 -0.6942
    9CHTO   C16 3783   5.381   3.834   0.696  0.0433  0.0621 -0.0774
    9CHTO   O11 3784   5.433   3.968   0.695 -0.4682  0.1982  0.0220
    9CHTO    H5 3785   5.390   4.020   0.761 -3.5367  1.6201 -2.9373
    9CHTO    O3 3786   5.117   3.512   0.534  0.1835  0.3461  0.3792
    9CHTO    C6 3787   4.979   3.516   0.588 -0.5884  0.3096  0.2324
    9CHTO   H19 3788   4.922   3.601   0.550  2.0056  2.1416  0.3308
    9CHTO    C8 3789   4.912   3.382   0.541  0.4415 -0.7052  0.2190
    9CHTO   H21 3790   4.977   3.298   0.564 -1.2234 -2.2000 -0.4979
    9CHTO    O7 3791   4.888   3.398   0.399 -0.2024 -0.2671  0.0482
    9CHTO    H2 3792   4.943   3.332   0.361  1.0906  0.5490  0.4666
    9CHTO   C12 3793   4.774   3.350   0.606  0.1763  0.0132 -0.6968
    9CHTO   H25 3794   4.711   3.435   0.572  0.4057  0.3503 -0.2872
    9CHTO    N3 3795   4.719   3.216   0.555 -0.3876 -0.6960 -0.5742
    9CHTO   H12 3796   4.639   3.233   0.483  1.4546 -2.2618 -3.0902
    9CHTO   H13 3797   4.790   3.147   0.512  0.2312  0.1579 -0.9224
    9CHTO   C15 3798   4.785   3.367   0.765  0.2867 -0.4739  0.3238
    9CHTO   H28 3799   4.846   3.289   0.809  0.1315  0.1448  1.6472
    9CHTO   O10 3800   4.643   3.376   0.845  0.0470  0.5759  0.3906
    9CHTO    H4 3801   4.614   3.292   0.874 -0.1201  0.5174  0.0551
    9CHTO    O5 3802   4.844   3.497   0.791 -0.5475 -0.1807 -0.1263
    9CHTO   C10 3803   4.976   3.525   0.741  0.2835 -0.1985 -0.2677
    9CHTO   H23 3804   5.042   3.446   0.779  0.0803 -0.5867 -0.7065
    9CHTO   C17 3805   5.034   3.655   0.795  0.1177  0.2449 -0.1092
    9CHTO   O12 3806   4.948   3.768   0.769  0.1374 -0.0195 -0.5050
    9CHTO    H6 3807   4.950   3.782   0.676  1.1469  1.1381 -0.3271
   10CHTO  H203 3808   3.386   6.473  -0.698  1.1634  1.3007 -0.2674
   10CHTO   O82 3809   3.337   6.516  -0.630 -0.1383 -0.3762 -0.1384
   10CHTO  C123 3810   3.412   6.590  -0.541 -0.5609 -0.5595  0.4538
   10CHTO  H227 3811   3.416   6.692  -0.583  0.8972 -1.3977 -1.5608
   10CHTO   O77 3812   3.337   6.586  -0.419 -0.2533 -0.4781 -0.4344
   10CHTO  C118 3813   3.384   6.680  -0.320  0.3880  0.1434 -0.2507
   10CHTO  H222 3814   3.388   6.786  -0.351 -2.6949  0.6501  0.9469
   10CHTO  C125 3815   3.270   6.672  -0.211 -0.9905  0.3465 -0.2366
   10CHTO   O84 3816   3.233   6.538  -0.170  0.3726  0.5720  0.0132
   10CHTO  H205 3817   3.172   6.534  -0.099 -1.8015  2.8265 -1.6177
   10CHTO  C114 3818   3.520   6.621  -0.272 -0.0998 -0.1620  0.2560
   10CHTO  H218 3819   3.502   6.524  -0.224 -1.8308  0.0671  0.1001
   10CHTO  C116 3820   3.612   6.611  -0.390  0.4790 -0.3837  0.7895
   10CHTO  H220 3821   3.633   6.714  -0.428 -0.0263 -0.0811  1.3220
   10CHTO   O79 3822   3.734   6.564  -0.342  0.7293  0.4033 -0.2062
   10CHTO  H201 3823   3.727   6.472  -0.327  1.5125  0.4417  0.4288
   10CHTO  C120 3824   3.547   6.524  -0.505  0.0926  0.3978 -0.3610
   10CHTO  H224 3825   3.532   6.423  -0.462  1.6849 -1.7390 -4.5640
   10CHTO   N21 3826   3.635   6.513  -0.624  0.0656  0.4253 -0.5063
   10CHTO  H211 3827   3.621   6.415  -0.668 -1.9969  0.4588  0.0002
   10CHTO  H212 3828   3.734   6.521  -0.582 -0.8641  2.3182  1.3963
   10CHTO   O75 3829   3.558   6.717  -0.166 -0.3484 -0.0722  0.1179
   10CHTO  C112 3830   3.601   6.652  -0.023  0.0772  0.0678  0.8382
   10CHTO  H216 3831   3.665   6.566  -0.047  1.2708  1.2333 -0.2791
   10CHTO   O73 3832   3.482   6.618   0.050 -0.2232 -0.2029 -0.0123
   10CHTO  C113 3833   3.503   6.544   0.175 -0.5475 -0.4286 -0.4545
   10CHTO  H217 3834   3.560   6.455   0.141 -0.9514 -1.2597  1.0060
   10CHTO  C124 3835   3.365   6.492   0.228 -0.1853  0.0301  0.0370
   10CHTO   O83 3836   3.279   6.607   0.247  0.1997  0.0137 -0.6351
   10CHTO  H204 3837   3.225   6.619   0.171  1.2942 -0.5422 -1.5236
   10CHTO  C109 3838   3.582   6.640   0.266  0.5969  0.2644  0.3251
   10CHTO  H213 3839   3.520   6.729   0.282  0.8046  0.2626  1.1425
   10CHTO  C110 3840   3.719   6.683   0.202  0.2909  0.1352 -0.5688
   10CHTO  H214 3841   3.771   6.588   0.186 -0.4732  0.0575 -2.7497
   10CHTO   O78 3842   3.796   6.764   0.288  0.4654 -0.6402 -0.0732
   10CHTO  H200 3843   3.744   6.837   0.315  1.0990 -0.3348  0.3138
   10CHTO  C111 3844   3.694   6.746   0.057  0.2396 -0.2501 -0.2881
   10CHTO  H215 3845   3.642   6.842   0.073  0.2881 -0.4616  1.1841
   10CHTO   N19 3846   3.821   6.781  -0.017  0.2099  0.3161 -0.4705
   10CHTO  H207 3847   3.869   6.685  -0.029 -1.6469 -0.6606 -0.2605
   10CHTO  H208 3848   3.795   6.831  -0.109 -0.6458 -0.1002 -0.4566
   10CHTO   O74 3849   3.604   6.575   0.391  0.1332 -0.0212  0.4937
   10CHTO  C115 3850   3.524   6.624   0.528 -0.1673 -0.3630  0.9435
   10CHTO  H219 3851   3.587   6.695   0.583  0.8256  0.9341 -1.7448
   10CHTO   O76 3852   3.380   6.709   0.493  0.3957  0.0316 -0.0558
   10CHTO  C122 3853   3.288   6.739   0.599 -0.0786  0.4213  0.2156
   10CHTO  H226 3854   3.191   6.765   0.556 -0.2348 -0.8868 -0.2459
   10CHTO  C126 3855   3.323   6.863   0.681 -0.4109  0.7472 -0.4283
   10CHTO   O85 3856   3.318   6.978   0.605  0.1407 -0.1581  0.3081
   10CHTO  H206 3857   3.373   6.966   0.530 -1.3891 -2.1411 -0.5513
   10CHTO  C121 3858   3.265   6.611   0.687 -0.1732  0.1150  0.6930
   10CHTO  H225 3859   3.208   6.650   0.774 -0.9970  2.1480 -0.7126
   10CHTO   O81 3860   3.182   6.515   0.622 -0.4462  0.1819 -0.0545
   10CHTO  H202 3861   3.228   6.444   0.582 -1.2597  0.9363 -2.3983
   10CHTO  C119 3862   3.409   6.556   0.740 -0.8481 -0.7216  0.1208
   10CHTO  H223 3863   3.464   6.638   0.786  0.5616 -2.1693  1.0462
   10CHTO  C117 3864   3.495   6.502   0.623  0.4738  0.0382 -0.4770
   10CHTO  H221 3865   3.441   6.433   0.558 -0.5341  1.0210 -0.6870
   10CHTO   N20 3866   3.624   6.430   0.662  0.3423 -1.0602  1.1292
   10CHTO  H209 3867   3.625   6.328   0.627  1.4151 -0.5844 -0.2252
   10CHTO  H210 3868   3.646   6.430   0.768 -0.2385  0.3357  1.2667
   10CHTO   O80 3869   3.390   6.462   0.860 -0.3976  0.5288  0.0726
   10CHTO  C103 3870   3.359   6.518   1.008  0.0153 -0.0175  0.1052
   10CHTO  H190 3871   3.422   6.466   1.079  2.5591  3.4760  0.5104
   10CHTO  C101 3872   3.375   6.670   1.037  0.1075 -0.1186  0.6830
   10CHTO  H188 3873   3.306   6.737   0.987  1.0696  0.0637 -0.4235
   10CHTO   O68 3874   3.522   6.714   1.002 -0.4548  0.1772  0.0210
   10CHTO  H168 3875   3.592   6.685   1.057 -0.2428  1.9953  0.7397
   10CHTO   C99 3876   3.331   6.694   1.191  0.3846 -0.2754  0.2633
   10CHTO  H186 3877   3.390   6.624   1.255 -1.2190 -2.1209 -0.2372
   10CHTO   N17 3878   3.354   6.833   1.241  0.1427  0.4746  0.3832
   10CHTO  H174 3879   3.431   6.827   1.317  0.3352 -0.7907  0.0889
   10CHTO  H175 3880   3.271   6.898   1.266  0.4933  1.0011  0.1879
   10CHTO   C97 3881   3.184   6.647   1.207 -0.1218 -0.1464  0.0967
   10CHTO  H184 3882   3.126   6.703   1.133 -1.7238  0.5976  1.8836
   10CHTO   O64 3883   3.175   6.507   1.179  0.8884  0.0560 -0.2401
   10CHTO  C104 3884   3.207   6.478   1.045  0.2045 -0.4883  0.6818
   10CHTO  H191 3885   3.146   6.524   0.967  1.5014 -1.7130 -1.1030
   10CHTO  C108 3886   3.183   6.329   1.029  0.1771 -0.3717 -0.6207
   10CHTO   O71 3887   3.044   6.293   1.006 -0.7257 -0.0346 -0.4062
   10CHTO  H171 3888   3.013   6.223   1.061 -1.9849  0.2113 -0.7870
   10CHTO   O62 3889   3.131   6.669   1.337  0.3971  0.0884 -0.2163
   10CHTO   C91 3890   2.989   6.671   1.344  0.4986  0.1517 -0.8898
   10CHTO  H178 3891   2.943   6.634   1.252 -3.4873  1.6584  0.4267
   10CHTO   C92 3892   2.946   6.823   1.368  0.0848  0.5755  0.0145
   10CHTO  H179 3893   2.998   6.866   1.454  0.3278 -3.3860  1.9219
   10CHTO   O66 3894   2.987   6.904   1.254  0.0560 -0.1947  0.0435
   10CHTO  H166 3895   2.947   6.874   1.174  0.3107  0.1789 -0.2291
   10CHTO   C93 3896   2.793   6.826   1.392  0.5386 -0.0819 -0.1888
   10CHTO  H180 3897   2.755   6.786   1.296  1.5865 -0.8250 -0.3054
   10CHTO   N16 3898   2.737   6.962   1.410  0.0367 -0.3843 -0.8291
   10CHTO  H172 3899   2.753   7.008   1.506 -1.3606 -0.5496 -0.5041
   10CHTO  H173 3900   2.779   7.020   1.330 -0.7752 -0.6408 -1.4526
   10CHTO   C94 3901   2.753   6.728   1.514 -0.6481 -0.0624 -0.5758
   10CHTO  H181 3902   2.803   6.753   1.607  0.1920 -1.4148 -0.6597
   10CHTO   O61 3903   2.806   6.597   1.491 -0.3259 -0.2195 -0.2829
   10CHTO   C95 3904   2.948   6.589   1.465 -0.7531  0.3997  0.3848
   10CHTO  H182 3905   3.004   6.630   1.549  1.2067 -0.4890 -0.4631
   10CHTO  C106 3906   2.986   6.434   1.454 -0.0092 -0.6358  0.1372
   10CHTO   O69 3907   2.956   6.370   1.579  0.5089 -0.2102 -0.1012
   10CHTO  H169 3908   2.957   6.279   1.557  2.3662  0.3223 -2.4247
   10CHTO   O63 3909   2.589   6.710   1.524  0.5601 -0.5767  0.0733
   10CHTO   C96 3910   2.543   6.656   1.667 -0.3037 -0.5222  0.5977
   10CHTO  H183 3911   2.628   6.661   1.735 -0.7127 -0.6004  1.1191
   10CHTO   C98 3912   2.498   6.512   1.679 -0.5610 -0.4698  0.4859
   10CHTO  H185 3913   2.420   6.510   1.601 -0.8476 -0.7501  0.7803
   10CHTO   O67 3914   2.604   6.427   1.622 -0.0727  0.3872 -0.1698
   10CHTO  H167 3915   2.598   6.340   1.657 -1.8016  0.6344  0.2195
   10CHTO  C102 3916   2.453   6.465   1.829 -0.2644 -0.1139  0.1012
   10CHTO  H189 3917   2.544   6.434   1.883 -0.2594  1.6435  1.1364
   10CHTO   N18 3918   2.365   6.348   1.823  0.8895  0.4242  0.6508
   10CHTO  H176 3919   2.391   6.286   1.738 -2.0664 -0.0622  0.0381
   10CHTO  H177 3920   2.371   6.284   1.910 -0.5271  0.2256  0.6242
   10CHTO  C105 3921   2.369   6.582   1.890  0.3867  0.4823  0.4075
   10CHTO  H192 3922   2.268   6.579   1.849  0.9608 -2.1685 -0.9153
   10CHTO   O65 3923   2.409   6.712   1.869  0.4176 -0.4829  0.0469
   10CHTO  C100 3924   2.423   6.747   1.730  0.8160  0.1886 -0.5291
   10CHTO  H187 3925   2.329   6.724   1.678 -1.4104 -2.1452  4.2487
   10CHTO  C107 3926   2.445   6.901   1.736  0.1933  0.5274 -0.8107
   10CHTO   O70 3927   2.432   6.972   1.611 -0.2097  0.5261 -0.4394
   10CHTO  H170 3928   2.349   7.015   1.608  1.2789  3.4201 -1.9601
   10CHTO   O57 3929   2.369   6.555   2.050 -0.7651  0.3916  0.0482
   10CHTO   C85 3930   2.324   6.659   2.135 -0.4183 -0.2952 -0.5879
   10CHTO  H157 3931   2.267   6.730   2.071  1.1228  1.5526  0.0711
   10CHTO   C83 3932   2.457   6.734   2.187  0.1013 -0.2508 -0.6317
   10CHTO  H155 3933   2.528   6.766   2.110 -0.6835 -0.8644 -1.6338
   10CHTO   O56 3934   2.539   6.635   2.252 -0.9238 -0.0567  0.0023
   10CHTO  H135 3935   2.585   6.589   2.185 -1.9392  0.3684 -0.9795
   10CHTO   C81 3936   2.418   6.851   2.277  0.4197  0.5831  0.7262
   10CHTO  H153 3937   2.364   6.923   2.215  0.2887 -0.2558 -0.1587
   10CHTO   N14 3938   2.536   6.932   2.321  0.1860 -0.3422 -0.3395
   10CHTO  H141 3939   2.600   6.940   2.236  1.6354  0.1308  0.7702
   10CHTO  H142 3940   2.591   6.886   2.401 -1.2216  0.3690  1.0611
   10CHTO   C79 3941   2.327   6.803   2.401  0.1915 -0.4911  0.2443
   10CHTO  H151 3942   2.288   6.889   2.455 -0.0934  0.3742 -1.2968
   10CHTO   O52 3943   2.213   6.731   2.353  0.6920 -0.0327 -0.2699
   10CHTO   C86 3944   2.240   6.621   2.255 -0.6499  0.2274  0.1739
   10CHTO  H158 3945   2.294   6.537   2.305 -1.6853 -0.7589 -0.3467
   10CHTO   C90 3946   2.101   6.571   2.226  0.0411  0.1216 -1.0245
   10CHTO   O60 3947   2.091   6.460   2.137 -0.6156  0.0633  0.1307
   10CHTO  H138 3948   2.146   6.486   2.065  0.9695  0.6297  1.5128
   10CHTO   O50 3949   2.398   6.734   2.502  0.0607  0.1069  0.1679
   10CHTO   C73 3950   2.368   6.697   2.631 -0.1920 -0.8674 -0.2036
   10CHTO  H145 3951   2.279   6.631   2.630  0.8725 -2.3356 -0.3490
   10CHTO   C74 3952   2.334   6.807   2.737 -0.9370  0.4483 -0.8052
   10CHTO  H146 3953   2.248   6.865   2.700 -1.7628  1.4815  2.5546
   10CHTO   O54 3954   2.300   6.744   2.865 -0.1758  0.0626  0.0688
   10CHTO  H133 3955   2.246   6.800   2.918 -1.2538  1.5505 -2.4815
   10CHTO   C75 3956   2.463   6.898   2.753  0.7347 -0.2504  0.0017
   10CHTO  H147 3957   2.487   6.938   2.653  0.8492  2.2127  0.9783
   10CHTO   N13 3958   2.446   7.017   2.836 -0.2623 -0.5716 -0.2886
   10CHTO  H139 3959   2.518   7.010   2.916  0.9705 -0.9852 -1.4295
   10CHTO  H140 3960   2.462   7.104   2.773 -2.6556  0.9019  1.0248
   10CHTO   C76 3961   2.590   6.805   2.794  0.1670  0.0385 -0.2832
   10CHTO  H148 3962   2.575   6.791   2.901  3.7776  0.5327  0.3427
   10CHTO   O49 3963   2.606   6.694   2.706 -0.1887  0.1950 -0.0707
   10CHTO   C77 3964   2.496   6.609   2.674 -0.6688  0.1933 -0.0127
   10CHTO  H149 3965   2.474   6.546   2.761  0.2326  0.4291  0.3905
   10CHTO   C88 3966   2.544   6.509   2.563  0.2286  0.2066 -0.2325
   10CHTO   O58 3967   2.440   6.400   2.517 -0.2503  0.4521 -0.0593
   10CHTO  H136 3968   2.478   6.323   2.480 -0.6959 -0.0863  0.5912
   10CHTO   O51 3969   2.705   6.887   2.774 -0.9684  0.9874  0.0602
   10CHTO   C78 3970   2.851   6.853   2.860 -1.0512  0.6941 -0.3313
   10CHTO  H150 3971   2.855   6.753   2.910 -1.4853  0.9990  0.3174
   10CHTO   C80 3972   2.869   6.957   2.972 -0.0487  0.0751 -0.2113
   10CHTO  H152 3973   2.859   7.060   2.932  2.7391  0.3756 -0.2264
   10CHTO   O55 3974   2.750   6.939   3.054  0.0487 -0.6067 -0.3178
   10CHTO  H134 3975   2.682   7.000   3.031  2.3251  1.8984 -0.7092
   10CHTO   C84 3976   3.003   6.940   3.045 -0.0620  0.6440  0.0097
   10CHTO  H156 3977   3.014   6.837   3.079  0.0430  0.3674 -0.8409
   10CHTO   N15 3978   3.025   7.025   3.161  0.1444 -0.8603  0.0239
   10CHTO  H143 3979   2.964   6.991   3.242 -2.5138  2.4401 -0.5093
   10CHTO  H144 3980   2.988   7.122   3.135  2.6029  0.0994 -0.0428
   10CHTO   C87 3981   3.107   6.968   2.931 -0.0365 -0.5479 -0.2408
   10CHTO  H159 3982   3.091   7.065   2.886  1.3427  0.4350  1.3196
   10CHTO   O53 3983   3.094   6.840   2.814 -0.4299 -0.4223  0.2910
   10CHTO   C82 3984   2.960   6.852   2.757  0.4166 -0.3001  0.3104
   10CHTO  H154 3985   2.959   6.948   2.705 -0.9264 -0.7706 -0.5449
   10CHTO   C89 3986   2.931   6.736   2.651 -0.0153 -0.0562  0.2053
   10CHTO   O59 3987   2.915   6.614   2.713 -0.5071  0.0018  0.4963
   10CHTO  H137 3988   2.948   6.551   2.652 -0.3988  0.1988  0.3521
   10CHTO   O45 3989   3.253   6.960   2.969 -0.2785 -0.4107  0.0243
   10CHTO   C67 3990   3.333   7.074   2.922 -0.0172 -0.1174 -0.7818
   10CHTO  H124 3991   3.268   7.154   2.885  2.3925  1.5895 -1.5193
   10CHTO   C65 3992   3.423   7.136   3.043 -0.1145  0.0022  0.3128
   10CHTO  H122 3993   3.367   7.124   3.136 -1.7183 -1.7171 -0.8358
   10CHTO   O44 3994   3.439   7.276   3.019  0.0270 -0.0775 -0.3526
   10CHTO  H102 3995   3.491   7.294   2.944  0.6826 -0.1294  0.0853
   10CHTO   C63 3996   3.562   7.064   3.048  0.1609  0.5006  0.2447
   10CHTO  H120 3997   3.547   6.956   3.052  1.5057  0.2978  0.1894
   10CHTO   N11 3998   3.642   7.094   3.178 -0.1327  0.0425  0.0920
   10CHTO  H108 3999   3.686   7.006   3.218  1.4839  0.5794 -0.4864
   10CHTO  H109 4000   3.572   7.124   3.253 -2.5896  0.0738 -2.0951
   10CHTO   C61 4001   3.641   7.097   2.915 -0.4006 -0.4617  0.4718
   10CHTO  H118 4002   3.703   7.009   2.891  0.1122  0.2735 -1.0351
   10CHTO   O40 4003   3.554   7.113   2.795  0.4237  0.4481 -0.3043
   10CHTO   C68 4004   3.430   7.033   2.803 -0.4123 -0.5983  0.9659
   10CHTO  H125 4005   3.446   6.925   2.820 -0.5936 -0.9882 -1.1338
   10CHTO   C72 4006   3.351   7.053   2.669 -0.4469  0.4844  0.0005
   10CHTO   O48 4007   3.412   6.996   2.553  0.0200  0.4616 -0.0260
   10CHTO  H105 4008   3.359   6.998   2.475 -1.7270 -1.1718  1.0670
   10CHTO   O38 4009   3.728   7.208   2.924 -0.0168 -0.7430 -0.2228
   10CHTO   C55 4010   3.871   7.210   2.883  0.8960 -0.1068 -0.1842
   10CHTO  H112 4011   3.877   7.129   2.808  0.6872  0.2947 -0.6428
   10CHTO   C56 4012   3.957   7.187   3.006 -0.6721 -0.2888 -0.3638
   10CHTO  H113 4013   3.926   7.263   3.079  4.9039  0.4344  1.5068
   10CHTO   O42 4014   3.920   7.054   3.043  0.2692 -0.4555 -0.2087
   10CHTO  H100 4015   3.970   7.013   3.111  2.1821 -2.4085 -2.6767
   10CHTO   C57 4016   4.106   7.194   2.972  0.1126 -0.7228  0.2681
   10CHTO  H114 4017   4.123   7.119   2.894 -1.3132  0.4759 -1.2209
   10CHTO   N10 4018   4.201   7.167   3.079 -0.1453  0.0542 -0.6770
   10CHTO  H106 4019   4.231   7.065   3.095 -0.3519  0.3754  2.0413
   10CHTO  H107 4020   4.295   7.221   3.072 -0.0553  0.1786  1.2135
   10CHTO   C58 4021   4.135   7.334   2.909  1.1508 -0.1164 -0.6418
   10CHTO  H115 4022   4.118   7.417   2.981 -0.5561  0.5007 -1.7367
   10CHTO   O37 4023   4.044   7.347   2.795 -0.6968  0.1815 -0.7528
   10CHTO   C59 4024   3.904   7.354   2.820 -0.7612  0.3016 -0.8570
   10CHTO  H116 4025   3.868   7.432   2.887  1.0789 -0.1540  0.6916
   10CHTO   C70 4026   3.848   7.374   2.682 -0.1610  0.1137  0.6899
   10CHTO   O46 4027   3.705   7.391   2.677  0.4200 -0.0634 -0.2882
   10CHTO  H103 4028   3.701   7.481   2.702  2.4228  0.1166 -0.5180
   10CHTO   O39 4029   4.302   7.339   2.847  0.2636 -0.1477  0.4202
   10CHTO   C60 4030   4.337   7.463   2.794  0.1127 -0.0321  0.3404
   10CHTO  H117 4031   4.245   7.514   2.765  1.1415  0.5810 -1.9931
   10CHTO   C62 4032   4.403   7.553   2.902 -0.0383 -0.4279 -0.1267
   10CHTO  H119 4033   4.333   7.565   2.987 -1.7549  1.9742 -1.8214
   10CHTO   O43 4034   4.529   7.500   2.952 -0.2685  0.2624  0.7716
   10CHTO  H101 4035   4.530   7.424   3.008  0.1496 -0.5643 -0.3390
   10CHTO   C66 4036   4.428   7.697   2.839 -0.1065 -0.3689  0.3894
   10CHTO  H123 4037   4.335   7.731   2.792 -0.7925 -0.2188  1.8452
   10CHTO   N12 4038   4.470   7.801   2.939  0.1861  0.4654 -0.5645
   10CHTO  H110 4039   4.388   7.819   3.008  2.1120  1.6628  1.4829
   10CHTO  H111 4040   4.557   7.776   2.998  0.3882  1.4028 -0.4619
   10CHTO   C69 4041   4.533   7.681   2.727  0.7976  0.7890 -0.2313
   10CHTO  H126 4042   4.613   7.616   2.768 -0.3770 -0.6714 -0.1663
   10CHTO   O41 4043   4.459   7.592   2.599 -0.0360  0.9511 -0.3937
   10CHTO   C64 4044   4.414   7.444   2.660  0.2953 -0.3999  0.0528
   10CHTO  H121 4045   4.503   7.382   2.687 -1.0298 -1.2807  2.5842
   10CHTO   C71 4046   4.325   7.367   2.556 -0.5980  0.3397  0.2367
   10CHTO   O47 4047   4.218   7.437   2.495  0.4128  0.1375  0.5330
   10CHTO  H104 4048   4.189   7.502   2.556 -2.2542  0.9242 -1.4805
   10CHTO   O34 4049   4.583   7.820   2.650  0.1712 -0.0745 -0.3926
   10CHTO   C49 4050   4.549   7.940   2.548  0.3388 -0.5311 -0.4615
   10CHTO   H91 4051   4.510   7.884   2.463  1.5661 -0.4063 -1.1120
   10CHTO   C47 4052   4.675   8.018   2.514 -0.0136  0.1976  0.4035
   10CHTO   H89 4053   4.651   8.083   2.428 -0.2418 -1.4904 -0.8487
   10CHTO   O33 4054   4.768   7.924   2.463 -0.3257 -0.1133 -0.3910
   10CHTO   H70 4055   4.777   7.848   2.517 -1.3472  0.6383  0.8881
   10CHTO   C45 4056   4.731   8.087   2.643 -0.1769  0.0469  0.7535
   10CHTO   H87 4057   4.737   8.011   2.722  1.8471 -0.8882 -0.2705
   10CHTO    N8 4058   4.860   8.152   2.628 -0.6150 -0.4456 -0.0993
   10CHTO   H75 4059   4.855   8.245   2.572  0.9194 -0.9265 -1.0866
   10CHTO   H76 4060   4.938   8.079   2.611 -0.9613 -0.9500  0.4447
   10CHTO   C43 4061   4.617   8.187   2.700 -0.1233  1.2624  0.2314
   10CHTO   H85 4062   4.652   8.231   2.793  0.3837  2.0061 -0.3079
   10CHTO   O29 4063   4.484   8.131   2.706  0.2622  0.0392  0.1028
   10CHTO   C50 4064   4.449   8.042   2.605  0.7954  1.4219 -0.5133
   10CHTO   H92 4065   4.368   7.977   2.642  2.0792 -0.0081 -0.1487
   10CHTO   C54 4066   4.368   8.121   2.489 -0.0620  0.2093 -0.7723
   10CHTO   O36 4067   4.249   8.172   2.551  0.8619 -0.1117 -0.1684
   10CHTO   H72 4068   4.180   8.108   2.558 -1.7215  2.4952 -0.7516
   10CHTO   O27 4069   4.609   8.313   2.628  0.0041 -0.2232 -0.5052
   10CHTO   C37 4070   4.556   8.435   2.571 -0.2043  0.4442 -0.0180
   10CHTO   H79 4071   4.476   8.408   2.501  0.5047 -3.0994  0.4411
   10CHTO   C38 4072   4.509   8.521   2.690  0.3678 -0.2017 -0.0003
   10CHTO   H80 4073   4.588   8.512   2.766  0.9011  0.6010 -0.4482
   10CHTO   O31 4074   4.388   8.453   2.725 -0.2399  0.1564 -0.6774
   10CHTO   H68 4075   4.350   8.494   2.800  0.2529 -2.5575  1.1052
   10CHTO   C39 4076   4.489   8.671   2.644  1.0723  0.7458  0.3390
   10CHTO   H81 4077   4.396   8.662   2.588  0.0852  2.5532  1.6327
   10CHTO    N7 4078   4.463   8.752   2.763  0.2001 -0.4635 -0.1528
   10CHTO   H73 4079   4.548   8.786   2.819  0.2358  0.6758 -0.8940
   10CHTO   H74 4080   4.360   8.782   2.780  0.6329  0.7588  0.3571
   10CHTO   C40 4081   4.598   8.735   2.546  0.5401  0.3424 -1.0801
   10CHTO   H82 4082   4.679   8.781   2.602  0.4614  1.5925 -1.9746
   10CHTO   O26 4083   4.641   8.637   2.448 -0.5683  0.1387 -0.5011
   10CHTO   C41 4084   4.673   8.502   2.492 -0.2922  0.1652  0.0088
   10CHTO   H83 4085   4.764   8.486   2.552 -0.8190  1.1499  1.0801
   10CHTO   C52 4086   4.695   8.421   2.362 -0.9931  0.4401  0.1350
   10CHTO   O35 4087   4.790   8.467   2.277 -0.1991  0.4609 -0.1396
   10CHTO   H71 4088   4.871   8.483   2.322 -0.3081  0.1974  0.1494
   10CHTO   O28 4089   4.545   8.845   2.464  0.0186 -0.0899  0.2835
   10CHTO   C42 4090   4.526   8.981   2.511  0.8350  0.0629 -0.2844
   10CHTO   H84 4091   4.538   8.980   2.619  0.3576  0.7220 -0.2213
   10CHTO   C44 4092   4.386   9.046   2.479 -0.5244 -0.0543 -0.1122
   10CHTO   H86 4093   4.377   9.043   2.371  2.3570  1.4113 -0.4455
   10CHTO   O32 4094   4.280   8.973   2.538 -0.0599  0.2887  0.0509
   10CHTO   H69 4095   4.221   8.948   2.470 -0.5611  2.2883 -0.2724
   10CHTO   C48 4096   4.371   9.194   2.523  0.3415  0.2182  0.8780
   10CHTO   H90 4097   4.373   9.189   2.632  1.5369 -1.8381  0.8035
   10CHTO    N9 4098   4.237   9.252   2.483 -0.0295  0.1751 -0.0932
   10CHTO   H77 4099   4.168   9.170   2.469 -1.2453  1.4038 -1.4838
   10CHTO   H78 4100   4.201   9.317   2.561 -0.0838  1.2725 -1.0180
   10CHTO   C51 4101   4.495   9.276   2.466 -0.0159  0.6109  0.5962
   10CHTO   H93 4102   4.480   9.292   2.359 -1.7658 -1.6551  0.4770
   10CHTO   O30 4103   4.618   9.211   2.491 -0.1914  0.0221 -1.0229
   10CHTO   C46 4104   4.641   9.075   2.460  0.0025  0.3635 -0.1346
   10CHTO   H88 4105   4.646   9.074   2.351  2.4720 -0.9673 -0.0537
   10CHTO   C53 4106   4.781   9.038   2.518 -0.2541 -0.5631  0.5591
   10CHTO   O72 4107   4.862   8.952   2.443  0.7066  0.2964  0.7046
   10CHTO  H199 4108   4.944   8.936   2.487 -0.4182  0.0780  2.7446
   10CHTO   O22 4109   4.510   9.404   2.528  0.0038 -0.6565 -0.4245
   10CHTO   C31 4110   4.620   9.504   2.486  0.3874  0.3178  0.6550
   10CHTO   H59 4111   4.590   9.603   2.525  1.3780  0.6134  0.6792
   10CHTO   C29 4112   4.761   9.474   2.540  0.1746  0.3431 -0.0493
   10CHTO   H57 4113   4.797   9.372   2.517  0.1710  0.1195  0.9415
   10CHTO   O21 4114   4.742   9.483   2.677  0.3854 -0.1409 -0.0102
   10CHTO   H37 4115   4.686   9.418   2.715  0.8398 -0.3963  0.2241
   10CHTO   C27 4116   4.875   9.576   2.505  0.1586 -0.9812  0.7960
   10CHTO   H55 4117   4.839   9.678   2.524  0.3439 -0.4214 -1.6277
   10CHTO    N5 4118   5.010   9.548   2.562  0.0438  0.2426  0.1909
   10CHTO   H43 4119   5.054   9.643   2.589 -0.9717  0.6724  0.3728
   10CHTO   H44 4120   5.067   9.494   2.487 -1.8617 -0.1125 -1.0389
   10CHTO   C25 4121   4.876   9.576   2.350  0.2754 -0.4254  0.8046
   10CHTO   H53 4122   4.909   9.477   2.314  0.9640  0.2107 -0.3735
   10CHTO   O17 4123   4.739   9.616   2.298 -0.1959  0.1044 -0.3362
   10CHTO   C32 4124   4.638   9.525   2.333 -0.3566  0.2308 -0.5405
   10CHTO   H60 4125   4.665   9.429   2.288 -1.5283 -0.1044 -0.5354
   10CHTO   C36 4126   4.504   9.577   2.269 -0.3201 -0.3116 -0.2999
   10CHTO   O25 4127   4.492   9.716   2.288  0.5214  0.4295 -0.6738
   10CHTO   H40 4128   4.567   9.754   2.245  0.1157  0.1367 -1.6587
   10CHTO   O15 4129   4.981   9.686   2.296 -0.3327  0.1474 -0.3364
   10CHTO   C19 4130   5.043   9.668   2.161 -0.3967  0.0284  0.2849
   10CHTO   H47 4131   5.025   9.568   2.119  2.7306 -0.2423 -0.5257
   10CHTO   C20 4132   4.986   9.772   2.062 -0.0588  0.3514 -0.0825
   10CHTO   H48 4133   5.017   9.873   2.090  0.7682 -0.2907  1.4124
   10CHTO   O19 4134   4.844   9.766   2.058 -0.2939  0.6252 -0.4653
   10CHTO   H35 4135   4.816   9.690   2.010  0.9918 -0.6269  0.7352
   10CHTO   C21 4136   5.050   9.745   1.919  0.7344  0.5466  0.5669
   10CHTO   H49 4137   5.042   9.640   1.892 -0.1715  0.5171  0.9639
   10CHTO    N4 4138   4.986   9.830   1.813 -0.0115 -0.2324 -0.4364
   10CHTO   H41 4139   4.994   9.933   1.843  0.5884 -0.5308  0.4402
   10CHTO   H42 4140   4.886   9.790   1.817 -0.5596  1.1459 -0.3809
   10CHTO   C22 4141   5.203   9.762   1.942 -0.2982  0.5531  0.4229
   10CHTO   H50 4142   5.217   9.862   1.984 -1.2599 -0.3095  2.9105
   10CHTO   O14 4143   5.251   9.663   2.036  0.2396 -0.1321 -0.1246
   10CHTO   C23 4144   5.197   9.674   2.170  0.0516 -0.1741 -0.2122
   10CHTO   H51 4145   5.231   9.768   2.216  0.1049  1.9268 -4.3419
   10CHTO   C34 4146   5.248   9.554   2.242 -0.3174 -0.2150 -0.0134
   10CHTO   O23 4147   5.385   9.555   2.264 -0.3395  0.2178 -0.4084
   10CHTO   H38 4148   5.408   9.612   2.335 -0.7206  1.5307 -1.3165
   10CHTO   O16 4149   5.275   9.741   1.817 -0.3757  0.0750 -0.4003
   10CHTO   C24 4150   5.412   9.806   1.818 -0.8289  0.2425  1.0359
   10CHTO   H52 4151   5.455   9.820   1.917 -0.5607  0.2514  0.9192
   10CHTO   C26 4152   5.402   9.944   1.745 -1.2319  0.4708 -0.1936
   10CHTO   H54 4153   5.358   9.932   1.644  1.6464  3.1580 -1.8345
   10CHTO   O20 4154   5.306  10.020   1.823 -0.0082  0.3653  0.2422
   10CHTO   H36 4155   5.253  10.069   1.764  0.0298 -0.3155 -0.3606
   10CHTO   C30 4156   5.543  10.009   1.730  1.0342 -0.1012  0.2107
   10CHTO   H58 4157   5.574  10.023   1.835  2.0107  0.4749 -0.1457
   10CHTO    N6 4158   5.527  10.140   1.662 -0.0913  0.7034  0.2260
   10CHTO   H45 4159   5.611  10.204   1.683 -0.3030  0.8507  0.6296
   10CHTO   H46 4160   5.516  10.129   1.555  0.5279  1.4645  0.0838
   10CHTO   C33 4161   5.637   9.908   1.661 -0.2741  0.0393  0.0480
   10CHTO   H61 4162   5.613   9.892   1.555  1.7956  0.5336 -0.5104
   10CHTO   O18 4163   5.633   9.776   1.727 -0.5400 -0.7901 -0.2444
   10CHTO   C28 4164   5.507   9.711   1.735  0.0470  0.3439  0.7813
   10CHTO   H56 4165   5.470   9.709   1.632 -1.5706 -0.3933  1.3613
   10CHTO   C35 4166   5.522   9.578   1.808  0.1631 -0.4665 -0.0139
   10CHTO   O24 4167   5.412   9.482   1.810  0.4624  0.3000 -0.3651
   10CHTO   H39 4168   5.446   9.400   1.840 -1.4467 -1.2580 -2.2956
   10CHTO    O9 4169   5.774   9.966   1.662 -0.0460  0.0100  0.8409
   10CHTO   C13 4170   5.846   9.945   1.517 -0.1204  0.1495  0.1963
   10CHTO   H26 4171   5.789  10.000   1.440  0.0985 -0.3482 -0.3291
   10CHTO   C11 4172   5.855   9.787   1.477  0.1846  0.0633  0.4650
   10CHTO   H24 4173   5.755   9.751   1.448  0.2151  0.6816 -0.4296
   10CHTO    O8 4174   5.893   9.713   1.594  0.4011  0.6432 -0.5102
   10CHTO    H3 4175   5.962   9.754   1.643 -0.5859  0.1008  1.3785
   10CHTO    C9 4176   5.953   9.773   1.356  0.0396  0.2170  0.1913
   10CHTO   H22 4177   5.914   9.834   1.273  0.5345 -0.3149 -0.4344
   10CHTO    N2 4178   5.956   9.638   1.292 -0.5037  0.5914  0.7145
   10CHTO   H10 4179   5.863   9.584   1.303 -0.0312 -0.5978 -0.9871
   10CHTO   H11 4180   6.034   9.582   1.342 -0.1962  2.1889  2.0442
   10CHTO    C7 4181   6.096   9.832   1.394 -0.0794  0.3294 -0.2943
   10CHTO   H20 4182   6.119   9.904   1.312  2.7138 -0.0009  0.1662
   10CHTO    O4 4183   6.097   9.915   1.516 -0.2898 -0.0121  0.4497
   10CHTO   C14 4184   5.993  10.011   1.512 -0.2353 -0.1481  0.8189
   10CHTO   H27 4185   6.004  10.061   1.414 -1.2413  1.3743  1.4492
   10CHTO   C18 4186   6.026  10.112   1.614  0.5747 -0.1815  0.7930
   10CHTO   O13 4187   6.155  10.171   1.603  0.1285 -0.0142  0.1267
   10CHTO    H7 4188   6.171  10.215   1.684  0.1586 -2.3622  1.4225
   10CHTO    O2 4189   6.216   9.703   1.420  0.0342 -0.1285  0.3905
   10CHTO    C1 4190   6.311   9.708   1.531  0.7787 -0.5878  0.4447
   10CHTO   H14 4191   6.273   9.775   1.611  0.1096  1.2301 -1.3504
   10CHTO    C2 4192   6.457   9.760   1.494 -0.9581 -0.3777  1.1783
   10CHTO   H15 4193   6.486   9.701   1.405 -0.1529  0.3664  0.9428
   10CHTO    O6 4194   6.454   9.899   1.469  0.1464 -0.3935  0.0161
   10CHTO    H1 4195   6.426   9.927   1.384  1.1316 -2.2994 -0.9588
   10CHTO    C3 4196   6.573   9.727   1.600 -0.2402 -0.3257 -0.2328
   10CHTO   H16 4197   6.587   9.795   1.686 -0.4611 -0.4082 -0.1305
   10CHTO    N1 4198   6.711   9.746   1.533  0.0962  0.5218 -0.9784
   10CHTO    H8 4199   6.762   9.651   1.544 -1.2184 -0.2818 -1.6625
   10CHTO    H9 4200   6.718   9.768   1.427  0.0189  0.5553 -0.9757
   10CHTO    C4 4201   6.548   9.586   1.672 -1.0083 -0.2629  0.5138
   10CHTO   H17 4202   6.575   9.507   1.602  0.4561  1.8050 -1.3057
   10CHTO    O1 4203   6.410   9.573   1.707  0.1876  0.1243 -0.0911
   10CHTO    C5 4204   6.326   9.563   1.590 -0.3379 -0.0752 -0.5011
   10CHTO   H18 4205   6.377   9.508   1.512 -1.4466  0.4457 -1.5998
   10CHTO   C16 4206   6.194   9.493   1.629  0.0693 -0.2692  0.1643
   10CHTO   O11 4207   6.221   9.361   1.671 -0.1406 -0.0875  0.4059
   10CHTO    H5 4208   6.146   9.328   1.717 -0.5865  0.1064 -0.1873
   10CHTO    O3 4209   6.615   9.561   1.794 -0.0602 -0.3562 -0.3749
   10CHTO    C6 4210   6.636   9.421   1.826  0.4908  0.0923  0.8056
   10CHTO   H19 4211   6.598   9.351   1.752  2.3258 -0.6762  0.5677
   10CHTO    C8 4212   6.795   9.396   1.822  0.0464  0.4226  0.2183
   10CHTO   H21 4213   6.846   9.454   1.899 -0.8041 -1.4613  2.2546
   10CHTO    O7 4214   6.839   9.415   1.690  0.1698 -0.0387  0.4513
   10CHTO    H2 4215   6.851   9.507   1.674 -2.4951  0.1297 -0.8539
   10CHTO   C12 4216   6.829   9.240   1.851  0.1827 -0.5933 -0.2156
   10CHTO   H25 4217   6.771   9.183   1.775 -1.6051 -0.5467  1.0955
   10CHTO    N3 4218   6.968   9.187   1.855 -0.3422 -0.3859  0.0334
   10CHTO   H12 4219   6.980   9.118   1.772 -0.9414  1.8637 -1.9800
   10CHTO   H13 4220   6.997   9.128   1.941 -0.9358 -0.9603 -0.1527
   10CHTO   C15 4221   6.751   9.212   1.988 -0.4086 -0.3785  0.0874
   10CHTO   H28 4222   6.797   9.255   2.077 -1.6600  2.0110 -0.3952
   10CHTO   O10 4223   6.737   9.057   2.007 -0.3773 -0.0551  0.3871
   10CHTO    H4 4224   6.696   9.039   2.090 -0.3468  2.0398  0.8764
   10CHTO    O5 4225   6.611   9.247   1.979  1.0358  0.0457  0.1214
   10CHTO   C10 4226   6.579   9.386   1.966  0.3883 -0.5527  0.5722
   10CHTO   H23 4227   6.630   9.442   2.045 -0.8533  0.2312  0.8367
   10CHTO   C17 4228   6.430   9.408   1.990  0.7979  0.2552  0.6744
   10CHTO   O12 4229   6.376   9.348   2.113  0.0263 -0.0600  0.7594
   10CHTO    H6 4230   6.351   9.260   2.094  0.1649  0.1279 -0.2964
   11CHTO  H203 4231   4.793   4.978   1.900 -0.1899 -0.2028 -0.2175
   11CHTO   O82 4232   4.880   4.953   1.876  0.0247  0.3501 -0.0291
   11CHTO  C123 4233   4.976   5.061   1.856 -0.3540  0.1118  0.3559
   11CHTO  H227 4234   5.036   5.074   1.947 -0.6992  1.0502  0.4563
   11CHTO   O77 4235   5.061   5.012   1.753  0.2030 -0.5065 -0.1098
   11CHTO  C118 4236   5.169   5.103   1.717 -0.0331  1.0986 -0.2654
   11CHTO  H222 4237   5.213   5.138   1.811  0.1055 -1.0363  0.4804
   11CHTO  C125 4238   5.282   5.029   1.636  0.1368 -0.1791 -0.0131
   11CHTO   O84 4239   5.232   4.958   1.522  0.0180  0.1637 -0.1160
   11CHTO  H205 4240   5.299   4.916   1.472  1.4873 -0.0003  1.9396
   11CHTO  C114 4241   5.099   5.221   1.639  0.0434 -0.8314  0.7338
   11CHTO  H218 4242   5.041   5.179   1.557  1.3392 -2.8039  0.7815
   11CHTO  C116 4243   4.997   5.293   1.741  1.0302 -1.4984  0.4134
   11CHTO  H220 4244   5.052   5.352   1.817  2.6521 -2.1623 -0.2056
   11CHTO   O79 4245   4.918   5.388   1.671  0.2902 -0.1543  0.0547
   11CHTO  H201 4246   4.870   5.433   1.738  2.6599 -0.5853  2.1150
   11CHTO  C120 4247   4.902   5.194   1.819  0.3056  0.6871 -0.1996
   11CHTO  H224 4248   4.817   5.170   1.750  1.7148  2.5050 -2.6694
   11CHTO   N21 4249   4.841   5.247   1.940  0.1367  0.1172 -0.0134
   11CHTO  H211 4250   4.912   5.262   2.020  1.9178 -1.4423 -1.2687
   11CHTO  H212 4251   4.800   5.345   1.916  0.8866  0.5438  0.4358
   11CHTO   O75 4252   5.200   5.306   1.580 -0.3471 -0.0756 -0.5607
   11CHTO  C112 4253   5.291   5.408   1.682  0.0496  0.1482 -0.0992
   11CHTO  H216 4254   5.317   5.348   1.770 -1.2797 -0.1412  0.0962
   11CHTO   O73 4255   5.208   5.519   1.713  0.5355 -0.0981  0.0963
   11CHTO  C113 4256   5.268   5.613   1.798  0.2547  0.2908  0.1343
   11CHTO  H217 4257   5.299   5.557   1.888  2.3341  1.6356  0.2899
   11CHTO  C124 4258   5.159   5.716   1.840 -0.1603 -0.0905  0.4361
   11CHTO   O83 4259   5.194   5.816   1.929  0.3725 -0.4095  0.6568
   11CHTO  H204 4260   5.223   5.890   1.879  0.6629  0.0681  1.5243
   11CHTO  C109 4261   5.391   5.678   1.732  0.5268 -0.2550 -0.4009
   11CHTO  H213 4262   5.361   5.719   1.635  1.6497  0.5075 -0.4403
   11CHTO  C110 4263   5.492   5.566   1.701  0.2313 -0.6785 -0.5787
   11CHTO  H214 4264   5.534   5.522   1.792 -3.0997 -0.7453  0.9990
   11CHTO   O78 4265   5.602   5.624   1.626 -0.1197 -0.4476  0.2553
   11CHTO  H200 4266   5.651   5.681   1.683 -0.3369 -0.9610  0.9583
   11CHTO  C111 4267   5.423   5.457   1.613  0.3998 -0.5969  0.1850
   11CHTO  H215 4268   5.390   5.502   1.518 -0.0553 -0.4700  0.4054
   11CHTO   N19 4269   5.512   5.347   1.566  0.1313 -1.1218  0.3737
   11CHTO  H207 4270   5.611   5.359   1.606  0.2206  0.8764 -0.4072
   11CHTO  H208 4271   5.508   5.344   1.458  1.5847  0.2311  0.2728
   11CHTO   O74 4272   5.452   5.783   1.814  0.4869 -0.5712 -0.6794
   11CHTO  C115 4273   5.502   5.925   1.740 -1.5475  0.4944  0.1304
   11CHTO  H219 4274   5.513   5.913   1.632  0.3490 -0.4598  0.4055
   11CHTO   O76 4275   5.406   6.028   1.749  0.2698  0.3962 -0.4038
   11CHTO  C122 4276   5.383   6.072   1.883 -0.1101 -0.0915 -0.2564
   11CHTO  H226 4277   5.350   5.986   1.942  0.3269  0.1073  0.2919
   11CHTO  C126 4278   5.265   6.157   1.878  0.0260 -0.3876  0.9188
   11CHTO   O85 4279   5.217   6.185   2.011 -0.0127 -0.6931  0.2547
   11CHTO  H206 4280   5.169   6.109   2.040  0.3012 -1.3126 -0.8106
   11CHTO  C121 4281   5.509   6.154   1.938  0.9293  0.5388  0.9380
   11CHTO  H225 4282   5.496   6.263   1.927 -1.7039  0.0253 -1.5758
   11CHTO   O81 4283   5.512   6.122   2.080 -0.0165  0.4762  0.1270
   11CHTO  H202 4284   5.557   6.042   2.102 -0.5335  0.8786  2.9110
   11CHTO  C119 4285   5.645   6.105   1.874 -0.7461  0.8810  0.3891
   11CHTO  H223 4286   5.667   6.177   1.795 -0.5855 -0.7542 -1.0828
   11CHTO  C117 4287   5.643   5.952   1.814  0.5279  0.3057  0.4057
   11CHTO  H221 4288   5.653   5.868   1.882  0.7133 -1.3539 -1.6161
   11CHTO   N20 4289   5.757   5.934   1.714 -1.3439 -0.5443 -0.1482
   11CHTO  H209 4290   5.756   6.025   1.655  0.5053  0.1357  0.8130
   11CHTO  H210 4291   5.774   5.842   1.660  3.2031 -0.1497  0.3791
   11CHTO   O80 4292   5.773   6.124   1.979 -0.1635  0.1869  0.0229
   11CHTO  C103 4293   5.825   6.292   2.011 -0.8138  0.3134 -0.3093
   11CHTO  H190 4294   5.933   6.294   2.021 -0.7767 -0.0927 -0.6100
   11CHTO  C101 4295   5.792   6.404   1.904  0.5649 -0.1451 -1.4658
   11CHTO  H188 4296   5.688   6.390   1.874 -0.3343  2.7400  0.1388
   11CHTO   O68 4297   5.877   6.384   1.771  0.1947  0.2837  0.0861
   11CHTO  H168 4298   5.964   6.403   1.798  0.4255 -0.0513 -0.4300
   11CHTO   C99 4299   5.829   6.549   1.966  0.5615  0.5299  0.5509
   11CHTO  H186 4300   5.938   6.550   1.988  0.8905 -4.4015 -0.2596
   11CHTO   N17 4301   5.801   6.660   1.862 -0.0022 -0.1004 -0.2616
   11CHTO  H174 4302   5.776   6.760   1.893 -1.6944  0.2711 -2.6775
   11CHTO  H175 4303   5.881   6.661   1.790 -0.0095 -1.7554 -0.3219
   11CHTO   C97 4304   5.763   6.563   2.104  0.0577  0.6878 -0.0577
   11CHTO  H184 4305   5.654   6.556   2.091  0.0941 -1.5955  0.5401
   11CHTO   O64 4306   5.816   6.460   2.191  0.2482 -0.1796 -0.3156
   11CHTO  C104 4307   5.764   6.331   2.150 -0.3350  0.8492  0.3970
   11CHTO  H191 4308   5.656   6.339   2.141 -0.4002 -1.4073 -1.2361
   11CHTO  C108 4309   5.796   6.227   2.256  0.0182  0.0426  0.1002
   11CHTO   O71 4310   5.773   6.277   2.384  0.1954  0.5953 -0.6943
   11CHTO  H171 4311   5.762   6.202   2.440  0.4759  1.7289  0.8995
   11CHTO   O62 4312   5.798   6.690   2.163 -0.4437  0.0263  0.1747
   11CHTO   C91 4313   5.705   6.738   2.263  0.4099  0.2508  0.2270
   11CHTO  H178 4314   5.604   6.705   2.237  0.4971  0.0235  0.1774
   11CHTO   C92 4315   5.700   6.893   2.261 -0.8990 -0.6781 -0.1252
   11CHTO  H179 4316   5.670   6.925   2.160 -1.7223 -1.2085 -0.0547
   11CHTO   O66 4317   5.584   6.932   2.333 -0.3181 -0.3372 -0.2717
   11CHTO  H166 4318   5.613   6.966   2.415 -0.8497  2.9868 -1.3337
   11CHTO   C93 4319   5.833   6.963   2.312 -0.5421 -0.2494  0.5898
   11CHTO  H180 4320   5.820   7.068   2.340  0.3744  0.1427 -0.4234
   11CHTO   N16 4321   5.936   6.975   2.202  0.3092 -0.3617  0.1690
   11CHTO  H172 4322   5.978   7.073   2.188  0.8694 -0.6383 -0.0896
   11CHTO  H173 4323   6.023   6.917   2.228  1.1614  0.5753 -0.5900
   11CHTO   C94 4324   5.882   6.881   2.436 -0.0517  0.9717 -0.5668
   11CHTO  H181 4325   5.967   6.818   2.412 -0.0934  0.5648  0.3400
   11CHTO   O61 4326   5.786   6.794   2.496 -0.5718 -0.6892 -0.0197
   11CHTO   C95 4327   5.742   6.684   2.412  0.6948  0.8016  0.3492
   11CHTO  H182 4328   5.814   6.603   2.424  0.1633  0.5364  1.7862
   11CHTO  C106 4329   5.635   6.612   2.498  0.1020 -0.2991  0.0086
   11CHTO   O69 4330   5.496   6.621   2.451 -0.5826 -0.2197 -0.1965
   11CHTO  H169 4331   5.497   6.655   2.364 -1.0183  0.6068  0.1139
   11CHTO   O63 4332   5.925   6.982   2.558  0.1739 -0.3697 -0.1195
   11CHTO   C96 4333   6.054   6.930   2.650  0.2589  0.1672 -0.3340
   11CHTO  H183 4334   6.110   6.868   2.581  2.2257  2.6961 -1.0944
   11CHTO   C98 4335   5.998   6.844   2.765 -0.3510 -0.2846 -0.6431
   11CHTO  H185 4336   5.909   6.900   2.797  0.6469  1.6639 -1.1935
   11CHTO   O67 4337   5.944   6.715   2.726  0.1372 -0.2226 -0.2610
   11CHTO  H167 4338   5.881   6.728   2.657 -1.9455 -1.2981  1.3631
   11CHTO  C102 4339   6.109   6.812   2.884 -0.1851 -0.4422  0.6786
   11CHTO  H189 4340   6.178   6.744   2.833 -1.7714 -1.0661 -0.6796
   11CHTO   N18 4341   6.064   6.737   3.008  0.0216  0.0725  0.5336
   11CHTO  H176 4342   5.963   6.704   2.989 -0.8492  2.7325  0.3248
   11CHTO  H177 4343   6.051   6.815   3.082  0.4031  0.3334  0.3273
   11CHTO  C105 4344   6.196   6.938   2.913 -0.1209  0.0291 -0.3458
   11CHTO  H192 4345   6.138   7.009   2.973  0.1456  0.0136 -0.0651
   11CHTO   O65 4346   6.242   7.016   2.796 -0.4325  0.0858  0.5181
   11CHTO  C100 4347   6.147   7.045   2.691 -0.3551  0.7854  0.6338
   11CHTO  H187 4348   6.086   7.130   2.725 -0.9739 -0.2608  2.2311
   11CHTO  C107 4349   6.241   7.085   2.571 -0.0712 -0.4895 -0.4472
   11CHTO   O70 4350   6.270   7.225   2.585 -0.8764 -0.2792 -0.1123
   11CHTO  H170 4351   6.295   7.248   2.673 -0.9350 -0.0337 -0.1594
   11CHTO   O57 4352   6.315   6.909   2.977  0.1004  0.2006  0.1965
   11CHTO   C85 4353   6.376   7.003   3.066 -0.1669  0.2770 -0.2129
   11CHTO  H157 4354   6.299   7.063   3.119  2.3816  1.6129  2.0609
   11CHTO   C83 4355   6.457   7.116   2.996  0.3374 -0.2298  0.2474
   11CHTO  H155 4356   6.388   7.189   2.954  0.1241 -1.2268 -1.1486
   11CHTO   O56 4357   6.542   7.062   2.892  0.2401  0.1834  0.4473
   11CHTO  H135 4358   6.484   7.023   2.829  1.9971  0.6214 -1.4751
   11CHTO   C81 4359   6.539   7.184   3.110  0.3726  0.6681 -0.1433
   11CHTO  H153 4360   6.470   7.227   3.182  0.8075  0.7369  0.2381
   11CHTO   N14 4361   6.604   7.311   3.064  0.5450 -0.4457  0.7370
   11CHTO  H141 4362   6.685   7.325   3.132  0.9105  0.0429  0.2030
   11CHTO  H142 4363   6.647   7.313   2.966 -1.9714 -1.4288 -0.4311
   11CHTO   C79 4364   6.637   7.089   3.186 -0.3490  0.1483 -0.0453
   11CHTO  H151 4365   6.679   7.141   3.272  1.8265 -0.0155 -0.9832
   11CHTO   O52 4366   6.554   6.991   3.256 -0.5925  0.0086  0.1180
   11CHTO   C86 4367   6.466   6.916   3.178 -0.2090  0.6396 -0.2427
   11CHTO  H158 4368   6.532   6.847   3.122 -1.1266 -0.0375 -0.5043
   11CHTO   C90 4369   6.383   6.821   3.268  0.6417 -0.7780  0.1929
   11CHTO   O60 4370   6.298   6.893   3.362  0.7618  0.2423  0.1878
   11CHTO  H138 4371   6.356   6.955   3.404  1.5885 -1.0323  0.9492
   11CHTO   O50 4372   6.738   7.030   3.107  0.6968  0.6020  0.3426
   11CHTO   C73 4373   6.868   6.977   3.127  1.3010  0.0516 -0.9138
   11CHTO  H145 4374   6.870   6.899   3.205  1.8508  1.3354  0.3715
   11CHTO   C74 4375   6.970   7.091   3.164  0.6343  0.0843  0.4880
   11CHTO  H146 4376   6.957   7.144   3.260 -0.9630  2.9690 -1.2317
   11CHTO   O54 4377   7.098   7.034   3.175  0.4123  0.3154 -0.5204
   11CHTO  H133 4378   7.116   6.975   3.105  3.0981  0.7461 -0.2281
   11CHTO   C75 4379   6.969   7.195   3.044 -0.6706  0.7327 -0.2881
   11CHTO  H147 4380   6.868   7.236   3.032  0.1923  2.9682 -0.1236
   11CHTO   N13 4381   7.064   7.308   3.060  0.1727 -0.0816  0.2869
   11CHTO  H139 4382   7.047   7.377   2.978 -0.4606  0.5840  0.9654
   11CHTO  H140 4383   7.028   7.361   3.147 -2.4785 -0.5032 -0.5041
   11CHTO   C76 4384   6.999   7.118   2.903 -0.1756 -0.3937 -0.1076
   11CHTO  H148 4385   7.097   7.069   2.914  0.5009  0.9069 -0.3030
   11CHTO   O49 4386   6.909   7.008   2.883  0.0865  0.0359 -0.0297
   11CHTO   C77 4387   6.918   6.912   2.994  0.4938 -0.1339 -0.1206
   11CHTO  H149 4388   7.019   6.875   3.006  0.3339 -0.3740  0.4838
   11CHTO   C88 4389   6.838   6.788   2.963 -0.0263  0.1191  0.0087
   11CHTO   O58 4390   6.682   6.819   2.933  0.6053 -0.1918 -0.0784
   11CHTO  H136 4391   6.684   6.841   2.842  1.4643  1.9419  0.4039
   11CHTO   O51 4392   6.974   7.213   2.781  0.4279  0.3804 -0.2592
   11CHTO   C78 4393   7.039   7.184   2.644 -0.1777 -0.2142 -0.5621
   11CHTO  H150 4394   7.078   7.080   2.650 -0.2493 -0.2369 -0.4631
   11CHTO   C80 4395   7.150   7.285   2.610  0.0783 -0.7348 -0.9093
   11CHTO  H152 4396   7.107   7.387   2.609  1.7893  0.0346  1.0937
   11CHTO   O55 4397   7.260   7.282   2.710  0.7168 -0.1090 -0.4441
   11CHTO  H134 4398   7.270   7.369   2.742 -1.2915  0.3483 -0.9619
   11CHTO   C84 4399   7.218   7.266   2.464 -0.3545 -0.4001 -0.2653
   11CHTO  H156 4400   7.269   7.170   2.472 -1.7358 -1.2662 -1.4906
   11CHTO   N15 4401   7.318   7.366   2.417 -0.1088 -0.6477  0.7837
   11CHTO  H143 4402   7.377   7.382   2.505  0.3292 -3.3317  1.0210
   11CHTO  H144 4403   7.379   7.314   2.347 -1.4240 -0.3231 -0.6295
   11CHTO   C87 4404   7.103   7.250   2.362  0.7532 -0.3260  1.0719
   11CHTO  H159 4405   7.061   7.349   2.345 -1.6268 -1.3206  0.9852
   11CHTO   O53 4406   6.998   7.136   2.414 -0.2736  0.2529  0.2976
   11CHTO   C82 4407   6.937   7.185   2.533 -0.2702 -0.2112 -0.1962
   11CHTO  H154 4408   6.884   7.278   2.515 -1.0509 -0.4487  0.8169
   11CHTO   C89 4409   6.827   7.083   2.577 -0.3377 -0.6233 -0.0090
   11CHTO   O59 4410   6.744   7.137   2.684  0.0131  0.4745  0.2536
   11CHTO  H137 4411   6.808   7.154   2.750 -0.0071  0.7025  0.2141
   11CHTO   O45 4412   7.167   7.190   2.228  0.4489 -0.8853 -0.0190
   11CHTO   C67 4413   7.072   7.152   2.123 -0.4056 -0.5481  0.1988
   11CHTO  H124 4414   6.972   7.129   2.157 -1.2593  1.5298 -0.8259
   11CHTO   C65 4415   7.060   7.271   2.024  0.2498 -0.3457  0.1481
   11CHTO  H122 4416   7.140   7.340   2.048 -0.4558  0.6266 -0.2505
   11CHTO   O44 4417   6.936   7.337   2.056 -0.2961  0.3627  0.1893
   11CHTO  H102 4418   6.864   7.288   2.020 -0.5375  1.6668 -1.1796
   11CHTO   C63 4419   7.081   7.235   1.875 -0.3276  0.0059 -0.0077
   11CHTO  H120 4420   7.188   7.219   1.859 -0.1566  0.3115  0.8026
   11CHTO   N11 4421   7.039   7.344   1.777 -0.0360  0.1838  0.2075
   11CHTO  H108 4422   7.063   7.304   1.680 -0.2347 -1.1355  0.7040
   11CHTO  H109 4423   7.091   7.431   1.812  1.2765 -0.9383  1.0675
   11CHTO   C61 4424   7.011   7.099   1.848  0.2928 -0.3711  0.0043
   11CHTO  H118 4425   7.045   7.076   1.746 -0.0451  0.2889 -0.2594
   11CHTO   O40 4426   7.045   6.984   1.935 -0.0123 -0.4819 -0.1640
   11CHTO   C68 4427   7.123   7.021   2.052 -0.6556  0.0855 -0.6288
   11CHTO  H125 4428   7.222   7.040   2.008 -0.8305 -0.5180 -1.2818
   11CHTO   C72 4429   7.140   6.888   2.142  0.4771  0.4180  0.4427
   11CHTO   O48 4430   7.017   6.859   2.219  0.1764  0.1588 -0.2085
   11CHTO  H105 4431   6.982   6.940   2.250  0.9000 -0.0050  1.0310
   11CHTO   O38 4432   6.871   7.100   1.850  0.1165  0.3064  0.5584
   11CHTO   C55 4433   6.802   7.015   1.753 -0.7348  0.4619 -0.3194
   11CHTO  H112 4434   6.861   6.929   1.717 -0.0563  0.3572  1.0192
   11CHTO   C56 4435   6.751   7.108   1.635  0.2278 -0.4773  0.6850
   11CHTO  H113 4436   6.698   7.189   1.688  1.2560  1.1551 -0.7304
   11CHTO   O42 4437   6.866   7.169   1.566 -0.0558 -0.5953  0.1614
   11CHTO  H100 4438   6.889   7.251   1.606 -0.4695 -0.5494  0.3131
   11CHTO   C57 4439   6.648   7.030   1.550 -0.0554 -0.9670  0.7627
   11CHTO  H114 4440   6.705   6.959   1.490  1.4579 -0.0514  1.0941
   11CHTO   N10 4441   6.586   7.119   1.447 -0.5540  0.5952 -0.8093
   11CHTO  H106 4442   6.554   7.057   1.365 -1.9145 -0.4371  0.4716
   11CHTO  H107 4443   6.497   7.168   1.485 -0.8519 -2.0217  2.0906
   11CHTO   C58 4444   6.547   6.948   1.629  0.0009 -0.0516 -0.5169
   11CHTO  H115 4445   6.469   7.011   1.677  1.0312 -1.2110  2.7569
   11CHTO   O37 4446   6.618   6.871   1.728  0.1075  0.2746  0.1106
   11CHTO   C59 4447   6.679   6.955   1.826  0.0366  0.8032  0.6720
   11CHTO  H116 4448   6.609   7.030   1.862 -1.1492  0.2586 -0.4214
   11CHTO   C70 4449   6.714   6.869   1.945  0.0109 -0.3839  0.1649
   11CHTO   O46 4450   6.824   6.778   1.920 -0.0285 -0.3964 -0.1405
   11CHTO  H103 4451   6.850   6.749   2.005 -0.3844  0.2998  0.2074
   11CHTO   O39 4452   6.480   6.836   1.541  0.0163  0.0695  0.2251
   11CHTO   C60 4453   6.356   6.773   1.575  0.2197 -0.2988 -0.3403
   11CHTO  H117 4454   6.335   6.763   1.681  0.1913  2.5300 -0.0479
   11CHTO   C62 4455   6.237   6.854   1.501 -0.4329 -0.1364 -0.1283
   11CHTO  H119 4456   6.241   6.955   1.547  0.7466  0.1087 -0.7651
   11CHTO   O43 4457   6.268   6.871   1.360 -0.5950  0.2588 -0.7428
   11CHTO  H101 4458   6.199   6.923   1.324 -0.7334  0.0970 -0.7124
   11CHTO   C66 4459   6.097   6.792   1.533 -0.0453  0.8910  0.0720
   11CHTO  H123 4460   6.090   6.788   1.642 -0.2174  2.8140  0.1487
   11CHTO   N12 4461   5.978   6.872   1.488  0.2592 -0.2241  0.4934
   11CHTO  H110 4462   5.968   6.961   1.548  0.2518  0.2404 -0.1969
   11CHTO  H111 4463   5.948   6.887   1.386  0.0107 -3.3605  0.0568
   11CHTO   C69 4464   6.097   6.650   1.474  0.3792 -0.9133 -0.0183
   11CHTO  H126 4465   6.101   6.654   1.363 -1.1548  0.7783 -0.0288
   11CHTO   O41 4466   6.215   6.570   1.519  0.4956  0.4894  0.3362
   11CHTO   C64 4467   6.349   6.627   1.508 -0.1560 -0.3929 -0.8237
   11CHTO  H121 4468   6.370   6.638   1.400  0.8217 -0.5471 -0.6477
   11CHTO   C71 4469   6.449   6.538   1.579 -0.4132 -0.5415 -0.2723
   11CHTO   O47 4470   6.453   6.399   1.534  0.5925 -0.4817  0.3622
   11CHTO  H104 4471   6.487   6.336   1.594 -1.2322 -1.3028  0.5717
   11CHTO   O34 4472   5.981   6.580   1.508  0.3071  0.0613  0.4059
   11CHTO   C49 4473   5.893   6.473   1.412 -0.0880 -0.0677  0.0146
   11CHTO   H91 4474   5.793   6.468   1.456 -0.8488 -0.1577 -1.6762
   11CHTO   C47 4475   5.952   6.330   1.409 -0.4055 -0.2714 -0.1018
   11CHTO   H89 4476   5.931   6.299   1.514 -0.0043 -0.9500 -0.2198
   11CHTO   O33 4477   6.098   6.327   1.393 -0.1313 -0.0786 -0.1355
   11CHTO   H70 4478   6.140   6.245   1.409  2.5698  0.9574 -1.5059
   11CHTO   C45 4479   5.892   6.223   1.301  0.2460 -0.0217 -0.0522
   11CHTO   H87 4480   5.976   6.206   1.233 -2.0919 -1.6530 -2.6533
   11CHTO    N8 4481   5.867   6.093   1.364 -0.0927 -0.1082 -0.0198
   11CHTO   H75 4482   5.924   6.023   1.304 -1.7253 -2.0557  0.6156
   11CHTO   H76 4483   5.764   6.065   1.347  0.0984 -0.3106 -0.8837
   11CHTO   C43 4484   5.767   6.289   1.217 -0.9153 -0.6068 -0.4887
   11CHTO   H85 4485   5.743   6.223   1.134 -1.9162 -1.3717  0.4020
   11CHTO   O29 4486   5.786   6.427   1.170  0.2096  0.0503  0.3185
   11CHTO   C50 4487   5.864   6.515   1.258 -0.0698 -0.7200 -0.2806
   11CHTO   H92 4488   5.960   6.533   1.207  0.3163 -0.1136  0.6401
   11CHTO   C54 4489   5.797   6.656   1.266  0.3195  0.0722  0.2970
   11CHTO   O36 4490   5.656   6.660   1.301 -0.1723  0.1148  0.2785
   11CHTO   H72 4491   5.648   6.667   1.394 -1.2539 -0.4408  0.2426
   11CHTO   O27 4492   5.650   6.285   1.291  0.6244  0.0684  0.3907
   11CHTO   C37 4493   5.538   6.235   1.366  0.2263  0.2970 -0.2294
   11CHTO   H79 4494   5.581   6.172   1.445  0.5992 -1.2591 -1.6459
   11CHTO   C38 4495   5.475   6.361   1.444  0.6039  0.0183 -0.0789
   11CHTO   H80 4496   5.438   6.434   1.370  0.7492 -0.6029 -0.7688
   11CHTO   O31 4497   5.571   6.419   1.531 -0.0432  0.7037  0.2281
   11CHTO   H68 4498   5.635   6.455   1.474 -0.7110 -0.9710 -1.6331
   11CHTO   C39 4499   5.347   6.313   1.529  0.3591  0.5948  0.8835
   11CHTO   H81 4500   5.388   6.244   1.603 -0.1742 -1.5729 -0.7687
   11CHTO    N7 4501   5.276   6.426   1.590 -0.1648 -0.8034  0.5893
   11CHTO   H73 4502   5.168   6.413   1.590 -0.2269 -0.3412 -0.1376
   11CHTO   H74 4503   5.321   6.522   1.576 -3.6212  0.6235 -1.3912
   11CHTO   C40 4504   5.253   6.219   1.441 -0.0589  0.2295 -0.0515
   11CHTO   H82 4505   5.179   6.264   1.375 -1.1619  0.1052  1.0891
   11CHTO   O26 4506   5.331   6.119   1.371  0.1311 -0.3780  0.1022
   11CHTO   C41 4507   5.422   6.169   1.278  1.1233 -0.1386  0.1584
   11CHTO   H83 4508   5.371   6.242   1.214 -1.4104 -0.7576  1.4137
   11CHTO   C52 4509   5.467   6.046   1.204  0.0219 -0.4230 -0.8703
   11CHTO   O35 4510   5.390   6.017   1.116  0.2376  0.0766 -0.5211
   11CHTO   H71 4511   5.424   5.936   1.084  0.2747  0.7151 -2.1105
   11CHTO   O28 4512   5.173   6.139   1.526  0.1731 -0.0236  0.2153
   11CHTO   C42 4513   5.040   6.097   1.494  0.3735  0.1965  0.2649
   11CHTO   H84 4514   5.035   6.101   1.385  4.3318 -0.0367 -0.0119
   11CHTO   C44 4515   4.924   6.195   1.538 -0.8888  0.5836 -0.0268
   11CHTO   H86 4516   4.948   6.232   1.638 -0.6940 -0.5862  0.3741
   11CHTO   O32 4517   4.940   6.309   1.456 -0.0128  0.2759  0.2499
   11CHTO   H69 4518   4.932   6.293   1.364  0.8967  3.8865 -0.5740
   11CHTO   C48 4519   4.772   6.141   1.527 -0.9304 -0.3545 -0.6761
   11CHTO   H90 4520   4.742   6.125   1.424 -1.7317  0.1434 -0.5249
   11CHTO    N9 4521   4.670   6.239   1.575 -0.2383 -0.8293 -0.5198
   11CHTO   H77 4522   4.590   6.192   1.630  0.0128  0.7749  1.2648
   11CHTO   H78 4523   4.630   6.295   1.492  0.5976 -1.1407 -1.1420
   11CHTO   C51 4524   4.763   5.990   1.583 -0.5463 -0.1618  0.2358
   11CHTO   H93 4525   4.776   5.997   1.691  0.1330  1.0801  0.0881
   11CHTO   O30 4526   4.867   5.914   1.524  0.4972  0.0580 -0.2015
   11CHTO   C46 4527   5.005   5.954   1.550  0.1384 -0.5861 -0.3714
   11CHTO   H88 4528   5.022   5.955   1.657 -2.7785  2.1672  0.1590
   11CHTO   C53 4529   5.111   5.861   1.479  0.3075 -0.3303  0.1812
   11CHTO   O72 4530   5.089   5.726   1.519 -0.1444  0.1740  0.1211
   11CHTO  H199 4531   5.009   5.690   1.487 -0.1015  2.8507 -3.1771
   11CHTO   O22 4532   4.643   5.917   1.534  0.0042 -0.3296  0.6156
   11CHTO   C31 4533   4.556   5.844   1.618 -0.4552  0.1792  0.6176
   11CHTO   H59 4534   4.576   5.874   1.723  0.6717  0.0526  0.4480
   11CHTO   C29 4535   4.405   5.874   1.591  0.3621  0.4129  0.0234
   11CHTO   H57 4536   4.378   5.844   1.489  1.5157 -1.2083  0.1849
   11CHTO   O21 4537   4.388   6.016   1.603  0.1067 -0.1701  0.5523
   11CHTO   H37 4538   4.301   6.038   1.576 -0.7201 -2.0873  1.5312
   11CHTO   C27 4539   4.310   5.797   1.693  0.6553 -0.2451  0.3644
   11CHTO   H55 4540   4.337   5.827   1.795 -0.2030  0.7971  0.2997
   11CHTO    N5 4541   4.163   5.823   1.667  0.1147 -0.4225 -0.5320
   11CHTO   H43 4542   4.104   5.798   1.753  1.6540  0.6381  0.8733
   11CHTO   H44 4543   4.139   5.772   1.575 -1.4222 -0.7513  0.0295
   11CHTO   C25 4544   4.346   5.644   1.690 -0.5134 -1.1817  0.5429
   11CHTO   H53 4545   4.329   5.605   1.588  1.2105 -2.5679  0.7511
   11CHTO   O17 4546   4.488   5.628   1.713 -0.0073 -0.4624  0.0271
   11CHTO   C32 4547   4.572   5.688   1.615 -0.3963 -0.4786  0.4073
   11CHTO   H60 4548   4.551   5.660   1.511 -1.7523  1.8267  0.0255
   11CHTO   C36 4549   4.712   5.651   1.647 -0.1828 -0.4183  0.4658
   11CHTO   O25 4550   4.763   5.711   1.765 -0.0677  0.1691 -0.0695
   11CHTO   H40 4551   4.696   5.761   1.809 -0.3756  0.2728 -0.6437
   11CHTO   O15 4552   4.277   5.564   1.797  0.0835 -0.2244 -0.1655
   11CHTO   C19 4553   4.280   5.430   1.846 -0.7119 -0.0403  0.0417
   11CHTO   H47 4554   4.294   5.374   1.752 -0.5203 -0.3083  0.2296
   11CHTO   C20 4555   4.393   5.401   1.945 -0.6070 -0.2711 -0.2344
   11CHTO   H48 4556   4.372   5.449   2.042  1.9214  1.8295 -0.6856
   11CHTO   O19 4557   4.517   5.456   1.898 -0.2461  1.0072  0.2070
   11CHTO   H35 4558   4.521   5.548   1.881  1.2252  0.9797  0.3179
   11CHTO   C21 4559   4.396   5.233   1.974  0.1119 -0.6225  0.1777
   11CHTO   H49 4560   4.443   5.187   1.887  1.9493  1.1950  0.1655
   11CHTO    N4 4561   4.484   5.200   2.083  0.7800 -0.0234 -0.7774
   11CHTO   H41 4562   4.552   5.284   2.093  1.3385 -0.5407 -0.1697
   11CHTO   H42 4563   4.541   5.110   2.063  1.0365  0.2066 -1.0867
   11CHTO   C22 4564   4.253   5.179   2.004  0.4489 -0.3557  0.9534
   11CHTO   H50 4565   4.234   5.201   2.109 -1.7997 -1.4960  0.8168
   11CHTO   O14 4566   4.154   5.241   1.920 -0.3768 -0.6058 -0.2705
   11CHTO   C23 4567   4.151   5.379   1.908 -0.3358  0.0116 -0.4475
   11CHTO   H51 4568   4.127   5.424   2.006 -0.4523 -0.8666 -0.0635
   11CHTO   C34 4569   4.023   5.396   1.829  0.3435 -0.0081  0.2242
   11CHTO   O23 4570   3.983   5.533   1.827 -0.1270  0.1343 -0.3253
   11CHTO   H38 4571   3.890   5.534   1.815 -0.1043  0.6092 -0.4730
   11CHTO   O16 4572   4.242   5.043   1.957  0.0098 -0.0307 -0.4863
   11CHTO   C24 4573   4.182   4.935   2.066  0.2174  0.0192 -0.2151
   11CHTO   H52 4574   4.092   4.976   2.112 -0.2838 -0.3901 -0.8336
   11CHTO   C26 4575   4.282   4.890   2.177 -0.3025  0.4100  0.2989
   11CHTO   H54 4576   4.381   4.871   2.131  0.0838  1.5721  0.6209
   11CHTO   O20 4577   4.298   4.999   2.273  0.6203  0.4720 -0.6908
   11CHTO   H36 4578   4.382   5.012   2.313  0.7542  1.8092 -1.3572
   11CHTO   C30 4579   4.237   4.760   2.245 -0.8659 -0.5811  0.1028
   11CHTO   H58 4580   4.151   4.785   2.309 -0.3531  1.5793 -0.0381
   11CHTO    N6 4581   4.345   4.707   2.338 -0.4063  0.4712  0.0250
   11CHTO   H45 4582   4.422   4.661   2.279 -1.0840  0.7513 -1.0943
   11CHTO   H46 4583   4.389   4.776   2.409  1.2583 -0.1615 -0.3776
   11CHTO   C33 4584   4.197   4.658   2.137  0.1822 -0.0809  0.5371
   11CHTO   H61 4585   4.281   4.629   2.073 -0.4490 -2.0063  0.5632
   11CHTO   O18 4586   4.088   4.716   2.059 -0.1800 -0.3919  0.5161
   11CHTO   C28 4587   4.134   4.816   1.971 -0.9651 -0.5277  0.3652
   11CHTO   H56 4588   4.221   4.782   1.914 -2.0560  0.6369 -2.0946
   11CHTO   C35 4589   4.026   4.858   1.866  0.4685 -0.1522  0.2660
   11CHTO   O24 4590   4.000   4.742   1.788  0.2032 -0.3734 -0.1368
   11CHTO   H39 4591   4.044   4.733   1.705 -0.5719  1.1151 -0.7341
   11CHTO    O9 4592   4.155   4.540   2.195 -0.4414  0.2954 -0.7162
   11CHTO   C13 4593   4.179   4.397   2.113 -0.1995  0.1281  0.1740
   11CHTO   H26 4594   4.247   4.333   2.173 -1.8534 -1.2021  0.6596
   11CHTO   C11 4595   4.237   4.414   1.965 -0.2765  0.4484  0.2923
   11CHTO   H24 4596   4.338   4.455   1.973 -0.9887  1.9598  2.0612
   11CHTO    O8 4597   4.157   4.506   1.891 -0.3736  0.4802 -0.3516
   11CHTO    H3 4598   4.220   4.569   1.863  0.9924 -0.4083  0.6432
   11CHTO    C9 4599   4.229   4.276   1.892 -0.0213  0.3258  0.2615
   11CHTO   H22 4600   4.295   4.210   1.950 -0.4334 -1.9137 -1.7096
   11CHTO    N2 4601   4.282   4.278   1.753 -0.0589 -0.6106 -0.2948
   11CHTO   H10 4602   4.272   4.376   1.709 -0.6310  0.2046  1.5774
   11CHTO   H11 4603   4.383   4.239   1.750  0.1692 -0.0676  0.1972
   11CHTO    C7 4604   4.085   4.210   1.891  0.3018 -0.0022 -0.5761
   11CHTO   H20 4605   4.100   4.112   1.843 -0.1656 -0.6256  0.5326
   11CHTO    O4 4606   4.038   4.194   2.031  0.5900 -0.1519  0.5218
   11CHTO   C14 4607   4.040   4.315   2.111 -0.2943  0.2519  0.1750
   11CHTO   H27 4608   4.022   4.264   2.208 -0.8025 -1.0141 -0.5667
   11CHTO   C18 4609   3.916   4.403   2.084  0.1552 -0.1908  0.2705
   11CHTO   O13 4610   3.807   4.328   2.138 -0.1573  0.4571 -0.0945
   11CHTO    H7 4611   3.723   4.370   2.130  0.2863  1.4813  0.4181
   11CHTO    O2 4612   3.960   4.292   1.797 -0.1271  0.1298 -0.3269
   11CHTO    C1 4613   3.829   4.237   1.794  0.0183  0.6042  0.3671
   11CHTO   H14 4614   3.779   4.268   1.888  0.5213 -1.7241  1.4241
   11CHTO    C2 4615   3.818   4.077   1.783 -0.6513 -0.0475 -0.0142
   11CHTO   H15 4616   3.891   4.050   1.705 -0.9960 -0.7756 -0.0907
   11CHTO    O6 4617   3.857   4.023   1.912  0.1727 -0.0195  0.2690
   11CHTO    H1 4618   3.950   4.021   1.917  0.3980  2.5216 -1.7643
   11CHTO    C3 4619   3.675   4.027   1.743  0.7457  0.0428 -0.0504
   11CHTO   H16 4620   3.602   4.048   1.823 -1.9419 -1.2067 -2.0854
   11CHTO    N1 4621   3.665   3.879   1.726 -0.2372 -0.4332  0.9008
   11CHTO    H8 4622   3.742   3.821   1.775 -1.0316 -1.0880  1.3874
   11CHTO    H9 4623   3.572   3.848   1.771 -0.0637 -1.3215  0.6704
   11CHTO    C4 4624   3.630   4.107   1.615  0.3624 -0.2342  0.1348
   11CHTO   H17 4625   3.695   4.082   1.531 -0.3622  1.7228 -1.0481
   11CHTO    O1 4626   3.635   4.247   1.648 -0.3310 -0.2563 -0.3892
   11CHTO    C5 4627   3.762   4.304   1.677  0.1350 -0.2295 -0.5658
   11CHTO   H18 4628   3.817   4.294   1.584  3.0731  3.8318  0.5828
   11CHTO   C16 4629   3.748   4.446   1.704  0.0100  0.0434 -0.1068
   11CHTO   O11 4630   3.700   4.516   1.591  0.0046  0.3031 -0.2832
   11CHTO    H5 4631   3.621   4.564   1.606 -0.8894 -0.7785 -1.4234
   11CHTO    O3 4632   3.494   4.092   1.575  0.1171  0.1660  0.5713
   11CHTO    C6 4633   3.473   4.109   1.429 -0.0552  0.0767  0.3464
   11CHTO   H19 4634   3.557   4.150   1.373  0.3005  0.3598  1.0747
   11CHTO    C8 4635   3.439   3.969   1.361 -0.1096 -0.1735 -0.2629
   11CHTO   H21 4636   3.358   3.927   1.420  0.0755  0.3979  0.4055
   11CHTO    O7 4637   3.561   3.895   1.375  0.7662 -0.4079 -0.2507
   11CHTO    H2 4638   3.552   3.812   1.418  1.2589 -0.8454 -0.9628
   11CHTO   C12 4639   3.382   3.994   1.217  0.2663 -0.3427  0.0153
   11CHTO   H25 4640   3.461   4.047   1.160 -0.2418  1.6250  1.0868
   11CHTO    N3 4641   3.351   3.868   1.136  0.0012 -0.0387 -0.6098
   11CHTO   H12 4642   3.374   3.771   1.176  0.0903  0.4049  0.4343
   11CHTO   H13 4643   3.393   3.879   1.036 -1.1228 -0.0956 -1.0916
   11CHTO   C15 4644   3.251   4.081   1.230 -0.2323 -0.1733 -0.2222
   11CHTO   H28 4645   3.171   4.026   1.280 -1.1039  0.8029 -0.5210
   11CHTO   O10 4646   3.190   4.129   1.095  0.1538 -0.0006  0.6007
   11CHTO    H4 4647   3.106   4.170   1.106 -1.7359 -3.8116  1.2260
   11CHTO    O5 4648   3.290   4.209   1.286  0.4232  0.0078 -0.0480
   11CHTO   C10 4649   3.356   4.215   1.416  0.6530 -0.1742 -0.2595
   11CHTO   H23 4650   3.287   4.193   1.497 -1.1476  0.9112 -1.4548
   11CHTO   C17 4651   3.396   4.365   1.436 -0.3898  0.0814  0.4397
   11CHTO   O12 4652   3.515   4.401   1.362  0.0148  0.0534 -0.6041
   11CHTO    H6 4653   3.512   4.349   1.284 -0.2236  1.1370 -1.3184
   12CHTO  H203 4654   5.382  11.377  -0.289  0.1841 -1.5994  0.5875
   12CHTO   O82 4655   5.351  11.320  -0.357  0.4756 -1.1623  0.0832
   12CHTO  C123 4656   5.320  11.205  -0.279 -0.1801 -0.0500  0.3293
   12CHTO  H227 4657   5.400  11.184  -0.207 -1.4307  2.9063  2.7207
   12CHTO   O77 4658   5.197  11.252  -0.210 -0.5505  0.3491  0.0014
   12CHTO  C118 4659   5.131  11.156  -0.121  0.2470  0.0299 -0.8620
   12CHTO  H222 4660   5.218  11.130  -0.059  1.5260 -0.8205 -2.9827
   12CHTO  C125 4661   5.008  11.228  -0.033  0.0955  0.1496 -0.0290
   12CHTO   O84 4662   4.882  11.233  -0.110  0.5830  0.0957  0.5433
   12CHTO  H205 4663   4.867  11.157  -0.162 -0.6686  0.5080  0.2887
   12CHTO  C114 4664   5.084  11.026  -0.190  0.1361 -0.4362 -0.7188
   12CHTO  H218 4665   5.020  11.058  -0.272  2.7008 -0.9559 -3.0081
   12CHTO  C116 4666   5.212  10.967  -0.266  0.8508  0.2553 -0.1042
   12CHTO  H220 4667   5.287  10.927  -0.195 -1.5973 -0.4347  2.1535
   12CHTO   O79 4668   5.163  10.859  -0.347  0.7294 -0.1653 -0.6833
   12CHTO  H201 4669   5.229  10.796  -0.367  0.7889 -0.1530 -0.5326
   12CHTO  C120 4670   5.279  11.079  -0.362  0.8229 -0.0674 -0.1332
   12CHTO  H224 4671   5.199  11.110  -0.432  1.1667 -0.8712 -0.8990
   12CHTO   N21 4672   5.395  11.024  -0.447  0.0230 -0.2373  0.0568
   12CHTO  H211 4673   5.379  11.070  -0.543  0.6686  0.6255  0.3575
   12CHTO  H212 4674   5.497  11.045  -0.416 -0.1186 -0.0879  0.4207
   12CHTO   O75 4675   5.025  10.943  -0.085 -0.4841  0.0323  0.1629
   12CHTO  C112 4676   5.033  10.791  -0.055  0.0842  0.2887 -0.4044
   12CHTO  H216 4677   5.138  10.772  -0.027 -0.6841 -0.9430  1.7064
   12CHTO   O73 4678   4.992  10.725  -0.173 -0.5025  0.8728  0.3404
   12CHTO  C113 4679   5.001  10.584  -0.165 -0.0731 -0.0571  0.1674
   12CHTO  H217 4680   5.103  10.558  -0.130  0.2154  0.5346 -0.2114
   12CHTO  C124 4681   4.987  10.530  -0.311  0.2749 -0.3211  0.0930
   12CHTO   O83 4682   4.853  10.528  -0.372  0.0972 -0.0817  0.4896
   12CHTO  H204 4683   4.864  10.497  -0.460 -0.5720 -0.2128  0.4477
   12CHTO  C109 4684   4.895  10.533  -0.062 -0.6677 -0.8082 -0.8459
   12CHTO  H213 4685   4.797  10.568  -0.098 -0.0967  1.8992  0.0536
   12CHTO  C110 4686   4.915  10.601   0.086  0.3165 -0.1680 -0.5455
   12CHTO  H214 4687   5.002  10.563   0.140 -0.6080  0.1030  1.1725
   12CHTO   O78 4688   4.806  10.562   0.168  0.1573  0.1085  0.2191
   12CHTO  H200 4689   4.724  10.585   0.129  0.3390  1.6021  0.6962
   12CHTO  C111 4690   4.926  10.757   0.061  0.9181 -0.3434 -0.5062
   12CHTO  H215 4691   4.828  10.797   0.034  1.9911  1.0307 -2.5520
   12CHTO   N19 4692   4.967  10.831   0.185 -0.1355  0.4909 -0.1830
   12CHTO  H207 4693   5.066  10.810   0.222 -0.2671 -0.6410 -0.4606
   12CHTO  H208 4694   4.902  10.799   0.265  0.7045 -0.8116 -0.0223
   12CHTO   O74 4695   4.897  10.385  -0.057 -0.2000 -0.2861 -0.1091
   12CHTO  C115 4696   4.756  10.315  -0.048  0.0448  0.7744 -0.3580
   12CHTO  H219 4697   4.676  10.386  -0.027 -0.7476 -0.7903  2.0298
   12CHTO   O76 4698   4.710  10.247  -0.193  0.1440 -0.3910 -0.0735
   12CHTO  C122 4699   4.785  10.135  -0.240  0.3889  0.0176  0.0086
   12CHTO  H226 4700   4.881  10.183  -0.260 -0.0752  0.7007 -0.5955
   12CHTO  C126 4701   4.729  10.072  -0.375  0.4318 -0.1684 -0.4680
   12CHTO   O85 4702   4.829  10.024  -0.464  0.0026  0.0531  0.7077
   12CHTO  H206 4703   4.791   9.982  -0.538 -0.6732 -1.1960  1.7383
   12CHTO  C121 4704   4.796  10.024  -0.130 -0.3488  0.3975 -0.3443
   12CHTO  H225 4705   4.755   9.934  -0.180  1.2061 -1.1221  1.0349
   12CHTO   O81 4706   4.939   9.997  -0.102 -0.0415  0.4546 -0.3014
   12CHTO  H202 4707   4.952   9.942  -0.027  3.8291 -0.4658 -1.5155
   12CHTO  C119 4708   4.708  10.059  -0.007 -0.2000  1.1048 -0.8434
   12CHTO  H223 4709   4.608  10.083  -0.046 -0.5568  0.2560 -0.4539
   12CHTO  C117 4710   4.763  10.192   0.055  0.9606 -0.5348 -0.2581
   12CHTO  H221 4711   4.865  10.189   0.092  0.9357  0.2195 -0.1290
   12CHTO   N20 4712   4.683  10.238   0.173  0.1195 -0.1469 -0.0287
   12CHTO  H209 4713   4.686  10.171   0.258  3.0710  1.3549  1.1432
   12CHTO  H210 4714   4.582  10.235   0.135  0.8221 -0.2959 -1.9227
   12CHTO   O80 4715   4.678   9.936   0.094 -0.7807  0.4911 -0.4017
   12CHTO  C103 4716   4.533   9.875   0.102 -1.3076 -0.6593  0.6102
   12CHTO  H190 4717   4.458   9.941   0.146 -0.9372 -0.4640  0.9442
   12CHTO  C101 4718   4.478   9.814  -0.031 -0.7925 -0.3202 -0.0843
   12CHTO  H188 4719   4.564   9.763  -0.076 -0.2931  2.1677 -2.0045
   12CHTO   O68 4720   4.435   9.917  -0.129 -0.1257 -0.3552  0.2815
   12CHTO  H168 4721   4.439   9.879  -0.215  1.9313  0.2798  0.0650
   12CHTO   C99 4722   4.357   9.717  -0.002 -0.7943  0.8380  0.4508
   12CHTO  H186 4723   4.269   9.762   0.049 -2.1763  0.6756 -1.7377
   12CHTO   N17 4724   4.292   9.657  -0.128  0.0638 -0.4744  0.7588
   12CHTO  H174 4725   4.372   9.599  -0.172 -0.4928 -0.2440 -0.5617
   12CHTO  H175 4726   4.212   9.588  -0.106  1.1303 -1.6410  1.0653
   12CHTO   C97 4727   4.400   9.607   0.099  0.3557 -0.0105  0.1277
   12CHTO  H184 4728   4.484   9.548   0.060  0.3694 -2.5688  3.7455
   12CHTO   O64 4729   4.438   9.673   0.221 -0.1275 -0.0173 -0.2468
   12CHTO  C104 4730   4.550   9.756   0.208  0.1526  0.6455 -0.2730
   12CHTO  H191 4731   4.634   9.695   0.174  0.3700  2.0715 -2.4051
   12CHTO  C108 4732   4.594   9.805   0.347 -0.2076  0.3729  0.2200
   12CHTO   O71 4733   4.656   9.708   0.424  0.1706  0.5912  0.1557
   12CHTO  H171 4734   4.612   9.707   0.507 -0.9153  1.3653 -0.3944
   12CHTO   O62 4735   4.292   9.524   0.150  0.1173 -0.2117  0.1958
   12CHTO   C91 4736   4.329   9.391   0.174 -0.3114  0.2768  0.0911
   12CHTO  H178 4737   4.369   9.349   0.082  0.1710 -0.4503  0.6292
   12CHTO   C92 4738   4.189   9.320   0.194 -0.0538 -0.0190 -0.7186
   12CHTO  H179 4739   4.120   9.339   0.110 -0.5103  0.1538 -0.3033
   12CHTO   O66 4740   4.222   9.179   0.175 -0.1614  0.0576  0.1182
   12CHTO  H166 4741   4.251   9.160   0.088  1.7564  1.4732  0.4299
   12CHTO   C93 4742   4.121   9.339   0.337 -0.9345  0.0214  0.3333
   12CHTO  H180 4743   4.049   9.258   0.356 -0.5555 -0.6418 -1.0255
   12CHTO   N16 4744   4.034   9.459   0.335  0.4997  1.1170 -0.1267
   12CHTO  H172 4745   3.948   9.434   0.274  2.1832  2.2260 -3.0763
   12CHTO  H173 4746   4.080   9.551   0.303 -0.6885  1.1786 -1.7410
   12CHTO   C94 4747   4.230   9.344   0.454 -0.5337  0.1936 -0.4349
   12CHTO  H181 4748   4.239   9.444   0.496  0.4039  1.1466 -2.8157
   12CHTO   O61 4749   4.358   9.291   0.406  0.2608 -0.0865 -0.1018
   12CHTO   C95 4750   4.427   9.364   0.303  0.0432  0.4827 -0.2428
   12CHTO  H182 4751   4.461   9.458   0.347  0.9403 -0.1162  0.3630
   12CHTO  C106 4752   4.545   9.280   0.262  0.3323  0.6778  1.0509
   12CHTO   O69 4753   4.520   9.140   0.235 -0.0004 -0.0105 -0.4030
   12CHTO  H169 4754   4.602   9.095   0.235 -0.4268 -0.7909 -0.7541
   12CHTO   O63 4755   4.192   9.237   0.576  0.0120  1.0585 -0.3310
   12CHTO   C96 4756   4.301   9.232   0.701  0.2234 -0.2385  0.3241
   12CHTO  H183 4757   4.348   9.331   0.702 -0.5523  0.1748 -1.6781
   12CHTO   C98 4758   4.410   9.120   0.699  0.2042  0.3883  0.6193
   12CHTO  H185 4759   4.470   9.118   0.607 -1.2725 -3.6428 -0.3680
   12CHTO   O67 4760   4.506   9.140   0.806 -0.7601 -0.0328 -0.1994
   12CHTO  H167 4761   4.577   9.185   0.763 -1.2475 -1.7575 -2.9202
   12CHTO  C102 4762   4.341   8.975   0.719 -0.3672  0.0026  0.4375
   12CHTO  H189 4763   4.423   8.902   0.730  0.1339  0.6454  0.9941
   12CHTO   N18 4764   4.265   8.927   0.602  0.1266 -0.0284  0.6129
   12CHTO  H176 4765   4.265   9.007   0.529 -0.1794  1.0642  1.8094
   12CHTO  H177 4766   4.314   8.841   0.559  1.5379  0.9005  0.3281
   12CHTO  C105 4767   4.256   8.980   0.850  0.1582 -0.1796 -0.1665
   12CHTO  H192 4768   4.199   8.887   0.852 -0.7190  0.3881  2.3854
   12CHTO   O65 4769   4.169   9.098   0.873 -0.0999 -0.2751  0.0832
   12CHTO  C100 4770   4.207   9.233   0.834 -0.0115  0.8505 -0.8194
   12CHTO  H187 4771   4.109   9.279   0.811 -1.0279 -1.3048 -0.9614
   12CHTO  C107 4772   4.265   9.305   0.955 -0.0194 -0.2289 -0.1769
   12CHTO   O70 4773   4.306   9.436   0.944 -0.3243 -0.1796  0.2382
   12CHTO  H170 4774   4.259   9.489   0.883  1.1370 -1.0794 -1.7266
   12CHTO   O57 4775   4.384   8.951   0.957 -0.3391 -0.6294  0.5902
   12CHTO   C85 4776   4.359   8.935   1.096  0.6189 -0.5224 -0.3188
   12CHTO  H157 4777   4.252   8.963   1.110 -0.0491 -3.4637  1.0256
   12CHTO   C83 4778   4.426   9.040   1.192 -0.5846 -0.3461 -0.2697
   12CHTO  H155 4779   4.386   9.136   1.160 -2.3857 -1.0130 -0.1180
   12CHTO   O56 4780   4.564   9.041   1.174 -0.4417  0.2211 -0.8367
   12CHTO  H135 4781   4.598   9.090   1.101  0.9798  1.5120  0.6615
   12CHTO   C81 4782   4.390   9.016   1.346 -0.3674 -0.5505 -0.1326
   12CHTO  H153 4783   4.282   9.019   1.354 -0.3345  1.4466 -0.1720
   12CHTO   N14 4784   4.436   9.122   1.440 -0.0462  0.0453  0.6531
   12CHTO  H141 4785   4.510   9.184   1.393 -0.9834  1.2202  0.7374
   12CHTO  H142 4786   4.476   9.074   1.527 -1.0055  0.7202  1.4664
   12CHTO   C79 4787   4.433   8.874   1.389  0.1791  0.4018 -0.4005
   12CHTO  H151 4788   4.394   8.857   1.490  0.0080 -1.8950 -0.8175
   12CHTO   O52 4789   4.364   8.779   1.300 -0.1702 -0.0491 -0.0067
   12CHTO   C86 4790   4.388   8.787   1.156 -0.3264  0.4586  0.1499
   12CHTO  H158 4791   4.495   8.760   1.144 -0.9712 -1.2305 -2.0883
   12CHTO   C90 4792   4.300   8.675   1.079 -0.0947  0.6843  0.3914
   12CHTO   O60 4793   4.348   8.536   1.095 -0.8579 -0.4165 -0.2455
   12CHTO  H138 4794   4.337   8.481   1.020 -2.6093  0.6945 -0.8145
   12CHTO   O50 4795   4.575   8.841   1.388  0.1167  0.3730  0.2310
   12CHTO   C73 4796   4.611   8.747   1.487 -0.8115  0.4198 -0.3822
   12CHTO  H145 4797   4.520   8.696   1.522  0.7467 -3.3133 -1.5938
   12CHTO   C74 4798   4.671   8.832   1.601  0.1826 -0.1387  0.0706
   12CHTO  H146 4799   4.601   8.914   1.619 -1.3665 -0.7026 -3.1090
   12CHTO   O54 4800   4.672   8.755   1.727 -0.0547  0.2330  0.0587
   12CHTO  H133 4801   4.586   8.729   1.752 -0.3639  2.5976  1.5753
   12CHTO   C75 4802   4.812   8.884   1.551  0.3764 -0.1093 -0.7928
   12CHTO  H147 4803   4.810   8.932   1.453  3.1529  3.1778  0.6517
   12CHTO   N13 4804   4.875   8.978   1.651 -0.1229 -0.1940 -0.5312
   12CHTO  H139 4805   4.800   9.055   1.662 -0.6456 -0.9230  1.1964
   12CHTO  H140 4806   4.968   9.020   1.614 -0.0767 -1.1115 -1.4744
   12CHTO   C76 4807   4.909   8.756   1.516  0.0226 -0.2068 -0.0161
   12CHTO  H148 4808   4.921   8.695   1.606 -0.3617 -1.2949 -0.6905
   12CHTO   O49 4809   4.845   8.676   1.406  0.3688 -0.4785 -0.1709
   12CHTO   C77 4810   4.711   8.630   1.443 -0.1673 -0.0274 -0.2774
   12CHTO  H149 4811   4.721   8.560   1.526 -2.5774  0.4863  0.4690
   12CHTO   C88 4812   4.646   8.547   1.334 -0.3603  0.3043 -0.4920
   12CHTO   O58 4813   4.742   8.432   1.294 -0.3082 -0.5580 -0.6961
   12CHTO  H136 4814   4.779   8.396   1.372  1.7134 -0.5291 -1.5894
   12CHTO   O51 4815   5.042   8.791   1.451 -0.3705 -0.1136 -0.1599
   12CHTO   C78 4816   5.154   8.689   1.509  0.4920  0.1085 -0.8036
   12CHTO  H150 4817   5.115   8.587   1.530  0.7891  0.2986  0.7535
   12CHTO   C80 4818   5.206   8.748   1.643 -0.5434  0.0070  0.6128
   12CHTO  H152 4819   5.253   8.846   1.623  1.6826 -0.4310  3.3454
   12CHTO   O55 4820   5.101   8.765   1.740  0.0831  0.3597 -0.0396
   12CHTO  H134 4821   5.040   8.833   1.718 -1.9902 -1.0860  1.0974
   12CHTO   C84 4822   5.322   8.656   1.709  0.6769 -0.2572 -0.1799
   12CHTO  H156 4823   5.275   8.562   1.739 -0.0806  0.7954  2.0754
   12CHTO   N15 4824   5.383   8.721   1.833 -0.0228  0.2660 -0.0414
   12CHTO  H143 4825   5.445   8.802   1.801  0.6314 -0.5614 -0.9015
   12CHTO  H144 4826   5.447   8.653   1.885 -1.4653 -0.7887  0.3914
   12CHTO   C87 4827   5.430   8.628   1.594  0.7673 -0.0640  0.3971
   12CHTO  H159 4828   5.486   8.721   1.582  3.5310 -1.4128  2.3156
   12CHTO   O53 4829   5.367   8.581   1.464 -0.0237 -0.2455 -0.2407
   12CHTO   C82 4830   5.267   8.673   1.406 -0.2573  0.0221 -0.1262
   12CHTO  H154 4831   5.305   8.772   1.383 -4.3891  2.1127  1.5062
   12CHTO   C89 4832   5.231   8.604   1.265 -0.0169 -0.4153 -0.1093
   12CHTO   O59 4833   5.116   8.662   1.208 -0.6392 -0.5009  0.4980
   12CHTO  H137 4834   5.095   8.615   1.129  1.4048  0.1078 -0.4542
   12CHTO   O45 4835   5.532   8.495   1.649 -0.1970  0.3122 -0.1587
   12CHTO   C67 4836   5.667   8.487   1.598  0.2065  0.3271  0.1569
   12CHTO  H124 4837   5.709   8.389   1.622 -0.2496  0.0348 -0.2332
   12CHTO   C65 4838   5.677   8.512   1.444  1.0929 -0.5683  0.9401
   12CHTO  H122 4839   5.575   8.509   1.407  0.3979 -0.2001  2.7832
   12CHTO   O44 4840   5.754   8.410   1.375 -0.1388 -0.0054  0.4357
   12CHTO  H102 4841   5.713   8.333   1.341 -1.4624  1.9400 -2.6253
   12CHTO   C63 4842   5.726   8.657   1.413  0.0484  0.1664 -1.0759
   12CHTO  H120 4843   5.670   8.729   1.472 -1.4892 -1.1857 -0.8303
   12CHTO   N11 4844   5.695   8.715   1.277  0.4190  0.0619  0.3801
   12CHTO  H108 4845   5.658   8.644   1.206  0.2158  0.7259 -0.1845
   12CHTO  H109 4846   5.783   8.766   1.244  1.1213 -2.2036 -1.3625
   12CHTO   C61 4847   5.875   8.666   1.472 -0.3682 -0.0979 -0.1763
   12CHTO  H118 4848   5.893   8.773   1.489  0.0772 -0.3461  0.9891
   12CHTO   O40 4849   5.892   8.596   1.612  0.1723 -0.4488  0.4552
   12CHTO   C68 4850   5.765   8.587   1.681  0.3390  0.0431  0.5172
   12CHTO  H125 4851   5.720   8.687   1.690 -2.4217 -0.8648 -2.3036
   12CHTO   C72 4852   5.787   8.526   1.818 -0.2327 -0.0104  0.3434
   12CHTO   O48 4853   5.691   8.568   1.916 -0.1062 -0.0942 -0.3028
   12CHTO  H105 4854   5.681   8.660   1.901 -1.3235 -0.3247 -1.0286
   12CHTO   O38 4855   5.982   8.606   1.386  0.7385  0.1836 -0.0888
   12CHTO   C55 4856   6.033   8.682   1.272 -0.6169 -0.5319 -0.4251
   12CHTO  H112 4857   5.957   8.759   1.252 -1.2233 -0.9397  0.2722
   12CHTO   C56 4858   6.049   8.581   1.151  0.3448  0.5926 -0.1518
   12CHTO  H113 4859   6.118   8.502   1.185 -1.6716 -0.7612  0.9369
   12CHTO   O42 4860   5.925   8.519   1.123 -0.1614  0.2510 -0.9251
   12CHTO  H100 4861   5.911   8.504   1.031  0.6337 -1.3053 -0.8127
   12CHTO   C57 4862   6.109   8.647   1.025  0.1575 -0.0949 -0.1764
   12CHTO  H114 4863   6.032   8.702   0.972  0.4766  0.8296  0.3125
   12CHTO   N10 4864   6.142   8.556   0.911  0.4034  0.0234  0.0229
   12CHTO  H106 4865   6.247   8.532   0.906  0.7959  1.9917 -1.8224
   12CHTO  H107 4866   6.085   8.465   0.918  0.3258  0.0736  0.0513
   12CHTO   C58 4867   6.229   8.745   1.053 -0.9369 -0.7658  0.4650
   12CHTO  H115 4868   6.319   8.683   1.073 -0.2529  0.0007 -0.2290
   12CHTO   O37 4869   6.199   8.824   1.176  0.0500 -0.7087 -0.2467
   12CHTO   C59 4870   6.172   8.752   1.290 -0.6112 -0.0805 -0.0452
   12CHTO  H116 4871   6.249   8.675   1.300  0.5122  1.3580  2.7399
   12CHTO   C70 4872   6.164   8.848   1.403  0.0588 -0.4624  0.1049
   12CHTO   O46 4873   6.284   8.921   1.420  0.2121  0.0750  0.4046
   12CHTO  H103 4874   6.282   8.970   1.500  0.7844 -0.9917  1.0842
   12CHTO   O39 4875   6.273   8.853   0.927 -0.1768  0.0783 -0.0121
   12CHTO   C60 4876   6.360   8.806   0.819  0.1641 -0.3885  0.1665
   12CHTO  H117 4877   6.406   8.709   0.838  0.5544 -0.5364 -1.4405
   12CHTO   C62 4878   6.274   8.796   0.684 -0.1109 -0.2827  0.2007
   12CHTO  H119 4879   6.200   8.714   0.694  1.4213 -1.8004 -0.5486
   12CHTO   O43 4880   6.202   8.922   0.668 -0.6692  0.0986 -0.0332
   12CHTO  H101 4881   6.147   8.921   0.592 -1.8840  2.3771  0.7797
   12CHTO   C66 4882   6.369   8.763   0.565 -0.3220  0.4929  0.5670
   12CHTO  H123 4883   6.415   8.667   0.588 -2.0327 -0.4288  0.2175
   12CHTO   N12 4884   6.293   8.736   0.438 -0.0515 -0.2506  0.4332
   12CHTO  H110 4885   6.347   8.773   0.352 -2.7156 -0.4996 -1.4036
   12CHTO  H111 4886   6.198   8.788   0.447  0.4838  0.6050  1.1644
   12CHTO   C69 4887   6.489   8.869   0.559  0.7986 -0.1133 -0.3288
   12CHTO  H126 4888   6.445   8.969   0.541 -0.3961 -0.2179  1.7862
   12CHTO   O41 4889   6.563   8.867   0.677 -0.6173  0.1599  0.3950
   12CHTO   C64 4890   6.486   8.901   0.796 -0.1700 -0.3823 -0.3574
   12CHTO  H121 4891   6.451   9.007   0.792  0.7698 -0.0844 -0.9524
   12CHTO   C71 4892   6.578   8.896   0.931  0.0526  0.1133 -0.2054
   12CHTO   O47 4893   6.506   8.939   1.049 -0.0137 -0.1849  0.4032
   12CHTO  H104 4894   6.557   9.008   1.088  0.4191 -1.2167  1.6695
   12CHTO   O34 4895   6.597   8.839   0.434 -0.4056  0.2457  0.1578
   12CHTO   C49 4896   6.746   8.822   0.419  0.3989 -0.0307  0.8055
   12CHTO   H91 4897   6.791   8.919   0.440  1.0456  0.2044 -1.5587
   12CHTO   C47 4898   6.764   8.779   0.272  0.0986  0.0094  0.3438
   12CHTO   H89 4899   6.874   8.789   0.259 -0.0689 -0.5785 -1.6720
   12CHTO   O33 4900   6.702   8.869   0.178 -0.1346 -0.4139 -0.6421
   12CHTO   H70 4901   6.702   8.850   0.086 -2.1938 -0.3673 -0.6840
   12CHTO   C45 4902   6.710   8.636   0.245  0.1453 -0.6743 -0.1384
   12CHTO   H87 4903   6.611   8.639   0.197  1.4022 -1.9920 -2.9037
   12CHTO    N8 4904   6.807   8.573   0.152 -0.1242 -0.2835  1.0095
   12CHTO   H75 4905   6.889   8.633   0.117 -0.1117 -1.5678 -1.2940
   12CHTO   H76 4906   6.755   8.540   0.063  1.1928 -1.3861  0.6468
   12CHTO   C43 4907   6.680   8.548   0.377 -0.1091 -0.7491  0.0410
   12CHTO   H85 4908   6.586   8.593   0.410  2.5959  1.5808  4.9376
   12CHTO   O29 4909   6.786   8.579   0.476  0.5688 -0.2832 -0.3939
   12CHTO   C50 4910   6.796   8.716   0.518 -0.2170 -0.2749  0.1644
   12CHTO   H92 4911   6.738   8.728   0.611  1.0593 -1.8920  1.1992
   12CHTO   C54 4912   6.949   8.733   0.564  0.3682 -0.0774 -0.4276
   12CHTO   O36 4913   6.998   8.655   0.671  0.0073 -0.2058  0.0983
   12CHTO   H72 4914   7.090   8.672   0.682  0.3739 -0.0836 -2.7372
   12CHTO   O27 4915   6.644   8.415   0.334 -0.1073  0.5920 -0.0103
   12CHTO   C37 4916   6.564   8.315   0.397  0.1290  0.6027  0.6992
   12CHTO   H79 4917   6.584   8.219   0.347  1.0222 -0.0360  2.2332
   12CHTO   C38 4918   6.610   8.300   0.542 -0.1975  0.6874  0.0475
   12CHTO   H80 4919   6.614   8.401   0.586  1.1605  0.4209  0.5582
   12CHTO   O31 4920   6.741   8.237   0.549 -0.4823  0.7123 -0.1568
   12CHTO   H68 4921   6.795   8.299   0.503  0.0891 -0.6204 -1.3211
   12CHTO   C39 4922   6.506   8.219   0.628  0.3670 -0.0665 -0.3850
   12CHTO   H81 4923   6.511   8.118   0.589  1.2769 -0.0103 -0.4235
   12CHTO    N7 4924   6.536   8.217   0.767  0.2411 -0.1236  0.1136
   12CHTO   H73 4925   6.549   8.321   0.793 -1.5108 -0.1778  1.1991
   12CHTO   H74 4926   6.629   8.167   0.792  0.0110  0.1128  1.4512
   12CHTO   C40 4927   6.360   8.260   0.603  1.0200 -0.2160  0.0494
   12CHTO   H82 4928   6.343   8.362   0.638  0.5364 -0.6768  1.1779
   12CHTO   O26 4929   6.340   8.246   0.462 -0.1187  0.2035  0.0937
   12CHTO   C41 4930   6.416   8.351   0.391  0.6179  0.4869  0.5183
   12CHTO   H83 4931   6.400   8.448   0.440 -1.8367 -1.4347  3.7368
   12CHTO   C52 4932   6.364   8.362   0.245  0.7610  0.3515  0.0918
   12CHTO   O35 4933   6.209   8.441   0.238  0.8817  0.2022  0.1221
   12CHTO   H71 4934   6.208   8.518   0.292 -1.2015  1.2463 -1.3415
   12CHTO   O28 4935   6.263   8.168   0.662 -0.1074  0.0214 -0.3114
   12CHTO   C42 4936   6.154   8.211   0.749 -0.0314  0.1849 -0.1226
   12CHTO   H84 4937   6.170   8.316   0.771  0.0393  0.0825  0.3095
   12CHTO   C44 4938   6.139   8.129   0.884 -0.2683 -0.5056 -0.1274
   12CHTO   H86 4939   6.090   8.034   0.864 -2.6764  1.1167 -2.2421
   12CHTO   O32 4940   6.273   8.105   0.936 -0.4397 -0.0691 -0.2737
   12CHTO   H69 4941   6.327   8.046   0.887 -0.6171  0.8739 -1.6370
   12CHTO   C48 4942   6.038   8.209   0.979  0.2768  0.0206 -0.7685
   12CHTO   H90 4943   6.069   8.307   1.014  0.7152  0.9468 -3.6157
   12CHTO    N9 4944   6.014   8.133   1.107  0.0432 -0.4589 -0.1187
   12CHTO   H77 4945   5.933   8.063   1.117 -0.5877  0.4430  1.1979
   12CHTO   H78 4946   6.023   8.203   1.188 -0.7691 -0.7430  0.2164
   12CHTO   C51 4947   5.898   8.219   0.905 -0.8758  1.0513  0.2343
   12CHTO   H93 4948   5.861   8.117   0.894  0.2465  0.5130  1.3218
   12CHTO   O30 4949   5.918   8.279   0.775 -1.0054 -0.2306  0.1099
   12CHTO   C46 4950   6.019   8.209   0.679  0.2287  0.0656  0.4301
   12CHTO   H88 4951   5.995   8.106   0.651  1.8310 -0.0830 -0.4629
   12CHTO   C53 4952   6.013   8.291   0.544 -0.8502  0.2329  0.3101
   12CHTO   O72 4953   6.075   8.210   0.442  0.5791 -0.0630  0.4793
   12CHTO  H199 4954   6.021   8.196   0.366 -0.3664 -3.4604  1.6841
   12CHTO   O22 4955   5.796   8.299   0.971  0.1301 -0.2438 -0.2802
   12CHTO   C31 4956   5.656   8.307   0.923  0.5045  0.1793 -0.0517
   12CHTO   H59 4957   5.657   8.286   0.814  0.8563  0.8588 -0.1757
   12CHTO   C29 4958   5.560   8.199   0.986 -0.1225  0.5816  0.2813
   12CHTO   H57 4959   5.576   8.215   1.094 -0.2662  1.5268  0.1660
   12CHTO   O21 4960   5.615   8.076   0.950  0.0666 -0.4499  0.0112
   12CHTO   H37 4961   5.632   8.035   1.032 -0.6883 -1.2463 -0.2166
   12CHTO   C27 4962   5.406   8.230   0.958  0.2115  0.5061  0.1235
   12CHTO   H55 4963   5.391   8.203   0.853 -1.9847 -1.0827  0.8212
   12CHTO    N5 4964   5.322   8.140   1.040  0.0804 -0.5171  0.0886
   12CHTO   H43 4965   5.216   8.155   1.023  0.5054  1.3816 -1.0219
   12CHTO   H44 4966   5.338   8.160   1.145  1.8094  2.9545 -0.7714
   12CHTO   C25 4967   5.362   8.379   0.957  0.2336 -0.1060 -0.5823
   12CHTO   H53 4968   5.354   8.417   1.060 -0.8831 -0.7893 -0.4127
   12CHTO   O17 4969   5.457   8.458   0.883 -0.2536 -0.3348 -0.0476
   12CHTO   C32 4970   5.590   8.449   0.942 -0.2139 -0.4355 -0.9433
   12CHTO   H60 4971   5.591   8.475   1.048 -1.1373  0.9537 -1.2575
   12CHTO   C36 4972   5.669   8.562   0.871 -0.2835 -0.0350  0.2856
   12CHTO   O25 4973   5.633   8.690   0.914  0.0790 -0.3652  0.3274
   12CHTO   H40 4974   5.708   8.745   0.902 -1.3559  2.0255  1.7238
   12CHTO   O15 4975   5.204   8.384   0.880  0.1602 -0.5886 -0.5233
   12CHTO   C19 4976   5.112   8.487   0.813 -0.0840 -0.2617  0.0020
   12CHTO   H47 4977   5.131   8.575   0.876  2.2937 -0.6746 -0.0600
   12CHTO   C20 4978   5.151   8.531   0.667  0.4808  0.3378  0.2555
   12CHTO   H48 4979   5.157   8.444   0.601 -0.2712  1.0202 -0.7227
   12CHTO   O19 4980   5.278   8.601   0.677 -0.7910 -0.4275 -0.0632
   12CHTO   H35 4981   5.313   8.631   0.595  0.8382  0.1959  0.8503
   12CHTO   C21 4982   5.046   8.633   0.601 -0.1555  0.1343  0.4451
   12CHTO   H49 4983   5.080   8.731   0.635  0.0106 -0.4314  1.9765
   12CHTO    N4 4984   5.068   8.637   0.452  0.0979 -0.2669 -0.0624
   12CHTO   H41 4985   5.169   8.614   0.422 -0.8999 -0.2651 -3.5717
   12CHTO   H42 4986   5.036   8.725   0.398 -2.2315 -0.3908  1.0552
   12CHTO   C22 4987   4.902   8.610   0.646  0.0478 -0.5768 -0.3301
   12CHTO   H50 4988   4.857   8.533   0.583  0.0678 -1.8820  1.1973
   12CHTO   O14 4989   4.884   8.578   0.782  0.5866 -0.3106  0.3995
   12CHTO   C23 4990   4.961   8.464   0.825  0.2718 -0.2115  0.0017
   12CHTO   H51 4991   4.926   8.371   0.778 -2.1596  0.6396  0.0334
   12CHTO   C34 4992   4.927   8.441   0.975 -0.1571  0.4626 -0.0938
   12CHTO   O23 4993   4.790   8.439   1.011  0.2913 -0.0684  0.2630
   12CHTO   H38 4994   4.741   8.372   0.967 -0.2511  0.1125  0.5748
   12CHTO   O16 4995   4.831   8.734   0.623  0.1332  0.5234  0.1482
   12CHTO   C24 4996   4.654   8.710   0.593 -0.6799 -0.0718 -0.1073
   12CHTO   H52 4997   4.596   8.802   0.599 -0.8878 -0.3150  1.7799
   12CHTO   C26 4998   4.590   8.619   0.702  0.0439 -0.3634  0.0013
   12CHTO   H54 4999   4.661   8.536   0.722  1.0354  0.4765 -0.0092
   12CHTO   O20 5000   4.587   8.693   0.833 -0.1933 -0.2736  0.0353
   12CHTO   H36 5001   4.622   8.643   0.904  0.7509 -0.4375 -0.5451
   12CHTO   C30 5002   4.452   8.571   0.653 -0.0153 -0.0466  0.1134
   12CHTO   H58 5003   4.385   8.658   0.647 -0.9204 -0.7486 -0.1097
   12CHTO    N6 5004   4.379   8.487   0.750  0.2047 -0.1251  0.2178
   12CHTO   H45 5005   4.288   8.447   0.707 -1.1165  1.8881  1.0789
   12CHTO   H46 5006   4.444   8.408   0.785 -2.1953 -2.7695 -1.1039
   12CHTO   C33 5007   4.448   8.511   0.507 -0.0671  0.0156  0.3786
   12CHTO   H61 5008   4.514   8.424   0.500  0.9060  0.8858 -1.4959
   12CHTO   O18 5009   4.496   8.613   0.420 -0.4511 -0.8057 -0.1305
   12CHTO   C28 5010   4.629   8.651   0.447  0.2459 -0.1776  0.0360
   12CHTO   H56 5011   4.700   8.570   0.427  1.1777  0.2093  1.7643
   12CHTO   C35 5012   4.669   8.763   0.349  0.2985  0.0281 -0.1963
   12CHTO   O24 5013   4.592   8.883   0.359 -0.5156  0.2262 -0.1578
   12CHTO   H39 5014   4.596   8.937   0.282 -1.4725  1.5804  0.7134
   12CHTO    O9 5015   4.317   8.469   0.466  0.0765 -0.2815  0.1761
   12CHTO   C13 5016   4.319   8.346   0.367 -0.1999 -0.4426 -0.0878
   12CHTO   H26 5017   4.409   8.362   0.304 -1.2971 -0.4885 -1.7122
   12CHTO   C11 5018   4.186   8.343   0.282 -0.3118  0.5165  0.1910
   12CHTO   H24 5019   4.200   8.429   0.214  1.3055  0.6646  0.6848
   12CHTO    O8 5020   4.075   8.372   0.372  0.1501 -0.2057 -0.0815
   12CHTO    H3 5021   4.073   8.319   0.449 -2.4045  1.7595  1.2903
   12CHTO    C9 5022   4.181   8.210   0.202 -0.5274 -0.0311  0.4952
   12CHTO   H22 5023   4.274   8.209   0.145 -0.8106 -1.9701  0.0345
   12CHTO    N2 5024   4.070   8.196   0.109 -0.7528  0.0818 -0.3774
   12CHTO   H10 5025   4.060   8.281   0.043 -2.8565  1.6797  1.8939
   12CHTO   H11 5026   4.088   8.106   0.052  0.2096 -0.0537  0.1436
   12CHTO    C7 5027   4.192   8.088   0.298 -0.3590  0.5581 -0.3450
   12CHTO   H20 5028   4.186   7.999   0.232 -0.3446  1.9444 -2.2741
   12CHTO    O4 5029   4.324   8.097   0.357  0.1475  0.3958  0.2933
   12CHTO   C14 5030   4.354   8.212   0.436  0.5838  0.7384 -0.1722
   12CHTO   H27 5031   4.464   8.203   0.448  0.3114 -2.2498  0.4608
   12CHTO   C18 5032   4.287   8.205   0.580  0.2339 -0.4971 -0.6513
   12CHTO   O13 5033   4.356   8.105   0.655 -0.1198  0.1615  0.2374
   12CHTO    H7 5034   4.344   8.115   0.748  0.8490  1.1357  0.2593
   12CHTO    O2 5035   4.072   8.089   0.425 -0.2972  0.7543  0.1165
   12CHTO    C1 5036   3.949   8.015   0.396 -0.3709 -0.3316 -0.2802
   12CHTO   H14 5037   3.944   7.988   0.288 -1.8967  1.3302 -0.6565
   12CHTO    C2 5038   3.818   8.097   0.439  0.5275  0.8846  0.1962
   12CHTO   H15 5039   3.835   8.145   0.537  1.0119 -2.9295  2.0546
   12CHTO    O6 5040   3.797   8.196   0.339  0.6974  0.0472  0.7159
   12CHTO    H1 5041   3.725   8.249   0.367 -0.4432 -0.3020 -1.4361
   12CHTO    C3 5042   3.687   7.998   0.444 -0.1956  0.4767 -0.0040
   12CHTO   H16 5043   3.666   7.955   0.345 -3.6290 -0.4410  1.0573
   12CHTO    N1 5044   3.566   8.073   0.494 -0.1317  0.1520 -0.2215
   12CHTO    H8 5045   3.475   8.022   0.466  0.6489 -1.9416  0.9922
   12CHTO    H9 5046   3.567   8.087   0.601  1.1236 -0.4846 -0.1451
   12CHTO    C4 5047   3.714   7.875   0.535 -0.3940 -0.1549  0.0323
   12CHTO   H17 5048   3.730   7.911   0.637  0.0828 -0.8586  0.2085
   12CHTO    O1 5049   3.832   7.813   0.485  0.1161  0.2974 -0.3688
   12CHTO    C5 5050   3.954   7.887   0.483  0.0013 -0.3327 -0.2244
   12CHTO   H18 5051   3.990   7.914   0.582  1.9373  0.4954 -1.1194
   12CHTO   C16 5052   4.054   7.792   0.411  0.0994 -0.0538 -0.0544
   12CHTO   O11 5053   3.991   7.714   0.308 -0.2984 -0.4154  0.2250
   12CHTO    H5 5054   3.939   7.768   0.252 -0.3338 -3.1300 -2.4610
   12CHTO    O3 5055   3.610   7.776   0.524  0.3074 -0.6255 -0.0755
   12CHTO    C6 5056   3.613   7.669   0.626  0.3121 -0.1737  0.5543
   12CHTO   H19 5057   3.711   7.669   0.674  0.4811  4.2383  0.4253
   12CHTO    C8 5058   3.509   7.698   0.747 -0.2160 -0.1258  0.4918
   12CHTO   H21 5059   3.409   7.698   0.705 -0.0840 -0.5678  0.1819
   12CHTO    O7 5060   3.539   7.828   0.802 -0.1406  0.0811  0.8251
   12CHTO    H2 5061   3.506   7.890   0.740  1.0610 -0.2841 -0.2121
   12CHTO   C12 5062   3.503   7.589   0.857  0.2267 -0.5349  0.3988
   12CHTO   H25 5063   3.601   7.590   0.909 -1.0484 -0.6462  2.8567
   12CHTO    N3 5064   3.391   7.614   0.954  0.5717 -0.0663 -0.8051
   12CHTO   H12 5065   3.313   7.540   0.957  0.0406  0.5632  1.8856
   12CHTO   H13 5066   3.438   7.628   1.050 -0.8852 -0.1441 -0.0833
   12CHTO   C15 5067   3.493   7.449   0.782  0.3782 -0.1427  0.7708
   12CHTO   H28 5068   3.393   7.431   0.742  0.4200 -3.0874  1.8934
   12CHTO   O10 5069   3.522   7.332   0.881  0.0439  0.1046  0.0694
   12CHTO    H4 5070   3.588   7.362   0.940 -0.4393  2.1946 -0.3996
   12CHTO    O5 5071   3.595   7.432   0.683 -0.4827 -0.6441  0.3110
   12CHTO   C10 5072   3.587   7.521   0.569  0.0074 -0.6947  0.0330
   12CHTO   H23 5073   3.487   7.516   0.526  0.2323 -0.2742 -0.5396
   12CHTO   C17 5074   3.684   7.489   0.450  0.0660  0.1839 -0.2683
   12CHTO   O12 5075   3.665   7.574   0.335  0.3390  0.5349 -0.0840
   12CHTO    H6 5076   3.705   7.545   0.255 -1.4671  2.2093 -1.6628
   13CHTO  H203 5077   7.651   4.190  -0.314  0.3352  0.0048  1.6914
   13CHTO   O82 5078   7.560   4.169  -0.324  0.6263 -0.4142 -0.1937
   13CHTO  C123 5079   7.492   4.293  -0.305 -0.7107 -0.0554  0.0311
   13CHTO  H227 5080   7.552   4.375  -0.346  1.2522  0.3053  3.3854
   13CHTO   O77 5081   7.358   4.272  -0.375  0.7861 -0.1294  0.3850
   13CHTO  C118 5082   7.259   4.371  -0.348 -0.2298 -0.3910 -0.4640
   13CHTO  H222 5083   7.295   4.465  -0.394  0.8265  0.5650  2.2117
   13CHTO  C125 5084   7.137   4.315  -0.427  0.4517  0.2705 -0.0661
   13CHTO   O84 5085   7.142   4.316  -0.569 -0.1192  0.6866  0.2783
   13CHTO  H205 5086   7.225   4.278  -0.591 -1.6015 -1.0268 -2.6935
   13CHTO  C114 5087   7.231   4.384  -0.206 -0.3850 -0.3341 -0.0593
   13CHTO  H218 5088   7.185   4.293  -0.168 -0.7139 -0.4337 -0.6972
   13CHTO  C116 5089   7.357   4.417  -0.121  0.3751  0.1392 -0.1581
   13CHTO  H220 5090   7.394   4.519  -0.143 -2.1420  1.5868  2.0747
   13CHTO   O79 5091   7.327   4.420   0.021  0.3557 -0.1412  0.4423
   13CHTO  H201 5092   7.262   4.356   0.044  0.6073  0.2774  2.4296
   13CHTO  C120 5093   7.464   4.312  -0.149  0.2336  0.4561  0.2542
   13CHTO  H224 5094   7.437   4.218  -0.095 -1.5424  0.6082 -0.3359
   13CHTO   N21 5095   7.597   4.354  -0.092  0.0118  0.1521  0.0299
   13CHTO  H211 5096   7.610   4.462  -0.095  2.0657 -0.1458 -3.0338
   13CHTO  H212 5097   7.605   4.321   0.010  2.8542  0.6886  0.0204
   13CHTO   O75 5098   7.134   4.496  -0.200  0.0507 -0.2687 -0.3781
   13CHTO  C112 5099   7.005   4.465  -0.089 -0.1225 -0.3298  0.4302
   13CHTO  H216 5100   7.043   4.395  -0.014 -0.0908 -2.3132 -1.3878
   13CHTO   O73 5101   6.896   4.409  -0.163  0.4819  0.2366  0.4276
   13CHTO  C113 5102   6.778   4.385  -0.093  0.7710  0.0706  0.3081
   13CHTO  H217 5103   6.792   4.310  -0.012 -3.0043 -1.2450 -0.1479
   13CHTO  C124 5104   6.676   4.318  -0.189 -0.4898  0.1547  0.0256
   13CHTO   O83 5105   6.649   4.376  -0.314  0.6040 -1.0972  0.2267
   13CHTO  H204 5106   6.717   4.396  -0.375 -0.0448 -1.8920 -0.7705
   13CHTO  C109 5107   6.724   4.526  -0.040 -0.1170 -0.3939 -0.4974
   13CHTO  H213 5108   6.717   4.595  -0.126 -0.3897 -1.7141 -1.5563
   13CHTO  C110 5109   6.831   4.587   0.059  0.6876  0.9233  0.1856
   13CHTO  H214 5110   6.841   4.527   0.149 -0.3275 -0.2652 -0.4820
   13CHTO   O78 5111   6.776   4.716   0.104  0.3428  0.5627  0.6704
   13CHTO  H200 5112   6.742   4.770   0.034 -0.4887 -1.9993 -1.0016
   13CHTO  C111 5113   6.960   4.604  -0.022 -0.2188  0.6994  0.1621
   13CHTO  H215 5114   6.938   4.664  -0.111  1.3765  2.6508  1.0317
   13CHTO   N19 5115   7.071   4.673   0.051  0.5294 -0.2341  0.0959
   13CHTO  H207 5116   7.163   4.619   0.065  1.4735  1.2134 -0.3395
   13CHTO  H208 5117   7.093   4.777   0.031  0.1015 -0.2027 -0.2144
   13CHTO   O74 5118   6.591   4.506   0.022  0.0149 -0.1305  0.1205
   13CHTO  C115 5119   6.470   4.638   0.003 -0.3246 -0.2574  0.5205
   13CHTO  H219 5120   6.479   4.713   0.081 -0.7571 -3.1536  3.4752
   13CHTO   O76 5121   6.489   4.709  -0.124 -0.3352 -0.2741 -0.5928
   13CHTO  C122 5122   6.398   4.815  -0.168  0.2034  0.2403 -0.0100
   13CHTO  H226 5123   6.424   4.821  -0.273  0.8206 -1.6872  0.0133
   13CHTO  C126 5124   6.440   4.951  -0.098  0.0357  0.8010 -0.0442
   13CHTO   O85 5125   6.581   4.976  -0.080 -0.3871  0.5432  0.2695
   13CHTO  H206 5126   6.617   5.048  -0.129 -0.8335  1.3453  1.0927
   13CHTO  C121 5127   6.246   4.776  -0.150  0.1665  0.4970  0.1928
   13CHTO  H225 5128   6.199   4.877  -0.144 -2.2199 -0.6350  1.1994
   13CHTO   O81 5129   6.200   4.703  -0.271 -0.5362 -0.4942 -0.4727
   13CHTO  H202 5130   6.157   4.762  -0.330 -0.2224  2.0755  1.7793
   13CHTO  C119 5131   6.228   4.691  -0.023  0.7637 -0.4034 -0.2456
   13CHTO  H223 5132   6.231   4.761   0.061  0.2358 -0.5392 -0.1109
   13CHTO  C117 5133   6.329   4.579  -0.005 -0.5073 -0.0844 -0.0460
   13CHTO  H221 5134   6.333   4.504  -0.083  1.4357  0.0926 -0.1485
   13CHTO   N20 5135   6.300   4.504   0.118 -0.8378  0.2348  0.1346
   13CHTO  H209 5136   6.346   4.407   0.126 -0.9272  0.3919  3.1750
   13CHTO  H210 5137   6.195   4.508   0.143 -0.5471  3.7089  1.1437
   13CHTO   O80 5138   6.064   4.639  -0.012 -0.5467  0.2592  0.0916
   13CHTO  C103 5139   5.960   4.729   0.086 -0.5217 -0.5876  0.2460
   13CHTO  H190 5140   6.005   4.748   0.184 -0.1322  1.5573 -0.3079
   13CHTO  C101 5141   5.909   4.865   0.018 -0.3296  0.2521 -0.2374
   13CHTO  H188 5142   5.887   4.834  -0.084  2.1278 -0.8671 -0.4544
   13CHTO   O68 5143   6.022   4.959   0.013  0.3163  0.5096 -0.1283
   13CHTO  H168 5144   5.999   5.035  -0.035 -2.4486 -0.4099 -0.3329
   13CHTO   C99 5145   5.787   4.919   0.100  0.1049  0.7379 -0.7488
   13CHTO  H186 5146   5.822   4.943   0.202  0.4397 -0.8184 -0.4882
   13CHTO   N17 5147   5.719   5.043   0.042  0.4949  0.1466  0.0744
   13CHTO  H174 5148   5.702   5.034  -0.064  1.8077  1.1489 -0.2343
   13CHTO  H175 5149   5.632   5.082   0.092 -0.7444 -0.8670 -1.2489
   13CHTO   C97 5150   5.682   4.804   0.118 -0.3629  0.1256  0.0619
   13CHTO  H184 5151   5.636   4.787   0.019  1.3373  1.6008 -1.0179
   13CHTO   O64 5152   5.737   4.684   0.178  0.5137  0.1648  0.0378
   13CHTO  C104 5153   5.847   4.627   0.104 -0.2533 -0.1969 -0.5261
   13CHTO  H191 5154   5.820   4.584   0.008  2.6902 -0.8862 -1.0880
   13CHTO  C108 5155   5.910   4.513   0.175  0.0171  0.1531 -0.5466
   13CHTO   O71 5156   5.807   4.411   0.187 -0.3122 -0.3538  0.5245
   13CHTO  H171 5157   5.751   4.428   0.259 -1.6187 -0.8157 -0.3714
   13CHTO   O62 5158   5.576   4.819   0.213 -0.9792 -0.3698  0.2553
   13CHTO   C91 5159   5.438   4.813   0.166  0.0197 -0.3911 -0.2964
   13CHTO  H178 5160   5.433   4.834   0.059 -2.4050  1.2536  0.1043
   13CHTO   C92 5161   5.369   4.934   0.243  0.0552 -0.7241 -0.0361
   13CHTO  H179 5162   5.405   4.936   0.347  2.1760 -0.8161 -0.7409
   13CHTO   O66 5163   5.433   5.051   0.178  0.4718  0.0948 -0.3070
   13CHTO  H166 5164   5.387   5.122   0.217 -1.7282 -1.6513  0.4179
   13CHTO   C93 5165   5.214   4.942   0.234  0.1711 -0.4257 -0.5126
   13CHTO  H180 5166   5.192   4.964   0.129  2.3639 -2.0577 -1.3414
   13CHTO   N16 5167   5.152   5.050   0.316 -0.3259  0.3504  0.5184
   13CHTO  H172 5168   5.044   5.049   0.322 -0.2527 -1.6730  2.1817
   13CHTO  H173 5169   5.189   5.146   0.284  2.2562 -0.9004 -0.4322
   13CHTO   C94 5170   5.156   4.804   0.268 -0.1026  0.6305 -0.0371
   13CHTO  H181 5171   5.157   4.784   0.375  3.0699  0.5494 -0.0391
   13CHTO   O61 5172   5.217   4.694   0.195  0.4420 -0.5190 -0.3601
   13CHTO   C95 5173   5.361   4.679   0.210  0.8367  0.1169 -0.0970
   13CHTO  H182 5174   5.385   4.670   0.316  1.4882  0.2300 -0.2292
   13CHTO  C106 5175   5.404   4.544   0.141 -0.7439  0.3262 -0.3209
   13CHTO   O69 5176   5.522   4.501   0.206 -0.0148 -0.3144  0.3896
   13CHTO  H169 5177   5.597   4.535   0.162 -0.7962  0.0729 -0.6451
   13CHTO   O63 5178   4.990   4.807   0.209  0.1748 -0.0922 -0.4126
   13CHTO   C96 5179   4.893   4.742   0.285  0.2212  0.3230  0.1949
   13CHTO  H183 5180   4.904   4.759   0.393  1.4507  2.3282 -0.2041
   13CHTO   C98 5181   4.884   4.585   0.253  0.0174 -0.8011 -0.6214
   13CHTO  H185 5182   4.918   4.559   0.151  0.2050 -0.8886 -0.5381
   13CHTO   O67 5183   4.984   4.530   0.337 -0.2502  0.2359 -0.5917
   13CHTO  H167 5184   5.063   4.503   0.293 -0.6800 -0.1609 -1.1321
   13CHTO  C102 5185   4.746   4.524   0.304 -0.4156  0.0644 -1.1154
   13CHTO  H189 5186   4.735   4.553   0.410 -0.7252 -0.0770 -1.1082
   13CHTO   N18 5187   4.730   4.377   0.296 -0.5115  0.2940 -0.0339
   13CHTO  H176 5188   4.645   4.359   0.361  0.7430 -0.3263  1.4659
   13CHTO  H177 5189   4.698   4.337   0.201  2.1343  1.0821 -1.2821
   13CHTO  C105 5190   4.641   4.601   0.221 -0.1051  0.4466  0.4761
   13CHTO  H192 5191   4.668   4.605   0.115  0.9597 -1.3516  0.6627
   13CHTO   O65 5192   4.632   4.736   0.270  0.1779 -0.2966 -0.1922
   13CHTO  C100 5193   4.755   4.808   0.244 -0.5852 -0.0373 -0.0843
   13CHTO  H187 5194   4.760   4.823   0.136 -0.9371 -1.0706 -0.2445
   13CHTO  C107 5195   4.744   4.954   0.306  0.3479  0.4143  0.4420
   13CHTO   O70 5196   4.626   5.027   0.259  0.1698  0.2459  0.2411
   13CHTO  H170 5197   4.614   5.010   0.167 -0.8361 -0.1097  0.4234
   13CHTO   O57 5198   4.484   4.532   0.233 -0.3998 -0.3540  0.0026
   13CHTO   C85 5199   4.381   4.564   0.138  0.0414 -0.5779  0.2064
   13CHTO  H157 5200   4.429   4.575   0.039  1.1667 -2.3044  0.5291
   13CHTO   C83 5201   4.326   4.710   0.173  0.2402 -0.0480  0.9578
   13CHTO  H155 5202   4.409   4.773   0.140 -0.4282  1.1365  1.4992
   13CHTO   O56 5203   4.318   4.731   0.317  0.3817 -0.0333 -0.2932
   13CHTO  H135 5204   4.406   4.747   0.346  0.9455 -1.9653 -0.8867
   13CHTO   C81 5205   4.203   4.746   0.079  0.2358  0.2870 -0.3417
   13CHTO  H153 5206   4.240   4.731  -0.023 -1.3287  1.8419 -1.1729
   13CHTO   N14 5207   4.172   4.891   0.077  0.4108  0.4757  0.3099
   13CHTO  H141 5208   4.071   4.899   0.110 -0.0219 -0.7379 -0.6900
   13CHTO  H142 5209   4.167   4.924  -0.025  1.0404  1.7009  0.6605
   13CHTO   C79 5210   4.092   4.637   0.105  0.6110 -0.3322 -0.0446
   13CHTO  H151 5211   4.015   4.652   0.029  0.5579 -0.6231 -0.0489
   13CHTO   O52 5212   4.142   4.503   0.075  0.2690 -0.6130 -0.0581
   13CHTO   C86 5213   4.267   4.463   0.139  0.3419  0.2432  0.4845
   13CHTO  H158 5214   4.246   4.430   0.243 -3.0789 -0.8455 -0.4866
   13CHTO   C90 5215   4.319   4.339   0.077  0.4181 -0.0962  0.1923
   13CHTO   O60 5216   4.213   4.243   0.066  0.3001 -0.1931  0.1146
   13CHTO  H138 5217   4.238   4.154   0.048  0.7072 -0.0994  0.2042
   13CHTO   O50 5218   4.042   4.650   0.243 -0.4294 -0.0301  0.1024
   13CHTO   C73 5219   3.915   4.601   0.295  0.5905  0.0547 -0.2669
   13CHTO  H145 5220   3.910   4.492   0.278  0.0642  0.2486 -1.4436
   13CHTO   C74 5221   3.799   4.667   0.220 -0.3328  0.0804 -0.1721
   13CHTO  H146 5222   3.809   4.646   0.113  0.3308  0.8696 -0.2697
   13CHTO   O54 5223   3.679   4.596   0.254  0.1600  0.4848  0.0875
   13CHTO  H133 5224   3.608   4.617   0.196 -1.5980 -1.5586  1.4259
   13CHTO   C75 5225   3.799   4.824   0.250  0.8885  0.2476 -0.2266
   13CHTO  H147 5226   3.899   4.861   0.225  0.9915  0.0498 -0.1101
   13CHTO   N13 5227   3.696   4.897   0.168  0.4442 -0.5077  0.1486
   13CHTO  H139 5228   3.713   4.869   0.065 -0.5890  0.0759 -0.1927
   13CHTO  H140 5229   3.596   4.873   0.200  0.9394 -3.3319 -0.2612
   13CHTO   C76 5230   3.781   4.835   0.409  0.6379 -0.6002 -0.0286
   13CHTO  H148 5231   3.689   4.786   0.440 -0.8852  2.4717  0.5492
   13CHTO   O49 5232   3.875   4.759   0.483  0.0592  0.3560 -0.3892
   13CHTO   C77 5233   3.896   4.625   0.445 -0.2527  1.0396  0.5219
   13CHTO  H149 5234   3.807   4.574   0.480  1.8442 -3.0137  0.3179
   13CHTO   C88 5235   4.016   4.568   0.522 -0.4141 -0.1424  0.4295
   13CHTO   O58 5236   4.067   4.422   0.483 -0.5687  0.3482  0.5709
   13CHTO  H136 5237   4.160   4.417   0.470 -0.8204 -0.7919 -0.8544
   13CHTO   O51 5238   3.776   5.003   0.457  0.2373 -0.0249 -0.2295
   13CHTO   C78 5239   3.921   5.055   0.544 -0.2555  0.1979  0.2370
   13CHTO  H150 5240   3.913   5.162   0.573  1.1758  0.0638  1.1466
   13CHTO   C80 5241   4.044   5.036   0.452  0.1691  0.1942 -0.1377
   13CHTO  H152 5242   4.039   4.930   0.418 -1.4046  0.5106 -0.9325
   13CHTO   O55 5243   4.021   5.121   0.335 -0.4838 -0.4261 -0.6025
   13CHTO  H134 5244   4.032   5.075   0.254  1.9231  0.5823 -0.8821
   13CHTO   C84 5245   4.176   5.066   0.520  0.4834  0.1046 -0.6956
   13CHTO  H156 5246   4.179   5.166   0.562  2.7317 -0.7131  1.1541
   13CHTO   N15 5247   4.295   5.054   0.433  0.2884 -0.8565  0.3126
   13CHTO  H143 5248   4.268   5.066   0.330 -1.0075  0.1594  0.7479
   13CHTO  H144 5249   4.356   4.967   0.445  0.4692 -0.8537 -0.5568
   13CHTO   C87 5250   4.170   4.974   0.637 -0.1128  0.4136  0.3076
   13CHTO  H159 5251   4.152   4.873   0.600  1.2067  0.1577  0.3382
   13CHTO   O53 5252   4.059   5.022   0.733  0.2582 -0.1606  0.1880
   13CHTO   C82 5253   3.933   4.987   0.679 -0.0659 -0.7955 -0.6193
   13CHTO  H154 5254   3.924   4.879   0.665 -0.5592 -0.5000 -2.6745
   13CHTO   C89 5255   3.820   5.030   0.784  0.3091  0.1158  0.4011
   13CHTO   O59 5256   3.852   5.163   0.840 -0.0408 -0.2821  0.7731
   13CHTO  H137 5257   3.928   5.169   0.896  0.7493 -0.0544 -0.3006
   13CHTO   O45 5258   4.325   4.964   0.738  0.5202 -0.0100  0.1597
   13CHTO   C67 5259   4.435   4.883   0.693  0.0008 -0.3640  0.2191
   13CHTO  H124 5260   4.413   4.855   0.589  1.6197  0.6689 -0.4324
   13CHTO   C65 5261   4.572   4.965   0.698 -0.2612  0.2101 -0.0792
   13CHTO  H122 5262   4.544   5.064   0.664 -2.7118  0.9571  3.8613
   13CHTO   O44 5263   4.668   4.895   0.608  0.1706  0.6639 -0.3275
   13CHTO  H102 5264   4.758   4.910   0.628 -0.1642  0.2422  1.6329
   13CHTO   C63 5265   4.611   4.991   0.849 -0.2005 -0.6809  0.6300
   13CHTO  H120 5266   4.530   5.045   0.899 -1.2422 -1.1577 -0.5043
   13CHTO   N11 5267   4.723   5.078   0.865  0.3217  0.3731 -0.4293
   13CHTO  H108 5268   4.742   5.116   0.963 -2.2091  2.4427 -0.6950
   13CHTO  H109 5269   4.808   5.033   0.818 -0.5289 -1.5111 -0.2352
   13CHTO   C61 5270   4.625   4.851   0.913  0.4768 -0.0267  0.0704
   13CHTO  H118 5271   4.621   4.873   1.021 -2.7451 -1.3941  0.2921
   13CHTO   O40 5272   4.521   4.766   0.895  0.0610 -0.1742 -0.5749
   13CHTO   C68 5273   4.445   4.751   0.776 -0.1474 -0.4882  0.1524
   13CHTO  H125 5274   4.339   4.721   0.791 -0.5684  0.5891 -0.5770
   13CHTO   C72 5275   4.512   4.643   0.691 -0.6249 -0.3771  0.0185
   13CHTO   O48 5276   4.435   4.590   0.584 -0.2367 -0.0474  0.4760
   13CHTO  H105 5277   4.345   4.613   0.595 -0.1055  0.2421  0.9361
   13CHTO   O38 5278   4.744   4.771   0.872 -0.9267  0.0375  0.1489
   13CHTO   C55 5279   4.847   4.730   0.968 -0.0279 -1.1273  0.5693
   13CHTO  H112 5280   4.839   4.623   0.990  0.2682 -1.0480  1.0821
   13CHTO   C56 5281   4.852   4.821   1.102  0.8917  0.4369 -0.0817
   13CHTO  H113 5282   4.836   4.923   1.065  1.3496  1.2205  1.8217
   13CHTO   O42 5283   4.746   4.777   1.195 -0.9038 -0.5691 -0.1131
   13CHTO  H100 5284   4.761   4.811   1.282  1.0448 -1.5494 -0.0355
   13CHTO   C57 5285   4.996   4.822   1.164 -0.2298  0.3551 -0.2343
   13CHTO  H114 5286   5.011   4.723   1.208  1.8801  0.8093  0.1424
   13CHTO   N10 5287   5.015   4.916   1.281  0.2314  0.0333 -0.3285
   13CHTO  H106 5288   4.923   4.926   1.336 -0.0617  0.7625 -0.9379
   13CHTO  H107 5289   5.101   4.903   1.346  0.7024 -0.4035 -1.0370
   13CHTO   C58 5290   5.105   4.851   1.054 -0.7831  0.3237 -0.4584
   13CHTO  H115 5291   5.080   4.948   1.006  1.7696  1.2950  0.0899
   13CHTO   O37 5292   5.090   4.746   0.954  0.3555 -0.4062  0.0613
   13CHTO   C59 5293   4.971   4.746   0.873  0.0461 -0.1367 -0.0687
   13CHTO  H116 5294   4.975   4.833   0.809  0.2657 -1.5487 -2.0293
   13CHTO   C70 5295   4.993   4.625   0.785  0.2263  0.1591 -0.6827
   13CHTO   O46 5296   4.968   4.654   0.652 -0.6222  0.1416 -0.1323
   13CHTO  H103 5297   4.889   4.706   0.651 -0.6986  0.0185 -0.5078
   13CHTO   O39 5298   5.263   4.844   1.106  0.2236  0.1897 -0.1785
   13CHTO   C60 5299   5.359   4.916   1.032  0.3029 -0.2678 -0.1832
   13CHTO  H117 5300   5.337   4.904   0.926  1.8216  0.5325 -0.6037
   13CHTO   C62 5301   5.345   5.063   1.080 -0.7905 -0.1729 -0.0360
   13CHTO  H119 5302   5.245   5.099   1.049 -0.7774 -1.3937 -1.6115
   13CHTO   O43 5303   5.349   5.074   1.226 -0.1094  0.3485  0.3219
   13CHTO  H101 5304   5.354   5.164   1.251 -0.6777  0.5246 -0.1941
   13CHTO   C66 5305   5.448   5.154   0.998 -0.4751  0.9103  0.3239
   13CHTO  H123 5306   5.415   5.158   0.894  0.7723 -0.9276 -0.1658
   13CHTO   N12 5307   5.433   5.299   1.043 -0.1063  0.0011 -0.5832
   13CHTO  H110 5308   5.334   5.329   1.075 -0.8089 -2.0448 -0.7753
   13CHTO  H111 5309   5.477   5.360   0.966  1.3507  0.6863  0.7737
   13CHTO   C69 5310   5.592   5.106   1.028  0.1270  0.4677 -0.0812
   13CHTO  H126 5311   5.626   5.116   1.133 -0.5667 -0.4333  0.2367
   13CHTO   O41 5312   5.599   4.951   0.980 -0.0196  0.1426  0.3114
   13CHTO   C64 5313   5.506   4.870   1.053 -0.1098 -0.3649  0.0724
   13CHTO  H121 5314   5.518   4.878   1.163 -1.4464  2.3690  0.0521
   13CHTO   C71 5315   5.524   4.722   1.013  0.1418  0.2506 -0.3241
   13CHTO   O47 5316   5.653   4.675   1.028  0.1037  0.0529 -0.3700
   13CHTO  H104 5317   5.651   4.581   1.018 -0.1532  0.3295 -3.3320
   13CHTO   O34 5318   5.704   5.194   0.918 -0.0246  0.0823 -0.5430
   13CHTO   C49 5319   5.829   5.255   0.898 -0.5895 -0.3124  0.0413
   13CHTO   H91 5320   5.887   5.186   0.838  0.4878  0.9163 -0.3370
   13CHTO   C47 5321   5.896   5.290   1.033  0.0024 -0.7190  0.2757
   13CHTO   H89 5322   6.001   5.316   1.008 -0.7427  1.0475 -1.1878
   13CHTO   O33 5323   5.898   5.168   1.113  0.7395 -0.2105  0.2669
   13CHTO   H70 5324   5.812   5.152   1.147  0.7079 -0.2156  0.1840
   13CHTO   C45 5325   5.807   5.411   1.115 -0.4544  0.2979  0.5397
   13CHTO   H87 5326   5.711   5.363   1.138  0.2133 -0.8583  0.9427
   13CHTO    N8 5327   5.870   5.445   1.243  0.7061 -0.0052  0.0063
   13CHTO   H75 5328   5.888   5.359   1.305 -1.7488 -0.5618 -0.0011
   13CHTO   H76 5329   5.808   5.515   1.297  1.2366  0.7303 -0.3277
   13CHTO   C43 5330   5.777   5.538   1.019 -0.1391 -0.0764 -0.5497
   13CHTO   H85 5331   5.696   5.596   1.063 -0.2152 -0.6160  0.0303
   13CHTO   O29 5332   5.739   5.491   0.887  0.2741  0.0056 -0.3144
   13CHTO   C50 5333   5.815   5.390   0.822 -0.3140  0.5009  0.0386
   13CHTO   H92 5334   5.757   5.371   0.731 -0.3407  1.5729 -0.1777
   13CHTO   C54 5335   5.955   5.440   0.776  0.7211  0.4938  0.2230
   13CHTO   O36 5336   5.947   5.527   0.666 -0.0602  1.2130 -0.7992
   13CHTO   H72 5337   5.925   5.617   0.682 -0.6119  0.7502  1.2247
   13CHTO   O27 5338   5.894   5.619   1.012  0.4035 -0.4550  0.5446
   13CHTO   C37 5339   5.953   5.745   1.066 -0.4171  0.5270 -0.0721
   13CHTO   H79 5340   5.914   5.760   1.167 -2.2133  0.6928 -0.7775
   13CHTO   C38 5341   6.107   5.729   1.056 -0.6204  0.6489 -0.6441
   13CHTO   H80 5342   6.129   5.677   0.962  1.8192  1.6569 -0.6760
   13CHTO   O31 5343   6.144   5.630   1.151  0.5913  0.0855 -0.0900
   13CHTO   H68 5344   6.171   5.548   1.115  0.5380  0.2512 -0.5191
   13CHTO   C39 5345   6.186   5.865   1.073 -0.8522  0.2068 -0.7563
   13CHTO   H81 5346   6.184   5.886   1.180  3.9195 -1.4149 -0.2229
   13CHTO    N7 5347   6.332   5.852   1.032 -0.0214  0.2028  0.1899
   13CHTO   H73 5348   6.355   5.747   1.020 -1.4416 -0.2097  0.9255
   13CHTO   H74 5349   6.398   5.920   1.083  2.4628 -2.5245  0.7876
   13CHTO   C40 5350   6.126   5.984   0.992 -0.5124  0.5407 -0.4375
   13CHTO   H82 5351   6.150   5.982   0.886 -1.9193  0.5420 -0.7603
   13CHTO   O26 5352   5.983   5.989   1.021 -0.3062  0.4330  0.5590
   13CHTO   C41 5353   5.917   5.873   0.976 -0.0606 -0.4455  0.1289
   13CHTO   H83 5354   5.953   5.856   0.874 -0.2185  2.0790 -0.3837
   13CHTO   C52 5355   5.766   5.910   0.966  0.1948 -0.2274 -0.5536
   13CHTO   O35 5356   5.746   5.978   0.835  0.0844  0.4916  0.1323
   13CHTO   H71 5357   5.794   6.056   0.812  0.6875 -0.0334 -0.4179
   13CHTO   O28 5358   6.147   6.122   1.037 -0.0410 -0.3164 -0.2894
   13CHTO   C42 5359   6.155   6.245   0.963 -0.1504  0.5180  0.3116
   13CHTO   H84 5360   6.253   6.234   0.917  0.7817  1.6600  1.9501
   13CHTO   C44 5361   6.174   6.374   1.055 -0.1000 -0.6177 -0.4494
   13CHTO   H86 5362   6.088   6.383   1.120  0.4824  2.4062 -0.0082
   13CHTO   O32 5363   6.293   6.349   1.132  0.6566 -0.1009 -0.1861
   13CHTO   H69 5364   6.364   6.333   1.073 -1.1206 -1.3122 -2.0391
   13CHTO   C48 5365   6.176   6.510   0.979 -0.2987  0.4578  0.6428
   13CHTO   H90 5366   6.260   6.519   0.910  0.3260  0.7976  1.4424
   13CHTO    N9 5367   6.194   6.626   1.072  0.1710  0.1318  0.2017
   13CHTO   H77 5368   6.256   6.702   1.027 -0.6512  0.1229 -0.9445
   13CHTO   H78 5369   6.098   6.661   1.107 -0.9152 -0.3094 -2.2278
   13CHTO   C51 5370   6.055   6.509   0.876 -0.3796  0.2874 -0.0258
   13CHTO   H93 5371   5.964   6.496   0.934 -1.1903  2.1632 -0.8672
   13CHTO   O30 5372   6.078   6.399   0.792 -0.5780  0.7512 -0.2374
   13CHTO   C46 5373   6.047   6.272   0.853  0.0736  0.1775 -0.7261
   13CHTO   H88 5374   5.952   6.277   0.905  0.4914 -3.5115  0.5612
   13CHTO   C53 5375   6.054   6.176   0.736 -0.5131  0.7563 -0.3006
   13CHTO   O72 5376   6.177   6.182   0.677 -0.3691  0.1257  0.1545
   13CHTO  H199 5377   6.210   6.270   0.669 -0.9472  0.5653  2.3166
   13CHTO   O22 5378   6.069   6.622   0.789 -0.3948 -0.4666  0.5259
   13CHTO   C31 5379   5.963   6.673   0.693 -0.4848  0.1159  0.3570
   13CHTO   H59 5380   6.020   6.728   0.615  0.3698  1.0520  1.6160
   13CHTO   C29 5381   5.889   6.557   0.620 -0.5991 -0.0393 -0.5425
   13CHTO   H57 5382   5.855   6.489   0.700  0.1385  0.5640  0.3012
   13CHTO   O21 5383   5.996   6.495   0.535 -0.0942 -0.5534  0.2336
   13CHTO   H37 5384   6.043   6.425   0.575  1.4670  0.4913  0.2591
   13CHTO   C27 5385   5.767   6.607   0.533  0.3774 -0.2001 -0.0091
   13CHTO   H55 5386   5.806   6.669   0.451 -1.3552 -0.0198 -0.7192
   13CHTO    N5 5387   5.687   6.498   0.478  0.0306 -0.3282  0.3201
   13CHTO   H43 5388   5.754   6.418   0.452 -0.1879 -0.3067 -0.3251
   13CHTO   H44 5389   5.611   6.468   0.549 -2.2409  0.5476 -1.6499
   13CHTO   C25 5390   5.689   6.708   0.621  0.0268  0.5423  0.5611
   13CHTO   H53 5391   5.654   6.657   0.712  2.3054 -1.0625  0.5931
   13CHTO   O17 5392   5.776   6.813   0.661 -0.1655 -0.3469 -0.3487
   13CHTO   C32 5393   5.869   6.776   0.758 -0.2651  0.3849 -0.9994
   13CHTO   H60 5394   5.817   6.727   0.841  0.5617 -0.0540 -0.7376
   13CHTO   C36 5395   5.927   6.913   0.809 -0.5310 -0.0928  0.1462
   13CHTO   O25 5396   5.812   6.992   0.846 -0.1180  0.0578  0.0732
   13CHTO   H40 5397   5.817   7.079   0.810 -0.6032  0.4227  0.8932
   13CHTO   O15 5398   5.570   6.767   0.555  0.0768 -0.2461  0.5488
   13CHTO   C19 5399   5.433   6.803   0.584 -0.0331 -0.4538 -0.0266
   13CHTO   H47 5400   5.402   6.746   0.672 -2.9812 -0.8249 -1.2508
   13CHTO   C20 5401   5.398   6.950   0.616 -0.5639 -0.0978 -0.1478
   13CHTO   H48 5402   5.428   7.022   0.538 -1.1248  1.4971  1.0792
   13CHTO   O19 5403   5.474   6.978   0.736  0.4274  0.5439  0.2441
   13CHTO   H35 5404   5.466   7.070   0.753 -0.6265  0.0150  2.8681
   13CHTO   C21 5405   5.247   6.972   0.654 -0.1837 -0.0395  0.0563
   13CHTO   H49 5406   5.236   6.942   0.758 -1.5155 -0.5712 -0.2224
   13CHTO    N4 5407   5.221   7.116   0.660  0.0417 -0.1534  0.4682
   13CHTO   H41 5408   5.264   7.150   0.753  0.6541 -1.0396  0.5202
   13CHTO   H42 5409   5.114   7.130   0.662 -0.1748 -1.2870 -1.4260
   13CHTO   C22 5410   5.160   6.887   0.562  0.2320  0.0874  0.5501
   13CHTO   H50 5411   5.145   6.936   0.466  2.5731  1.3132  0.7808
   13CHTO   O14 5412   5.210   6.755   0.537  0.1756 -0.0539  0.0499
   13CHTO   C23 5413   5.337   6.752   0.473  0.0980  0.6449  0.6053
   13CHTO   H51 5414   5.339   6.814   0.382 -1.7439 -1.2501 -0.7899
   13CHTO   C34 5415   5.362   6.607   0.431  0.0725 -0.0298  0.4032
   13CHTO   O23 5416   5.335   6.584   0.295  0.2921 -0.5513  0.0584
   13CHTO   H38 5417   5.403   6.610   0.235 -1.3300 -1.7139 -2.3444
   13CHTO   O16 5418   5.032   6.858   0.618  0.1706 -0.9415  0.1188
   13CHTO   C24 5419   4.900   6.850   0.528  0.2682 -0.4383 -0.2621
   13CHTO   H52 5420   4.923   6.854   0.422 -2.3589 -2.1146 -0.9319
   13CHTO   C26 5421   4.814   6.974   0.563 -0.4810 -0.0346 -0.9176
   13CHTO   H54 5422   4.805   6.973   0.673 -1.4270  0.7239 -0.9781
   13CHTO   O20 5423   4.892   7.092   0.538  0.2311 -0.4469  0.2009
   13CHTO   H36 5424   4.877   7.126   0.452  0.0496 -0.6749  0.1409
   13CHTO   C30 5425   4.673   6.973   0.491 -0.1055  0.0731 -0.6105
   13CHTO   H58 5426   4.690   6.989   0.384 -0.0275  0.7578 -0.4980
   13CHTO    N6 5427   4.584   7.085   0.534  0.2911  0.1393  0.0446
   13CHTO   H45 5428   4.618   7.168   0.474  0.8031  0.8184  1.2537
   13CHTO   H46 5429   4.604   7.108   0.638  0.8746  0.6679 -0.1813
   13CHTO   C33 5430   4.607   6.831   0.510  0.8028  0.0420 -0.1214
   13CHTO   H61 5431   4.576   6.810   0.613  0.9459 -1.5739 -0.3816
   13CHTO   O18 5432   4.699   6.725   0.478 -0.5297 -0.0201  0.2938
   13CHTO   C28 5433   4.823   6.719   0.549 -0.1572  1.2142  0.4602
   13CHTO   H56 5434   4.800   6.702   0.654 -2.1679  0.9378  0.0079
   13CHTO   C35 5435   4.907   6.600   0.504 -0.4070 -0.6772  0.1267
   13CHTO   O24 5436   4.829   6.483   0.517  0.6011  0.4120  0.3519
   13CHTO   H39 5437   4.884   6.414   0.484 -0.4940 -1.2941  2.0332
   13CHTO    O9 5438   4.486   6.819   0.434 -0.6570 -0.7550 -0.3963
   13CHTO   C13 5439   4.368   6.692   0.489 -0.0219  0.7064  0.4628
   13CHTO   H26 5440   4.358   6.706   0.599 -0.7808  1.7860  0.2674
   13CHTO   C11 5441   4.422   6.544   0.449 -0.3088  0.4006  0.2311
   13CHTO   H24 5442   4.518   6.532   0.501 -0.4758  0.3457  0.5338
   13CHTO    O8 5443   4.448   6.533   0.307 -0.3686 -0.0234  0.0866
   13CHTO    H3 5444   4.533   6.568   0.287 -0.1163  0.2249  1.5323
   13CHTO    C9 5445   4.319   6.444   0.509  0.5915 -0.5457  0.6056
   13CHTO   H22 5446   4.308   6.469   0.616  0.6467 -1.4238  0.8255
   13CHTO    N2 5447   4.363   6.300   0.503  0.1679 -0.3401  0.0315
   13CHTO   H10 5448   4.447   6.279   0.439 -0.1306 -1.4201 -0.0059
   13CHTO   H11 5449   4.330   6.226   0.575  1.4506 -1.0234 -0.0663
   13CHTO    C7 5450   4.177   6.471   0.446  0.3548 -0.0776  0.3632
   13CHTO   H20 5451   4.108   6.419   0.516  0.0243  0.3208  0.3338
   13CHTO    O4 5452   4.133   6.609   0.451 -0.0643 -0.1124 -0.4247
   13CHTO   C14 5453   4.226   6.718   0.428  0.6353  0.1434  0.3184
   13CHTO   H27 5454   4.175   6.797   0.486 -0.3584 -1.0137  1.0488
   13CHTO   C18 5455   4.215   6.754   0.281  0.2594  0.6094  0.4392
   13CHTO   O13 5456   4.284   6.867   0.243 -0.0861  0.3608  0.0493
   13CHTO    H7 5457   4.352   6.843   0.182 -0.4376 -0.5838  0.0150
   13CHTO    O2 5458   4.161   6.413   0.292  0.2183 -0.3205  0.1880
   13CHTO    C1 5459   4.028   6.408   0.247  0.0953 -0.0581  0.1201
   13CHTO   H14 5460   3.983   6.507   0.271 -1.5546 -1.1426  1.5770
   13CHTO    C2 5461   3.932   6.296   0.318  0.1289 -0.2547  0.1121
   13CHTO   H15 5462   4.000   6.217   0.354 -0.8727 -1.4332 -0.5516
   13CHTO    O6 5463   3.867   6.341   0.434  0.1666 -0.2861  0.2872
   13CHTO    H1 5464   3.901   6.319   0.518 -0.6595 -1.3467  0.3620
   13CHTO    C3 5465   3.819   6.240   0.222 -0.2033 -0.0338 -0.0981
   13CHTO   H16 5466   3.719   6.283   0.241 -0.4613 -0.3048 -0.8278
   13CHTO    N1 5467   3.781   6.094   0.257 -0.3759  0.0193  0.6635
   13CHTO    H8 5468   3.828   6.065   0.349  1.2164  2.2554  0.6071
   13CHTO    H9 5469   3.674   6.089   0.273 -0.8483 -0.1754 -2.2051
   13CHTO    C4 5470   3.844   6.258   0.066 -0.2467 -0.4243  0.1768
   13CHTO   H17 5471   3.916   6.182   0.034  2.2512  1.8407  0.2270
   13CHTO    O1 5472   3.888   6.392   0.040  0.2256 -0.0044  0.3754
   13CHTO    C5 5473   4.026   6.405   0.091  0.4363  0.6305  0.9141
   13CHTO   H18 5474   4.084   6.318   0.059  1.5839  1.0862  1.6970
   13CHTO   C16 5475   4.093   6.535   0.024  0.1742  0.4596 -0.4773
   13CHTO   O11 5476   4.119   6.521  -0.116  0.7102 -0.0915 -0.1894
   13CHTO    H5 5477   4.095   6.597  -0.166 -1.0393 -1.0524 -0.8366
   13CHTO    O3 5478   3.721   6.242  -0.000 -0.1930  0.5334 -0.2715
   13CHTO    C6 5479   3.698   6.255  -0.143  0.4120 -0.5920 -0.6846
   13CHTO   H19 5480   3.680   6.360  -0.166  2.0832 -0.5112 -1.7431
   13CHTO    C8 5481   3.814   6.201  -0.236  0.0118  0.4050 -0.5174
   13CHTO   H21 5482   3.843   6.105  -0.192 -1.6014  0.2323  0.2027
   13CHTO    O7 5483   3.927   6.291  -0.221 -0.2699  0.3347  0.6462
   13CHTO    H2 5484   4.000   6.272  -0.277 -0.8312 -0.2315  0.0930
   13CHTO   C12 5485   3.765   6.193  -0.387  0.5025  0.0031  0.2212
   13CHTO   H25 5486   3.753   6.298  -0.421  2.1670 -0.5660 -2.2829
   13CHTO    N3 5487   3.871   6.136  -0.474  0.1590 -0.0172 -0.2573
   13CHTO   H12 5488   3.920   6.049  -0.432  2.5366  0.5406 -1.7549
   13CHTO   H13 5489   3.942   6.216  -0.491 -0.3625  0.8671  1.5357
   13CHTO   C15 5490   3.624   6.120  -0.395  0.0938  0.0445 -0.1966
   13CHTO   H28 5491   3.628   6.014  -0.369 -1.3395 -0.0850 -0.4310
   13CHTO   O10 5492   3.555   6.124  -0.536 -0.1457  0.8299 -0.5620
   13CHTO    H4 5493   3.624   6.125  -0.599  0.2641  2.0311 -0.1122
   13CHTO    O5 5494   3.529   6.182  -0.312 -0.0450  0.0243 -0.0629
   13CHTO   C10 5495   3.560   6.182  -0.169  0.1934 -0.2527 -0.3735
   13CHTO   H23 5496   3.577   6.080  -0.135 -2.1613 -0.8822 -0.9692
   13CHTO   C17 5497   3.439   6.244  -0.090 -0.3280 -0.6417 -0.6109
   13CHTO   O12 5498   3.330   6.160  -0.088 -0.0407 -0.4716 -0.0900
   13CHTO    H6 5499   3.341   6.112  -0.008  2.3451 -1.5988 -1.0430
   14CHTO  H203 5500   5.773   4.791   3.153 -2.2429  0.2151 -0.5006
   14CHTO   O82 5501   5.759   4.698   3.164 -0.1713 -0.1419 -0.6249
   14CHTO  C123 5502   5.690   4.668   3.292 -0.0078  0.0771  0.2205
   14CHTO  H227 5503   5.702   4.751   3.363 -1.7917 -0.4540  1.1665
   14CHTO   O77 5504   5.548   4.662   3.246 -0.1430 -0.1947 -0.7436
   14CHTO  C118 5505   5.462   4.623   3.359  0.1248 -0.9069  0.9864
   14CHTO  H222 5506   5.486   4.682   3.448 -1.4866 -1.2899  1.6893
   14CHTO  C125 5507   5.308   4.657   3.331  0.0009 -0.2120 -0.0445
   14CHTO   O84 5508   5.298   4.797   3.311 -0.5484  0.1180  0.2833
   14CHTO  H205 5509   5.269   4.804   3.222 -1.0421 -0.7968  0.3677
   14CHTO  C114 5510   5.491   4.475   3.384 -0.6020  0.7223 -0.5846
   14CHTO  H218 5511   5.481   4.415   3.293 -0.0985 -0.2821  0.0124
   14CHTO  C116 5512   5.639   4.451   3.434  0.0163 -0.7201 -0.4061
   14CHTO  H220 5513   5.647   4.487   3.539  2.3310 -2.9857  0.2333
   14CHTO   O79 5514   5.676   4.314   3.437  0.4262 -0.1679 -0.0151
   14CHTO  H201 5515   5.609   4.265   3.394 -0.1876  0.4604  0.2318
   14CHTO  C120 5516   5.744   4.529   3.342 -0.1522 -0.0759  0.3231
   14CHTO  H224 5517   5.751   4.461   3.254 -0.4418  1.1476 -0.6502
   14CHTO   N21 5518   5.876   4.536   3.403  0.0730  0.0766 -0.2969
   14CHTO  H211 5519   5.949   4.551   3.325  0.7460 -1.2670  0.0699
   14CHTO  H212 5520   5.888   4.614   3.477  1.6889  1.0946 -1.5892
   14CHTO   O75 5521   5.393   4.433   3.476  0.2732  0.3697  0.2960
   14CHTO  C112 5522   5.334   4.295   3.441 -0.0512 -0.0565 -0.1878
   14CHTO  H216 5523   5.416   4.222   3.433 -0.1824 -0.0249 -2.3813
   14CHTO   O73 5524   5.266   4.312   3.316 -0.4125 -0.1389 -0.2679
   14CHTO  C113 5525   5.206   4.198   3.258  0.5009  0.9704  0.5072
   14CHTO  H217 5526   5.285   4.121   3.250  0.5106  1.0126  0.1827
   14CHTO  C124 5527   5.173   4.231   3.112  0.0966  0.4468 -0.4338
   14CHTO   O83 5528   5.131   4.118   3.027 -1.0932 -0.2104 -0.3128
   14CHTO  H204 5529   5.193   4.106   2.958 -1.6852  1.8771 -1.2456
   14CHTO  C109 5530   5.078   4.166   3.341  0.7359  0.2694  0.2173
   14CHTO  H213 5531   5.011   4.254   3.337  1.9665  1.1878 -0.5705
   14CHTO  C110 5532   5.122   4.142   3.487  0.0012 -0.0162 -0.8724
   14CHTO  H214 5533   5.167   4.043   3.501  0.7249  0.5016  0.4652
   14CHTO   O78 5534   5.009   4.130   3.578 -0.1504 -0.2698  0.1213
   14CHTO  H200 5535   4.944   4.193   3.554  0.1830  0.3946  0.9319
   14CHTO  C111 5536   5.214   4.252   3.542 -0.0412  0.4812 -0.2585
   14CHTO  H215 5537   5.151   4.340   3.560 -0.8101 -0.1400  0.0900
   14CHTO   N19 5538   5.280   4.215   3.672 -0.5668 -0.1687 -0.1813
   14CHTO  H207 5539   5.243   4.271   3.756  0.0993  2.1468 -1.3626
   14CHTO  H208 5540   5.268   4.111   3.699 -1.5714  0.0663  0.2851
   14CHTO   O74 5541   5.013   4.042   3.294  0.0755 -0.3218 -0.0673
   14CHTO  C115 5542   4.869   4.082   3.210  0.3027 -0.6787 -0.3957
   14CHTO  H219 5543   4.857   4.189   3.194  3.5056 -0.0039  1.2980
   14CHTO   O76 5544   4.862   4.005   3.054 -0.2386 -0.0729  0.0398
   14CHTO  C122 5545   4.805   3.871   3.076 -0.1584 -0.4128 -0.0412
   14CHTO  H226 5546   4.870   3.811   3.140  1.5176 -2.5141 -3.5396
   14CHTO  C126 5547   4.804   3.790   2.941 -0.8909 -0.3090 -0.1702
   14CHTO   O85 5548   4.731   3.860   2.832  0.0812  0.1176  0.1971
   14CHTO  H206 5549   4.788   3.925   2.796 -1.9153  1.3165 -0.8776
   14CHTO  C121 5550   4.660   3.874   3.143 -0.1498 -0.9231 -1.1649
   14CHTO  H225 5551   4.592   3.855   3.057  0.6600  0.5239 -2.1428
   14CHTO   O81 5552   4.656   3.755   3.229  0.0092  0.4545  0.8801
   14CHTO  H202 5553   4.572   3.739   3.269 -0.3661 -1.0517 -0.4859
   14CHTO  C119 5554   4.624   4.004   3.210 -0.9656 -0.4681  0.1967
   14CHTO  H223 5555   4.620   4.069   3.122 -0.2005 -1.4885 -0.5977
   14CHTO  C117 5556   4.742   4.047   3.305  0.1809  0.0822 -0.0243
   14CHTO  H221 5557   4.778   3.970   3.373  0.4389  2.0441  2.1239
   14CHTO   N20 5558   4.712   4.156   3.395  0.2511  0.8994 -0.7034
   14CHTO  H209 5559   4.803   4.207   3.422  0.1053  0.3602  0.8522
   14CHTO  H210 5560   4.670   4.120   3.488  0.0218 -0.0057 -1.1551
   14CHTO   O80 5561   4.462   4.009   3.264  0.1273 -0.3294 -0.4795
   14CHTO  C103 5562   4.351   3.990   3.160  0.1386  0.5161  0.0643
   14CHTO  H190 5563   4.397   3.982   3.062  1.7927 -1.0401  0.9128
   14CHTO  C101 5564   4.260   3.864   3.185  0.2164  0.0384 -0.2209
   14CHTO  H188 5565   4.219   3.866   3.286  0.5765 -0.2166 -0.0664
   14CHTO   O68 5566   4.338   3.720   3.186  0.3306  0.1008  0.0746
   14CHTO  H168 5567   4.383   3.710   3.104 -1.0119 -0.9803 -0.5467
   14CHTO   C99 5568   4.144   3.855   3.075  0.4101 -0.3373 -0.6466
   14CHTO  H186 5569   4.189   3.837   2.975  2.5101  0.0341  0.2130
   14CHTO   N17 5570   4.039   3.746   3.100 -0.2934  0.4198  0.3310
   14CHTO  H174 5571   4.025   3.737   3.206 -0.0117 -1.7513  0.1925
   14CHTO  H175 5572   3.948   3.772   3.046 -0.6222 -0.1268  0.6176
   14CHTO   C97 5573   4.073   3.995   3.060 -0.2043  0.4447  0.1448
   14CHTO  H184 5574   4.004   4.012   3.144  1.7853  1.7809  1.5455
   14CHTO   O64 5575   4.163   4.106   3.050 -0.2316 -0.0404  0.0930
   14CHTO  C104 5576   4.258   4.122   3.155  0.4839 -0.2492 -0.3753
   14CHTO  H191 5577   4.212   4.132   3.254  0.6029  0.1564 -0.3594
   14CHTO  C108 5578   4.344   4.247   3.138  0.0363 -0.5323 -0.3892
   14CHTO   O71 5579   4.416   4.296   3.250  0.1215  0.0435  0.2039
   14CHTO  H171 5580   4.507   4.308   3.232 -0.1914  0.4701 -1.1271
   14CHTO   O62 5581   3.997   3.995   2.935  0.1602  0.5557 -0.5031
   14CHTO   C91 5582   3.865   4.049   2.933  0.0284 -0.3447  0.6345
   14CHTO  H178 5583   3.806   4.006   3.014 -0.5090  1.7840  1.3940
   14CHTO   C92 5584   3.806   3.995   2.806  0.5160 -0.6377  0.1745
   14CHTO  H179 5585   3.817   3.886   2.804 -1.9245 -0.9034 -0.8630
   14CHTO   O66 5586   3.664   4.022   2.811  0.7914  0.0349 -0.0183
   14CHTO  H166 5587   3.620   3.981   2.883  0.0503  2.8524  1.1663
   14CHTO   C93 5588   3.861   4.058   2.674 -0.0037  0.2155  0.2201
   14CHTO  H180 5589   3.773   4.043   2.610  0.6094 -0.6639 -0.4328
   14CHTO   N16 5590   3.972   3.987   2.609  0.0949 -0.1768  0.1196
   14CHTO  H172 5591   4.006   4.052   2.530 -2.3248 -0.3880 -1.1537
   14CHTO  H173 5592   4.051   3.970   2.680 -1.2101 -0.2291  1.5914
   14CHTO   C94 5593   3.876   4.215   2.692 -0.6406  0.3513 -0.5442
   14CHTO  H181 5594   3.980   4.244   2.709 -0.0657 -2.3385  0.8842
   14CHTO   O61 5595   3.808   4.257   2.808 -0.0499  0.3121  0.1159
   14CHTO   C95 5596   3.853   4.205   2.933  0.1219  0.8256  0.2665
   14CHTO  H182 5597   3.946   4.255   2.958 -1.0145  2.3687  1.4515
   14CHTO  C106 5598   3.744   4.247   3.039 -0.1224  0.2250 -0.3765
   14CHTO   O69 5599   3.778   4.190   3.170 -0.5259 -0.3796  0.6390
   14CHTO  H169 5600   3.814   4.103   3.165 -0.5004 -0.4031  1.2344
   14CHTO   O63 5601   3.810   4.292   2.570 -0.8683  0.3649  0.5027
   14CHTO   C96 5602   3.761   4.446   2.595 -1.0445  0.4862  0.0785
   14CHTO  H183 5603   3.808   4.486   2.685 -2.5749  0.3292  0.9822
   14CHTO   C98 5604   3.612   4.470   2.601  0.2966 -0.1573  0.0630
   14CHTO  H185 5605   3.558   4.425   2.516  1.1507  0.3683 -0.7762
   14CHTO   O67 5606   3.567   4.404   2.718  0.3845 -0.1559  0.5224
   14CHTO  H167 5607   3.596   4.458   2.790 -1.0237  0.7491  0.4210
   14CHTO  C102 5608   3.575   4.629   2.615  0.3109 -0.0250 -0.5117
   14CHTO  H189 5609   3.600   4.659   2.718  0.1359  0.0494 -0.4901
   14CHTO   N18 5610   3.430   4.656   2.607  0.0681 -0.4848  0.3536
   14CHTO  H176 5611   3.397   4.758   2.624 -4.0646 -1.5059 -1.0877
   14CHTO  H177 5612   3.381   4.606   2.526  2.4484 -1.8712 -0.2779
   14CHTO  C105 5613   3.654   4.706   2.504  0.3394 -0.2344 -0.0420
   14CHTO  H192 5614   3.615   4.688   2.404 -0.0813  2.1174 -0.3414
   14CHTO   O65 5615   3.789   4.672   2.510  0.1057  0.2073 -0.2821
   14CHTO  C100 5616   3.819   4.534   2.481  0.6452 -0.5520  0.3493
   14CHTO  H187 5617   3.772   4.506   2.386 -0.7729  0.9662  0.5912
   14CHTO  C107 5618   3.974   4.535   2.460  0.2514  0.1225 -0.1431
   14CHTO   O70 5619   4.035   4.408   2.453  0.5012 -0.1671  0.1954
   14CHTO  H170 5620   4.004   4.353   2.384 -0.4192  0.4835  0.0804
   14CHTO   O57 5621   3.638   4.867   2.531 -0.4004 -0.3058 -0.0889
   14CHTO   C85 5622   3.604   4.957   2.422  0.4705 -0.9296 -0.8531
   14CHTO  H157 5623   3.524   4.906   2.363 -0.1674  1.7041 -2.3372
   14CHTO   C83 5624   3.728   4.977   2.327  0.1315 -0.1966  0.4117
   14CHTO  H155 5625   3.755   4.882   2.281  1.1617  0.0950  0.4099
   14CHTO   O56 5626   3.846   5.025   2.399 -0.2154  0.1878  0.3614
   14CHTO  H135 5627   3.824   5.106   2.440 -1.0889  0.2457 -0.2203
   14CHTO   C81 5628   3.689   5.075   2.211  0.3878 -0.8877 -0.2380
   14CHTO  H153 5629   3.607   5.037   2.150 -0.8536 -0.2056  0.9774
   14CHTO   N14 5630   3.788   5.088   2.103  0.4526  0.2783 -0.1528
   14CHTO  H141 5631   3.753   5.128   2.010  0.0792 -1.1598 -0.6563
   14CHTO  H142 5632   3.826   4.990   2.081  0.8533  0.4931 -0.4206
   14CHTO   C79 5633   3.651   5.217   2.271 -0.5104 -1.3397 -0.0213
   14CHTO  H151 5634   3.621   5.283   2.190  2.4047  3.7717  2.7769
   14CHTO   O52 5635   3.536   5.209   2.364 -0.2151  0.5320  0.0291
   14CHTO   C86 5636   3.562   5.104   2.466 -0.0562 -0.1827  0.3217
   14CHTO  H158 5637   3.637   5.148   2.535 -0.6389  0.3402  0.6347
   14CHTO   C90 5638   3.433   5.087   2.549 -0.6977 -0.6484 -0.9098
   14CHTO   O60 5639   3.326   5.029   2.485 -0.2368  0.1976 -0.2755
   14CHTO  H138 5640   3.352   4.943   2.458  0.1316  0.8415 -2.0913
   14CHTO   O50 5641   3.759   5.283   2.342 -0.3875  0.2519 -0.1635
   14CHTO   C73 5642   3.769   5.411   2.410 -0.5971 -0.4560  0.2276
   14CHTO  H145 5643   3.684   5.430   2.477 -2.0313  0.5408 -1.8078
   14CHTO   C74 5644   3.774   5.533   2.309 -0.1852 -0.1790  0.3339
   14CHTO  H146 5645   3.689   5.521   2.240 -0.8166 -0.7769  1.2171
   14CHTO   O54 5646   3.755   5.650   2.390 -0.4449  0.1605 -0.3258
   14CHTO  H133 5647   3.835   5.694   2.412 -0.6983  0.1992  0.5205
   14CHTO   C75 5648   3.913   5.542   2.228 -1.0104  0.0737  0.3258
   14CHTO  H147 5649   3.918   5.450   2.168 -0.2451  1.4081 -1.7051
   14CHTO   N13 5650   3.920   5.653   2.132  0.1452 -0.1756 -0.2027
   14CHTO  H139 5651   3.828   5.649   2.076 -0.0369  3.5919 -0.3378
   14CHTO  H140 5652   4.002   5.640   2.064 -0.9610  0.0850 -1.6019
   14CHTO   C76 5653   4.030   5.543   2.327 -0.6179  0.7893 -0.2647
   14CHTO  H148 5654   4.024   5.637   2.383 -0.5267  0.3553  0.4910
   14CHTO   O49 5655   4.021   5.427   2.418  0.1583  0.4382  0.2608
   14CHTO   C77 5656   3.901   5.414   2.495  0.8167  0.1745  0.6977
   14CHTO  H149 5657   3.894   5.497   2.566 -0.0797  0.6784  0.0285
   14CHTO   C88 5658   3.910   5.290   2.585  0.4412 -0.0871 -0.3048
   14CHTO   O58 5659   4.065   5.285   2.640  0.1201 -0.2713  0.7531
   14CHTO  H136 5660   4.069   5.226   2.713  0.1990 -0.4388  0.6126
   14CHTO   O51 5661   4.168   5.518   2.244  0.2119 -0.2239  0.2203
   14CHTO   C78 5662   4.288   5.604   2.297  0.1671  0.0286 -0.2761
   14CHTO  H150 5663   4.253   5.662   2.385 -0.6710 -1.8154  0.6252
   14CHTO   C80 5664   4.336   5.699   2.184  0.1579 -0.1966  0.0330
   14CHTO  H152 5665   4.372   5.638   2.099 -0.2747  0.0188 -0.3051
   14CHTO   O55 5666   4.224   5.776   2.141 -0.5270 -0.1890 -0.0037
   14CHTO  H134 5667   4.172   5.731   2.077 -2.0930 -0.0582  1.1477
   14CHTO   C84 5668   4.453   5.791   2.234  0.0188  0.7538  0.2329
   14CHTO  H156 5669   4.412   5.854   2.312 -4.4167 -2.3395  0.6009
   14CHTO   N15 5670   4.514   5.882   2.123 -0.4175 -0.8753  0.1271
   14CHTO  H143 5671   4.621   5.894   2.129 -0.2645  0.2039 -3.4087
   14CHTO  H144 5672   4.475   5.981   2.122  1.4084 -0.0926 -3.3905
   14CHTO   C87 5673   4.573   5.703   2.287  0.5979 -0.3077 -0.1412
   14CHTO  H159 5674   4.620   5.639   2.212  0.4798 -1.2285  0.5670
   14CHTO   O53 5675   4.504   5.611   2.406 -0.2810 -0.1661  0.3924
   14CHTO   C82 5676   4.411   5.524   2.344  0.0042  0.2206 -0.8762
   14CHTO  H154 5677   4.465   5.469   2.267 -0.3373  1.0995 -1.7493
   14CHTO   C89 5678   4.365   5.419   2.448 -0.5940 -0.3078  0.7523
   14CHTO   O59 5679   4.446   5.304   2.441 -0.2074  1.1625  0.5664
   14CHTO  H137 5680   4.462   5.276   2.529  0.0878 -0.7192 -0.0640
   14CHTO   O45 5681   4.690   5.782   2.355 -0.5123  0.1910  0.1995
   14CHTO   C67 5682   4.828   5.741   2.327  0.7281 -0.5491  0.2256
   14CHTO  H124 5683   4.888   5.808   2.388  0.7773 -1.7183  1.4957
   14CHTO   C65 5684   4.858   5.596   2.379 -0.3254 -0.1717  0.2834
   14CHTO  H122 5685   4.766   5.565   2.428  0.1645 -1.0356  0.6628
   14CHTO   O44 5686   4.966   5.608   2.471  0.3344  0.1023  0.0493
   14CHTO  H102 5687   5.022   5.534   2.477  2.8870  1.8375 -1.3303
   14CHTO   C63 5688   4.877   5.490   2.271 -0.1835  0.1730  0.2341
   14CHTO  H120 5689   4.788   5.489   2.208 -0.1130 -2.5277  0.0994
   14CHTO   N11 5690   4.882   5.346   2.302 -0.4031  0.3410  0.0644
   14CHTO  H108 5691   4.906   5.335   2.405 -0.0614 -0.7801 -0.1319
   14CHTO  H109 5692   4.788   5.306   2.272 -0.6398  0.2371  0.9477
   14CHTO   C61 5693   5.002   5.544   2.188 -0.2320 -0.2002  0.0923
   14CHTO  H118 5694   5.011   5.480   2.099 -1.5702  1.4526 -1.2701
   14CHTO   O40 5695   4.995   5.684   2.150 -0.1922 -0.4407 -0.2988
   14CHTO   C68 5696   4.875   5.764   2.181  0.2343 -0.4063  0.3032
   14CHTO  H125 5697   4.799   5.726   2.110  1.3835 -1.0019 -0.6224
   14CHTO   C72 5698   4.894   5.914   2.157  0.4263  0.8897 -0.4410
   14CHTO   O48 5699   4.902   5.913   2.011 -0.1401  0.0376 -0.0341
   14CHTO  H105 5700   4.877   5.998   1.979  0.2583  0.0570 -0.3016
   14CHTO   O38 5701   5.129   5.533   2.263  0.3853 -0.2391  0.3308
   14CHTO   C55 5702   5.245   5.515   2.169  0.6592  0.2217 -0.4222
   14CHTO  H112 5703   5.212   5.561   2.075  0.4682  1.6344  0.3260
   14CHTO   C56 5704   5.306   5.368   2.150  0.2725 -0.0761 -0.1384
   14CHTO  H113 5705   5.315   5.332   2.253 -2.4612 -0.5068 -0.0025
   14CHTO   O42 5706   5.218   5.285   2.077  0.1454 -0.2228  0.2808
   14CHTO  H100 5707   5.135   5.328   2.082  0.4184  0.5742 -1.8406
   14CHTO   C57 5708   5.447   5.365   2.083 -1.0351 -0.2638 -0.8585
   14CHTO  H114 5709   5.435   5.369   1.975 -1.7856  3.5882 -0.7204
   14CHTO   N10 5710   5.519   5.239   2.113  0.1411 -0.1060  0.0193
   14CHTO  H106 5711   5.483   5.171   2.037 -1.5759  2.5379 -1.5975
   14CHTO  H107 5712   5.625   5.251   2.096  0.0367  0.9886  0.1488
   14CHTO   C58 5713   5.548   5.484   2.132 -0.4133  0.0104 -0.0728
   14CHTO  H115 5714   5.589   5.464   2.234  0.9927  1.7954 -0.2665
   14CHTO   O37 5715   5.478   5.608   2.122  0.1643 -0.2326  0.7815
   14CHTO   C59 5716   5.362   5.612   2.212 -0.1413  0.2533  0.8083
   14CHTO  H116 5717   5.394   5.598   2.315  0.3275 -3.9918  0.1812
   14CHTO   C70 5718   5.336   5.767   2.207 -0.2884  0.6358  0.0499
   14CHTO   O46 5719   5.239   5.806   2.302 -0.1175  0.0086  0.3459
   14CHTO  H103 5720   5.274   5.832   2.384 -0.3049 -0.0565  0.4479
   14CHTO   O39 5721   5.665   5.504   2.033  0.2798 -0.6444  0.4560
   14CHTO   C60 5722   5.791   5.484   2.098 -0.3277  0.0736  0.1100
   14CHTO  H117 5723   5.790   5.473   2.206  0.1051 -0.9362  0.0208
   14CHTO   C62 5724   5.856   5.348   2.056 -0.0642  0.5460  0.2096
   14CHTO  H119 5725   5.792   5.266   2.095 -0.5370  0.9504  0.2834
   14CHTO   O43 5726   5.876   5.343   1.912  0.0069  0.4789 -0.2927
   14CHTO  H101 5727   5.930   5.415   1.885  0.7295 -0.5786 -1.8176
   14CHTO   C66 5728   5.993   5.347   2.144  0.1242 -0.2405  0.1664
   14CHTO  H123 5729   5.964   5.394   2.238 -2.5913 -0.0015 -0.7452
   14CHTO   N12 5730   6.035   5.211   2.167 -0.2433  0.3683 -0.7848
   14CHTO  H110 5731   6.091   5.188   2.077  2.4323  3.5266 -0.0098
   14CHTO  H111 5732   5.952   5.142   2.171  0.4555 -0.5388 -1.6434
   14CHTO   C69 5733   6.103   5.444   2.089 -0.3744 -0.2638 -0.4559
   14CHTO  H126 5734   6.124   5.430   1.981  1.0102  0.7977 -0.3336
   14CHTO   O41 5735   6.041   5.593   2.104 -0.3419 -0.2033 -0.7578
   14CHTO   C64 5736   5.886   5.608   2.068  0.2662  0.0089  0.3336
   14CHTO  H121 5737   5.884   5.626   1.958  0.4316  4.2555  0.9230
   14CHTO   C71 5738   5.831   5.740   2.137  0.1473  0.3392  0.2648
   14CHTO   O47 5739   5.869   5.850   2.053 -0.3398  0.6976 -0.9591
   14CHTO  H104 5740   5.812   5.920   2.080  1.4253  2.4571 -1.6783
   14CHTO   O34 5741   6.234   5.430   2.170  0.2668 -0.6791  0.0257
   14CHTO   C49 5742   6.357   5.470   2.233  0.0664 -0.3248  0.2147
   14CHTO   H91 5743   6.425   5.464   2.148  2.7074  1.4488  2.0962
   14CHTO   C47 5744   6.392   5.374   2.350  0.3387 -0.2008  0.6822
   14CHTO   H89 5745   6.493   5.400   2.386  0.1957  0.8700  0.3249
   14CHTO   O33 5746   6.397   5.240   2.298  0.0281  0.4776  0.6005
   14CHTO   H70 5747   6.462   5.234   2.231 -2.1868 -1.4304 -1.4876
   14CHTO   C45 5748   6.285   5.393   2.467 -0.6094  0.3415  0.2161
   14CHTO   H87 5749   6.201   5.325   2.447 -0.3102  0.2295 -0.6897
   14CHTO    N8 5750   6.353   5.352   2.594 -0.6176 -0.2562 -0.1860
   14CHTO   H75 5751   6.289   5.304   2.667 -0.8863 -0.5559 -0.6255
   14CHTO   H76 5752   6.404   5.430   2.649 -0.1695  1.5426 -3.0673
   14CHTO   C43 5753   6.223   5.545   2.461 -0.2320 -0.6091 -0.8712
   14CHTO   H85 5754   6.141   5.545   2.389 -0.8156 -1.1129 -0.2220
   14CHTO   O29 5755   6.322   5.634   2.429  0.2078 -0.1007  0.7378
   14CHTO   C50 5756   6.360   5.617   2.293 -0.2457 -1.1261  0.1822
   14CHTO   H92 5757   6.307   5.681   2.220  0.0332  0.9685  1.7582
   14CHTO   C54 5758   6.504   5.679   2.284 -0.2757 -0.0559  0.3344
   14CHTO   O36 5759   6.494   5.825   2.277 -0.1474 -0.6824  0.0389
   14CHTO   H72 5760   6.449   5.853   2.354 -0.4574  2.9155 -1.3381
   14CHTO   O27 5761   6.142   5.577   2.575 -0.0284 -0.1560  0.3679
   14CHTO   C37 5762   6.009   5.604   2.609 -0.2659  0.7073  0.1251
   14CHTO   H79 5763   5.998   5.624   2.717  2.3989  1.2961  0.3137
   14CHTO   C38 5764   5.961   5.724   2.526 -0.4921 -0.0809  0.0807
   14CHTO   H80 5765   5.980   5.699   2.421  0.7101 -0.3964  0.3703
   14CHTO   O31 5766   6.038   5.845   2.555  0.5200  0.3299  0.0460
   14CHTO   H68 5767   6.039   5.862   2.647 -0.6257  1.1038 -0.0633
   14CHTO   C39 5768   5.805   5.754   2.554  0.1857  0.0803 -0.0196
   14CHTO   H81 5769   5.796   5.777   2.660 -0.3434 -0.3542  0.0345
   14CHTO    N7 5770   5.750   5.869   2.474 -0.6180 -0.0855  0.0612
   14CHTO   H73 5771   5.788   5.872   2.373  0.8080  0.9426  0.6157
   14CHTO   H74 5772   5.726   5.961   2.525  0.9227  0.1518  0.3765
   14CHTO   C40 5773   5.726   5.621   2.518  0.5577  0.5733  0.7610
   14CHTO   H82 5774   5.728   5.594   2.412 -1.1865  0.0415  0.8492
   14CHTO   O26 5775   5.778   5.511   2.600  0.2330 -0.1745  0.2169
   14CHTO   C41 5776   5.916   5.478   2.571  0.2272 -0.6210  0.3894
   14CHTO   H83 5777   5.931   5.452   2.465 -1.4705 -2.5694  0.6078
   14CHTO   C52 5778   5.954   5.347   2.641  0.3628 -0.0622 -0.7309
   14CHTO   O35 5779   5.986   5.360   2.786 -0.1646  0.3746  0.6914
   14CHTO   H71 5780   6.040   5.288   2.811  1.3833  1.8495  1.7159
   14CHTO   O28 5781   5.583   5.629   2.548  0.2804 -0.4278 -0.2792
   14CHTO   C42 5782   5.480   5.532   2.602 -0.2095 -0.7581  0.3240
   14CHTO   H84 5783   5.512   5.522   2.706  0.6644 -0.4759  0.0913
   14CHTO   C44 5784   5.465   5.387   2.538  0.3405  0.3173 -0.1993
   14CHTO   H86 5785   5.426   5.398   2.437 -1.1072  2.5731  0.5739
   14CHTO   O32 5786   5.590   5.315   2.535  0.4342 -0.1624 -0.3094
   14CHTO   H69 5787   5.651   5.379   2.503  0.4894  0.0342  0.1883
   14CHTO   C48 5788   5.361   5.312   2.628  0.8172 -0.4475  0.7861
   14CHTO   H90 5789   5.400   5.270   2.721  1.2821  0.5206  1.0382
   14CHTO    N9 5790   5.334   5.171   2.563 -0.2382  0.3991  0.1006
   14CHTO   H77 5791   5.272   5.188   2.476 -2.8937  0.8121  2.0310
   14CHTO   H78 5792   5.425   5.122   2.532 -0.8414 -0.6685  0.0092
   14CHTO   C51 5793   5.225   5.400   2.632  0.0521 -0.1150 -0.7267
   14CHTO   H93 5794   5.180   5.397   2.533 -0.6687 -2.2975 -0.3636
   14CHTO   O30 5795   5.250   5.533   2.680  0.3071 -0.0411 -0.2150
   14CHTO   C46 5796   5.338   5.603   2.597 -0.7420 -0.5259 -0.4492
   14CHTO   H88 5797   5.301   5.597   2.495  0.7071 -1.1734 -0.9470
   14CHTO   C53 5798   5.330   5.748   2.659  0.2337  0.0417 -0.2184
   14CHTO   O72 5799   5.386   5.856   2.582 -0.4551 -0.1892  0.5480
   14CHTO  H199 5800   5.326   5.881   2.515 -1.0622  0.0238  1.1678
   14CHTO   O22 5801   5.139   5.338   2.731  0.0880 -0.0661 -0.3652
   14CHTO   C31 5802   4.990   5.369   2.734  1.0468 -0.1296 -0.0759
   14CHTO   H59 5803   4.972   5.431   2.644  3.0335  0.0390 -0.3633
   14CHTO   C29 5804   4.901   5.243   2.721 -0.2921 -0.1933  0.3601
   14CHTO   H57 5805   4.919   5.176   2.807 -2.9705 -1.6362 -0.1597
   14CHTO   O21 5806   4.951   5.173   2.609  0.4513 -0.0975  0.1685
   14CHTO   H37 5807   5.023   5.124   2.643 -1.4212 -2.1190  1.3326
   14CHTO   C27 5808   4.749   5.283   2.720  0.3976 -0.1386  0.1708
   14CHTO   H55 5809   4.726   5.344   2.631 -0.8394 -0.6073  0.1537
   14CHTO    N5 5810   4.664   5.161   2.711 -0.0315  0.2852  0.7031
   14CHTO   H43 5811   4.700   5.094   2.787 -0.7617 -0.0173  0.7901
   14CHTO   H44 5812   4.691   5.116   2.617  0.7662 -1.4081  1.7395
   14CHTO   C25 5813   4.716   5.362   2.850 -0.6505 -0.3306 -0.0536
   14CHTO   H53 5814   4.742   5.293   2.931  1.5261 -0.3249 -0.7216
   14CHTO   O17 5815   4.805   5.474   2.858 -0.2351  0.4122  0.2799
   14CHTO   C32 5816   4.941   5.450   2.864  0.6822 -0.2690  0.4195
   14CHTO   H60 5817   4.968   5.391   2.952 -0.3356 -2.4310 -0.7036
   14CHTO   C36 5818   5.009   5.588   2.879  0.1771 -0.1963 -0.2920
   14CHTO   O25 5819   4.996   5.660   2.759 -0.7017 -0.1177  0.1291
   14CHTO   H40 5820   4.966   5.748   2.766 -2.7695 -0.9209  1.8772
   14CHTO   O15 5821   4.570   5.417   2.878 -0.2411 -0.4268 -0.1201
   14CHTO   C19 5822   4.467   5.491   2.810 -0.3172  0.4861  0.5062
   14CHTO   H47 5823   4.476   5.460   2.704  0.3568  2.3137  0.0085
   14CHTO   C20 5824   4.329   5.445   2.858  0.2703 -0.3289  0.6085
   14CHTO   H48 5825   4.325   5.438   2.968 -0.8263  0.6094  0.6326
   14CHTO   O19 5826   4.327   5.308   2.813 -0.1906  0.8199  0.1365
   14CHTO   H35 5827   4.322   5.248   2.885  2.2315 -0.9524 -1.0947
   14CHTO   C21 5828   4.196   5.525   2.806 -0.4629 -0.1637  0.6080
   14CHTO   H49 5829   4.191   5.496   2.701  1.0416 -2.3808  1.1240
   14CHTO    N4 5830   4.072   5.489   2.880 -0.4356 -0.1351  0.1186
   14CHTO   H41 5831   4.067   5.383   2.898 -0.2064 -0.2301 -0.3594
   14CHTO   H42 5832   4.082   5.546   2.971 -0.1395  0.1981 -0.1187
   14CHTO   C22 5833   4.227   5.677   2.798 -0.1825 -1.0316  0.4860
   14CHTO   H50 5834   4.221   5.714   2.900 -2.0339 -0.3437  0.1388
   14CHTO   O14 5835   4.351   5.689   2.726 -0.4151 -0.5937 -0.0975
   14CHTO   C23 5836   4.467   5.647   2.805 -0.1145  0.2552  0.0065
   14CHTO   H51 5837   4.468   5.692   2.905  0.8403 -1.0211  0.5822
   14CHTO   C34 5838   4.590   5.687   2.729  0.0851  0.2973 -0.0651
   14CHTO   O23 5839   4.607   5.828   2.728 -0.0348 -0.0834  0.1335
   14CHTO   H38 5840   4.615   5.846   2.637  3.9796 -1.7919  0.0321
   14CHTO   O16 5841   4.132   5.742   2.710 -0.2842  0.0835  0.1745
   14CHTO   C24 5842   4.139   5.903   2.695 -0.4585  0.2266 -0.4393
   14CHTO   H52 5843   4.053   5.949   2.742 -0.8740 -1.0451  0.0787
   14CHTO   C26 5844   4.140   5.922   2.541 -0.2418 -0.0864 -1.3664
   14CHTO   H54 5845   4.209   5.846   2.499  0.9756  0.6503 -0.7322
   14CHTO   O20 5846   4.010   5.894   2.486  0.1832 -0.1209 -0.0381
   14CHTO   H36 5847   3.996   5.802   2.475  0.0739  0.1043 -1.8910
   14CHTO   C30 5848   4.187   6.059   2.498  0.3551  0.3600  0.7851
   14CHTO   H58 5849   4.105   6.131   2.508  1.2575  2.0835 -3.1476
   14CHTO    N6 5850   4.211   6.055   2.347  0.7613  0.4540 -0.1380
   14CHTO   H45 5851   4.170   6.142   2.299  0.0767 -0.1069 -0.5905
   14CHTO   H46 5852   4.314   6.037   2.319  0.4528 -1.0451 -0.3764
   14CHTO   C33 5853   4.310   6.119   2.568  0.2085 -0.2378  0.4960
   14CHTO   H61 5854   4.401   6.063   2.542  1.9739  2.9223 -0.5002
   14CHTO   O18 5855   4.282   6.106   2.709 -0.3092 -0.0097  0.3392
   14CHTO   C28 5856   4.270   5.971   2.754 -0.6697  0.3015 -0.4864
   14CHTO   H56 5857   4.357   5.912   2.727 -1.0111 -0.0373 -0.8431
   14CHTO   C35 5858   4.253   5.988   2.905  1.2508 -0.6625 -0.7359
   14CHTO   O24 5859   4.381   6.005   2.972 -0.4305 -0.0267  0.1433
   14CHTO   H39 5860   4.365   6.063   3.045 -0.3802  0.7274 -0.4404
   14CHTO    O9 5861   4.332   6.253   2.532  0.3179 -0.0132  0.3094
   14CHTO   C13 5862   4.496   6.286   2.561  0.3321  0.8188 -0.2013
   14CHTO   H26 5863   4.562   6.208   2.518  1.3654  1.1607  0.7333
   14CHTO   C11 5864   4.528   6.305   2.718  0.3443 -0.6532  0.1769
   14CHTO   H24 5865   4.520   6.202   2.755 -0.3855 -0.9834 -0.8814
   14CHTO    O8 5866   4.425   6.393   2.768  0.3157  0.6287 -0.9062
   14CHTO    H3 5867   4.446   6.475   2.728 -2.6211  0.8074 -2.2193
   14CHTO    C9 5868   4.668   6.359   2.739 -0.2023  0.1637 -0.6162
   14CHTO   H22 5869   4.735   6.290   2.686 -0.8429 -1.5311  0.7375
   14CHTO    N2 5870   4.709   6.349   2.880  0.1744 -0.4503 -0.0221
   14CHTO   H10 5871   4.696   6.244   2.902  1.5684 -0.3151  1.5812
   14CHTO   H11 5872   4.642   6.403   2.945  0.8250 -0.3703  0.5783
   14CHTO    C7 5873   4.689   6.500   2.667  0.7102 -0.3061 -0.0882
   14CHTO   H20 5874   4.779   6.477   2.606 -1.0029 -1.4229 -2.2885
   14CHTO    O4 5875   4.578   6.527   2.574  0.8306 -0.5293 -0.7411
   14CHTO   C14 5876   4.529   6.424   2.488 -0.1452  0.5726  0.1994
   14CHTO   H27 5877   4.612   6.400   2.418 -0.4385 -2.7383  0.9374
   14CHTO   C18 5878   4.411   6.483   2.405 -0.0684  0.4817  0.2557
   14CHTO   O13 5879   4.401   6.395   2.286 -0.0149  0.2059  0.0817
   14CHTO    H7 5880   4.314   6.384   2.252  0.2434  2.8922 -1.6270
   14CHTO    O2 5881   4.695   6.617   2.771  0.3656 -0.3618 -0.6306
   14CHTO    C1 5882   4.782   6.719   2.732 -0.0454  0.2545 -0.4476
   14CHTO   H14 5883   4.787   6.724   2.621 -0.8288 -0.9113 -0.5476
   14CHTO    C2 5884   4.933   6.705   2.793  0.4430 -0.2691  0.5034
   14CHTO   H15 5885   4.916   6.678   2.899 -0.0664  0.7742  0.6940
   14CHTO    O6 5886   5.008   6.600   2.730 -0.3259 -0.0887 -0.2073
   14CHTO    H1 5887   5.098   6.607   2.756  0.0559 -0.8103 -1.3540
   14CHTO    C3 5888   5.011   6.850   2.780  0.5806 -0.7879 -0.4380
   14CHTO   H16 5889   5.027   6.869   2.673  0.7452 -0.7959 -0.4152
   14CHTO    N1 5890   5.145   6.854   2.849 -0.3834 -0.2749  0.4051
   14CHTO    H8 5891   5.146   6.787   2.934 -0.9464 -2.1308 -1.0171
   14CHTO    H9 5892   5.172   6.952   2.886  0.0517  0.4595 -1.8099
   14CHTO    C4 5893   4.925   6.963   2.828  0.0567  0.4026 -0.3812
   14CHTO   H17 5894   4.924   6.959   2.937 -0.5537 -1.8495 -0.4561
   14CHTO    O1 5895   4.793   6.965   2.766 -0.0845  0.5812 -0.2411
   14CHTO    C5 5896   4.716   6.841   2.788 -0.3753  0.0670  0.8067
   14CHTO   H18 5897   4.690   6.830   2.893  1.2571  0.5138  1.2613
   14CHTO   C16 5898   4.592   6.862   2.705 -0.9332  0.0609  0.6129
   14CHTO   O11 5899   4.511   6.948   2.789  0.0441 -0.3154  0.5657
   14CHTO    H5 5900   4.460   7.007   2.736  0.2671 -1.0261 -0.4510
   14CHTO    O3 5901   4.981   7.089   2.779  0.4757  0.7193  0.1773
   14CHTO    C6 5902   4.968   7.208   2.866  0.5928  0.3693  0.6160
   14CHTO   H19 5903   4.888   7.198   2.940  0.5841  1.1452  0.7151
   14CHTO    C8 5904   5.103   7.224   2.940  0.2292 -0.8089  0.5221
   14CHTO   H21 5905   5.183   7.220   2.866  1.0681 -0.0793  1.3836
   14CHTO    O7 5906   5.122   7.108   3.026  0.6783  0.2558  0.1528
   14CHTO    H2 5907   5.148   7.027   2.987  2.8503  0.6230  0.7713
   14CHTO   C12 5908   5.109   7.358   3.015 -0.4200  0.3280 -0.0898
   14CHTO   H25 5909   5.029   7.360   3.091 -1.0595 -0.9313 -0.7166
   14CHTO    N3 5910   5.240   7.365   3.081  0.4355 -0.9174  0.2110
   14CHTO   H12 5911   5.224   7.317   3.176 -0.4959 -0.7216  0.1577
   14CHTO   H13 5912   5.267   7.468   3.101 -0.7160 -0.2853 -1.3445
   14CHTO   C15 5913   5.086   7.475   2.914  0.2956  0.2669  0.0968
   14CHTO   H28 5914   5.158   7.483   2.832  0.0439 -0.5653 -0.2144
   14CHTO   O10 5915   5.056   7.629   2.986 -0.8099 -0.0206  0.1417
   14CHTO    H4 5916   5.013   7.610   3.067 -0.6890  2.1269  0.7384
   14CHTO    O5 5917   4.960   7.452   2.845  0.0907  0.2752  0.6852
   14CHTO   C10 5918   4.938   7.327   2.776 -0.4323 -0.0033  0.2108
   14CHTO   H23 5919   5.010   7.327   2.694  0.3703 -1.7397  0.8711
   14CHTO   C17 5920   4.793   7.328   2.721 -0.1629 -0.0443 -0.5499
   14CHTO   O12 5921   4.765   7.425   2.624 -0.7248  0.2444  0.6788
   14CHTO    H6 5922   4.782   7.511   2.657  1.0321 -0.8294  2.6528
   15CHTO  H203 5923   5.818   4.982   2.369 -0.1710 -0.6092  1.0187
   15CHTO   O82 5924   5.810   4.899   2.412 -0.1223 -1.1772 -0.0370
   15CHTO  C123 5925   5.732   4.805   2.346 -0.4621 -0.1292  0.6071
   15CHTO  H227 5926   5.716   4.847   2.246 -0.7223  2.7137  1.7854
   15CHTO   O77 5927   5.829   4.695   2.335  0.0762  0.2288  0.4277
   15CHTO  C118 5928   5.789   4.580   2.254  0.2714  0.2314 -0.4473
   15CHTO  H222 5929   5.774   4.610   2.149 -0.6752 -1.8073 -0.9298
   15CHTO  C125 5930   5.904   4.487   2.255  0.4071  0.1163  0.2084
   15CHTO   O84 5931   5.922   4.424   2.376  0.5865 -0.3521 -0.0283
   15CHTO  H205 5932   5.982   4.472   2.430  1.8037 -1.7213 -0.1266
   15CHTO  C114 5933   5.652   4.519   2.302 -0.5758  0.2244 -0.0157
   15CHTO  H218 5934   5.675   4.462   2.391  1.6985  0.9487 -0.1023
   15CHTO  C116 5935   5.542   4.626   2.348 -0.2963 -0.2148 -0.0490
   15CHTO  H220 5936   5.494   4.667   2.257 -1.1584  0.1321  0.5528
   15CHTO   O79 5937   5.446   4.550   2.425 -0.1328  0.3705 -0.2683
   15CHTO  H201 5938   5.386   4.601   2.476 -0.1989  0.5077 -0.4804
   15CHTO  C120 5939   5.606   4.753   2.421 -0.0035  0.9058 -0.0608
   15CHTO  H224 5940   5.635   4.710   2.519  1.0048 -1.1638 -1.2516
   15CHTO   N21 5941   5.501   4.854   2.448 -0.4734  0.0645 -0.5837
   15CHTO  H211 5942   5.542   4.949   2.416 -0.9726  0.1979 -0.8323
   15CHTO  H212 5943   5.407   4.828   2.402 -1.6664 -0.5204  2.0571
   15CHTO   O75 5944   5.603   4.441   2.195 -0.1300 -0.4652  0.1356
   15CHTO  C112 5945   5.580   4.271   2.224  0.7146 -0.1306 -0.2852
   15CHTO  H216 5946   5.564   4.258   2.332  1.2620 -0.9266 -0.2944
   15CHTO   O73 5947   5.691   4.197   2.178 -0.3556 -0.5352 -0.3765
   15CHTO  C113 5948   5.678   4.056   2.202  0.0220  0.7510  0.0564
   15CHTO  H217 5949   5.661   4.039   2.310 -1.1995 -1.1768 -0.4079
   15CHTO  C124 5950   5.808   3.979   2.177  0.2851 -0.4046  0.5231
   15CHTO   O83 5951   5.826   3.849   2.242  0.3717 -0.5574  0.6643
   15CHTO  H204 5952   5.776   3.778   2.207  1.0762 -0.5907 -0.2893
   15CHTO  C109 5953   5.563   3.993   2.121  0.0410  1.2701  0.7305
   15CHTO  H213 5954   5.587   4.006   2.015 -0.8689  0.6216  0.4422
   15CHTO  C110 5955   5.432   4.067   2.153 -0.3843 -0.2711  0.4293
   15CHTO  H214 5956   5.401   4.037   2.253 -2.2476  1.4091  0.3869
   15CHTO   O78 5957   5.339   4.026   2.053  0.3718 -0.0196  0.3298
   15CHTO  H200 5958   5.323   3.934   2.049  2.0276 -0.2956 -0.1996
   15CHTO  C111 5959   5.450   4.220   2.142 -0.2617 -0.3327 -0.7018
   15CHTO  H215 5960   5.474   4.246   2.038 -1.8476 -2.3246 -1.5769
   15CHTO   N19 5961   5.328   4.297   2.184 -0.4288  0.0279  0.1052
   15CHTO  H207 5962   5.332   4.352   2.277  0.1253  0.5839 -0.2507
   15CHTO  H208 5963   5.249   4.223   2.192  0.7827 -1.3296 -0.1399
   15CHTO   O74 5964   5.546   3.850   2.156  0.1561  0.0038 -0.1988
   15CHTO  C115 5965   5.578   3.754   2.052  0.0464 -0.0003 -0.5820
   15CHTO  H219 5966   5.649   3.794   1.979  1.7028 -2.3888 -0.3488
   15CHTO   O76 5967   5.653   3.628   2.111 -0.3222  0.0381 -0.4121
   15CHTO  C122 5968   5.567   3.533   2.176  0.2540 -0.3480 -0.0468
   15CHTO  H226 5969   5.522   3.580   2.263  0.8849  1.7411 -0.8158
   15CHTO  C126 5970   5.655   3.421   2.239  0.1178  0.7547 -0.7063
   15CHTO   O85 5971   5.595   3.300   2.282 -0.2810  0.6248 -0.5583
   15CHTO  H206 5972   5.651   3.264   2.348  0.1636  1.6040 -0.4050
   15CHTO  C121 5973   5.474   3.465   2.070  0.4341  0.5375 -0.4308
   15CHTO  H225 5974   5.504   3.362   2.040  1.2232  1.4316 -2.8032
   15CHTO   O81 5975   5.340   3.444   2.132 -0.2886  0.1029  0.5383
   15CHTO  H202 5976   5.322   3.367   2.183 -0.9525 -0.5883 -0.7278
   15CHTO  C119 5977   5.457   3.548   1.940  0.3932 -0.4790  0.8591
   15CHTO  H223 5978   5.551   3.540   1.885 -0.4810  3.6693 -1.4819
   15CHTO  C117 5979   5.450   3.703   1.978 -0.0819  0.0694  0.2802
   15CHTO  H221 5980   5.367   3.734   2.041  0.5645 -0.9533  1.6598
   15CHTO   N20 5981   5.435   3.778   1.851 -0.1397 -0.6466 -0.3000
   15CHTO  H209 5982   5.442   3.884   1.869  0.7350 -0.6226 -0.7740
   15CHTO  H210 5983   5.509   3.752   1.777 -0.0180  0.5983 -0.6194
   15CHTO   O80 5984   5.339   3.484   1.825  0.1421  0.6393  0.0524
   15CHTO  C103 5985   5.300   3.336   1.827 -0.7641 -0.0719 -0.1506
   15CHTO  H190 5986   5.324   3.303   1.928  0.0298  0.3992 -0.1865
   15CHTO  C101 5987   5.151   3.310   1.785  0.6121  0.0583  0.0076
   15CHTO  H188 5988   5.125   3.380   1.706 -0.6438  1.1372  1.3459
   15CHTO   O68 5989   5.070   3.344   1.898  0.7867 -0.4210  0.2019
   15CHTO  H168 5990   5.095   3.299   1.977  1.6550  2.5735  1.7005
   15CHTO   C99 5991   5.127   3.151   1.741 -0.5487 -0.3893  0.6281
   15CHTO  H186 5992   5.153   3.085   1.826  0.3805 -0.2609  0.4471
   15CHTO   N17 5993   4.985   3.116   1.696 -0.0778  0.2651 -0.0030
   15CHTO  H174 5994   4.974   3.097   1.590 -0.7477 -2.1369  0.4634
   15CHTO  H175 5995   4.945   3.033   1.753  2.0364 -1.2434 -0.6672
   15CHTO   C97 5996   5.237   3.120   1.635 -0.1217 -0.2303 -0.8518
   15CHTO  H184 5997   5.222   3.189   1.550 -0.5359  1.9924  0.9867
   15CHTO   O64 5998   5.364   3.133   1.692 -0.2599  0.6777 -0.0757
   15CHTO  C104 5999   5.398   3.267   1.735 -0.1833 -0.8180 -0.1221
   15CHTO  H191 6000   5.414   3.339   1.655  1.8384  1.2954  2.1008
   15CHTO  C108 6001   5.540   3.244   1.785  0.2995 -0.1602 -0.4287
   15CHTO   O71 6002   5.617   3.225   1.671 -0.1711  0.5217 -0.1279
   15CHTO  H171 6003   5.592   3.140   1.641  0.3767  0.4926 -0.5156
   15CHTO   O62 6004   5.231   2.988   1.577  0.4664  0.1092  0.0479
   15CHTO   C91 6005   5.322   2.979   1.462  0.4935  0.0491 -0.4201
   15CHTO  H178 6006   5.362   3.078   1.440  0.7052 -0.1349 -0.8789
   15CHTO   C92 6007   5.248   2.924   1.336  0.0140 -0.2439  0.0817
   15CHTO  H179 6008   5.159   2.987   1.322  0.8025  1.0091  0.6243
   15CHTO   O66 6009   5.332   2.947   1.221  0.5240 -0.5244  0.2309
   15CHTO  H166 6010   5.422   2.931   1.239  0.1943 -0.7501  1.8342
   15CHTO   C93 6011   5.214   2.768   1.333 -0.0126  0.0876  0.3840
   15CHTO  H180 6012   5.199   2.747   1.226 -1.4194  2.2089  0.1372
   15CHTO   N16 6013   5.081   2.733   1.387  0.9516 -0.3902 -0.1183
   15CHTO  H172 6014   5.087   2.740   1.495  2.4984 -0.4665 -0.1770
   15CHTO  H173 6015   5.014   2.806   1.345  2.1764  1.2179  0.6446
   15CHTO   C94 6016   5.334   2.684   1.394  0.3813  0.2612 -0.1116
   15CHTO  H181 6017   5.306   2.645   1.492 -0.5360  0.7623 -0.1739
   15CHTO   O61 6018   5.453   2.765   1.412  0.2073 -0.1291 -0.1749
   15CHTO   C95 6019   5.448   2.889   1.490 -0.5318 -0.7231  0.5077
   15CHTO  H182 6020   5.456   2.870   1.597  1.4668  0.5540  0.6196
   15CHTO  C106 6021   5.578   2.970   1.462 -0.4450 -0.8075 -0.0646
   15CHTO   O69 6022   5.691   2.882   1.472 -0.2651  0.5346 -0.4063
   15CHTO  H169 6023   5.769   2.917   1.433  0.3375 -0.3764 -0.0097
   15CHTO   O63 6024   5.378   2.569   1.287  0.1535  0.2263  0.3265
   15CHTO   C96 6025   5.438   2.437   1.371 -0.1278 -0.4216 -0.1770
   15CHTO  H183 6026   5.449   2.470   1.474  1.3391 -0.6214 -0.2615
   15CHTO   C98 6027   5.580   2.397   1.322 -0.0984 -0.1494  0.3422
   15CHTO  H185 6028   5.575   2.373   1.215  1.2871  2.8726 -0.4536
   15CHTO   O67 6029   5.666   2.511   1.330  0.3208  0.0280 -0.4114
   15CHTO  H167 6030   5.752   2.484   1.306  0.3235  1.8088 -2.6145
   15CHTO  C102 6031   5.627   2.264   1.405 -0.1175  0.3435  0.2579
   15CHTO  H189 6032   5.659   2.301   1.503 -0.3506  1.8800 -0.2337
   15CHTO   N18 6033   5.749   2.193   1.348 -0.2667  0.6191 -0.0872
   15CHTO  H176 6034   5.719   2.162   1.249  1.4229 -0.7464 -0.1955
   15CHTO  H177 6035   5.802   2.134   1.422 -0.2965 -0.1772 -0.6908
   15CHTO  C105 6036   5.510   2.163   1.424 -0.3316 -0.4653 -0.4056
   15CHTO  H192 6037   5.492   2.100   1.337 -0.0989 -0.7230 -0.2673
   15CHTO   O65 6038   5.379   2.217   1.455  0.2469  0.1832  0.1690
   15CHTO  C100 6039   5.333   2.325   1.371  0.1325 -0.0199  0.9331
   15CHTO  H187 6040   5.317   2.283   1.270  0.3559 -0.2518  0.9929
   15CHTO  C107 6041   5.191   2.365   1.426  0.3776 -0.4087 -0.3111
   15CHTO   O70 6042   5.115   2.247   1.427 -0.1355  0.0200  0.1515
   15CHTO  H170 6043   5.098   2.215   1.341 -0.2796 -1.4397  0.6895
   15CHTO   O57 6044   5.558   2.057   1.557 -1.2105  0.4196  0.3941
   15CHTO   C85 6045   5.466   1.971   1.624 -0.2575  0.4089  0.6313
   15CHTO  H157 6046   5.385   2.038   1.660  0.0082  0.0324  1.9664
   15CHTO   C83 6047   5.541   1.905   1.750  0.4690  0.2682 -0.0948
   15CHTO  H155 6048   5.559   1.994   1.811 -2.1085  0.7108  0.0826
   15CHTO   O56 6049   5.660   1.837   1.720  0.2651  0.0109 -0.1453
   15CHTO  H135 6050   5.649   1.771   1.654 -1.8752  0.4776 -0.2847
   15CHTO   C81 6051   5.436   1.821   1.823 -0.2589 -0.2569  0.0133
   15CHTO  H153 6052   5.348   1.882   1.846 -1.2475 -2.4535  2.2397
   15CHTO   N14 6053   5.478   1.789   1.964 -0.0632  0.3735  0.3898
   15CHTO  H141 6054   5.398   1.736   2.012 -1.4304  1.9124 -0.1400
   15CHTO  H142 6055   5.569   1.733   1.974  0.7465  1.5087 -0.4417
   15CHTO   C79 6056   5.390   1.701   1.734  0.4306  0.0918  0.1778
   15CHTO  H151 6057   5.299   1.660   1.778  0.8867  0.1930  1.2341
   15CHTO   O52 6058   5.351   1.733   1.600  0.3084  0.1733  0.3121
   15CHTO   C86 6059   5.409   1.849   1.534 -0.5023  0.3975 -0.2835
   15CHTO  H158 6060   5.497   1.811   1.477  0.0677  1.1083  0.1115
   15CHTO   C90 6061   5.305   1.887   1.430 -0.2160 -0.4133  0.6983
   15CHTO   O60 6062   5.277   1.769   1.351  0.0092 -0.1767  0.3542
   15CHTO  H138 6063   5.189   1.780   1.319  0.3025 -0.1238 -0.4457
   15CHTO   O50 6064   5.480   1.589   1.741  0.5490 -0.0596  0.1128
   15CHTO   C73 6065   5.467   1.458   1.688 -0.4362 -0.5094 -0.2489
   15CHTO  H145 6066   5.386   1.453   1.614 -0.0371 -0.0513 -0.7170
   15CHTO   C74 6067   5.439   1.351   1.802 -0.1633  0.1511  1.1878
   15CHTO  H146 6068   5.343   1.380   1.848 -0.8765 -0.6212  0.1916
   15CHTO   O54 6069   5.414   1.220   1.758  0.1910 -0.2164 -0.0885
   15CHTO  H133 6070   5.326   1.212   1.725 -0.0086 -1.5957  0.7407
   15CHTO   C75 6071   5.557   1.360   1.906 -0.3648 -0.7664  0.4049
   15CHTO  H147 6072   5.570   1.464   1.939  0.1925 -0.3209 -1.1615
   15CHTO   N13 6073   5.539   1.283   2.029  0.1832 -0.1100  0.0211
   15CHTO  H139 6074   5.496   1.354   2.098  0.8942  1.0757 -0.7549
   15CHTO  H140 6075   5.633   1.255   2.074 -0.7963 -2.4998  0.7246
   15CHTO   C76 6076   5.688   1.317   1.831 -0.9784 -0.2339  0.0648
   15CHTO  H148 6077   5.689   1.218   1.786  1.8639 -0.0183 -0.4752
   15CHTO   O49 6078   5.707   1.407   1.715 -0.0752 -0.2181  0.1006
   15CHTO   C77 6079   5.596   1.418   1.615  0.1366 -0.1821 -0.3179
   15CHTO  H149 6080   5.580   1.324   1.561  1.0774 -0.8154  0.4991
   15CHTO   C88 6081   5.650   1.521   1.511 -0.0074 -0.2045  0.1911
   15CHTO   O58 6082   5.540   1.550   1.416 -0.4350 -0.2066  0.5129
   15CHTO  H136 6083   5.570   1.606   1.348 -1.0421 -0.1592  0.2733
   15CHTO   O51 6084   5.828   1.350   1.924  0.3806  0.0600 -0.4310
   15CHTO   C78 6085   5.966   1.293   1.864 -0.2653 -0.1373  0.6556
   15CHTO  H150 6086   5.957   1.274   1.755 -2.6966  1.3056  0.5710
   15CHTO   C80 6087   6.007   1.158   1.930  0.1366 -0.2579  0.0783
   15CHTO  H152 6088   6.028   1.173   2.038 -0.4471  0.1023  0.1431
   15CHTO   O55 6089   5.886   1.083   1.915 -0.0528 -0.0002 -0.2494
   15CHTO  H134 6090   5.837   1.077   1.995 -1.7603 -1.2776 -1.3429
   15CHTO   C84 6091   6.133   1.100   1.849  0.6961  0.0990 -0.4734
   15CHTO  H156 6092   6.093   1.085   1.748 -1.4258 -0.1560  0.3776
   15CHTO   N15 6093   6.191   0.963   1.886  0.4184 -0.6164  0.6102
   15CHTO  H143 6094   6.291   0.966   1.925  0.7976  1.5684 -0.4332
   15CHTO  H144 6095   6.184   0.896   1.802 -1.0454  1.6134 -1.0930
   15CHTO   C87 6096   6.245   1.205   1.859 -0.8508  0.2444 -0.6167
   15CHTO  H159 6097   6.280   1.223   1.960  1.0628  2.1182 -1.5567
   15CHTO   O53 6098   6.193   1.350   1.789  0.3107 -0.2537  0.1089
   15CHTO   C82 6099   6.074   1.405   1.860 -0.4082  0.3034 -0.0634
   15CHTO  H154 6100   6.092   1.450   1.957 -2.2208  0.6121  0.1588
   15CHTO   C89 6101   6.010   1.515   1.766 -0.0028 -0.5410 -0.4184
   15CHTO   O59 6102   6.059   1.645   1.796  0.0987  0.3629 -0.0146
   15CHTO  H137 6103   6.060   1.689   1.879  0.7207  0.3956 -0.0344
   15CHTO   O45 6104   6.388   1.149   1.752  0.1683  0.0622  0.1142
   15CHTO   C67 6105   6.496   1.239   1.745 -0.1487 -0.5182  0.4356
   15CHTO  H124 6106   6.468   1.345   1.743  0.6388 -0.3338 -2.5151
   15CHTO   C65 6107   6.596   1.222   1.866 -0.4484  0.5591 -0.2723
   15CHTO  H122 6108   6.583   1.120   1.901  0.3589  0.0635 -1.3767
   15CHTO   O44 6109   6.546   1.310   1.970  0.1381  0.6316 -0.0674
   15CHTO  H102 6110   6.559   1.277   2.057 -3.6077 -3.6680 -0.9299
   15CHTO   C63 6111   6.750   1.247   1.831  0.0326 -0.0086  0.2647
   15CHTO  H120 6112   6.784   1.153   1.787  1.3183 -0.6062  2.4361
   15CHTO   N11 6113   6.845   1.250   1.952  0.1410 -1.0142  0.1463
   15CHTO  H108 6114   6.832   1.338   2.011 -2.2129 -2.6439  2.1290
   15CHTO  H109 6115   6.944   1.237   1.911 -0.1354  0.2618 -0.9426
   15CHTO   C61 6116   6.759   1.356   1.722  0.0811  0.0506  0.1380
   15CHTO  H118 6117   6.867   1.373   1.704  0.7041  0.8184  4.1715
   15CHTO   O40 6118   6.691   1.318   1.596 -0.1835 -0.4118 -0.1723
   15CHTO   C68 6119   6.574   1.225   1.603 -0.0346 -0.3576 -0.5158
   15CHTO  H125 6120   6.624   1.126   1.596  3.8114  1.4479  0.3065
   15CHTO   C72 6121   6.488   1.241   1.478  0.6822 -0.0258 -0.4605
   15CHTO   O48 6122   6.427   1.369   1.462 -0.1676 -0.8183 -0.2159
   15CHTO  H105 6123   6.333   1.368   1.459 -0.2896  1.3233  1.1479
   15CHTO   O38 6124   6.715   1.478   1.781  0.0135 -0.0290  0.3439
   15CHTO   C55 6125   6.670   1.600   1.719  0.4364  0.4399  0.2295
   15CHTO  H112 6126   6.592   1.563   1.652  0.7351 -0.1169  0.1835
   15CHTO   C56 6127   6.793   1.665   1.640  0.1201 -0.2102  0.1048
   15CHTO  H113 6128   6.878   1.665   1.709 -2.0328 -1.8793  2.8409
   15CHTO   O42 6129   6.825   1.582   1.524 -0.7598  0.3874 -0.6097
   15CHTO  H100 6130   6.897   1.614   1.474  1.1747 -2.9525 -0.1408
   15CHTO   C57 6131   6.756   1.815   1.596  0.4687  0.1270 -0.5716
   15CHTO  H114 6132   6.689   1.812   1.510 -0.3995  0.5101  0.0825
   15CHTO   N10 6133   6.884   1.885   1.562  0.1000 -0.5143  0.2147
   15CHTO  H106 6134   6.867   1.992   1.567  0.4857 -0.5025  1.6506
   15CHTO  H107 6135   6.901   1.856   1.460 -2.6744 -1.1468 -0.0960
   15CHTO   C58 6136   6.681   1.891   1.708  0.3733 -0.2047 -0.2782
   15CHTO  H115 6137   6.745   1.905   1.798 -1.1158 -2.0934  1.1331
   15CHTO   O37 6138   6.565   1.818   1.755 -0.1898 -0.5325 -0.2676
   15CHTO   C59 6139   6.605   1.701   1.823  0.2820  0.5401 -0.0909
   15CHTO  H116 6140   6.668   1.723   1.909 -2.3012 -1.5628  2.4534
   15CHTO   C70 6141   6.477   1.624   1.876  0.2477  0.3224 -0.4844
   15CHTO   O46 6142   6.418   1.699   1.984  0.4582  0.2831 -0.0121
   15CHTO  H103 6143   6.401   1.788   1.960  0.6900  0.0809 -0.9465
   15CHTO   O39 6144   6.652   2.047   1.648  0.0045 -0.1523 -0.1160
   15CHTO   C60 6145   6.554   2.068   1.544 -0.2552 -0.0716 -0.0885
   15CHTO  H117 6146   6.570   1.990   1.469 -0.1654  1.0608 -1.2779
   15CHTO   C62 6147   6.403   2.058   1.597 -0.0069  0.6179  0.5777
   15CHTO  H119 6148   6.384   1.951   1.619 -1.1545  0.5043 -0.9107
   15CHTO   O43 6149   6.394   2.134   1.723 -0.7453  0.7159 -0.3520
   15CHTO  H101 6150   6.469   2.111   1.776 -0.8132 -0.4560 -0.7434
   15CHTO   C66 6151   6.295   2.114   1.493  0.6085 -0.0197  0.3172
   15CHTO  H123 6152   6.286   2.045   1.409 -2.5344  0.6112  0.0711
   15CHTO   N12 6153   6.154   2.113   1.550 -0.2397 -0.7779  0.0148
   15CHTO  H110 6154   6.117   2.012   1.556 -0.5493 -0.7709 -1.4652
   15CHTO  H111 6155   6.167   2.149   1.651 -1.7511  0.9505 -0.3800
   15CHTO   C69 6156   6.334   2.252   1.434 -0.3616  0.5019 -0.3394
   15CHTO  H126 6157   6.327   2.324   1.518 -2.5744  0.3174 -0.3289
   15CHTO   O41 6158   6.488   2.240   1.387 -0.2160 -0.0591  0.0118
   15CHTO   C64 6159   6.590   2.200   1.478  0.3460 -1.3779  0.3265
   15CHTO  H121 6160   6.612   2.266   1.564 -1.0640 -5.1152  3.7417
   15CHTO   C71 6161   6.731   2.192   1.410 -0.3168  0.4906  0.0288
   15CHTO   O47 6162   6.716   2.121   1.285  0.4396 -0.0632 -0.3997
   15CHTO  H104 6163   6.800   2.131   1.245  0.0247  0.9678 -1.0080
   15CHTO   O34 6164   6.241   2.298   1.299 -0.0460 -0.1403 -0.1296
   15CHTO   C49 6165   6.230   2.400   1.172 -1.3266  1.4732  0.2211
   15CHTO   H91 6166   6.276   2.360   1.082 -1.0007  3.1067 -0.3614
   15CHTO   C47 6167   6.303   2.532   1.192 -0.6013 -0.1903  0.3463
   15CHTO   H89 6168   6.289   2.591   1.099 -1.0938  1.1774  1.2689
   15CHTO   O33 6169   6.444   2.511   1.217  0.2318  0.5618  0.3348
   15CHTO   H70 6170   6.485   2.440   1.171 -1.0824 -0.1227  0.2118
   15CHTO   C45 6171   6.233   2.620   1.305 -0.1114 -0.0839  0.3141
   15CHTO   H87 6172   6.221   2.555   1.394 -2.7011 -0.9014 -0.5801
   15CHTO    N8 6173   6.308   2.742   1.346  0.5638  0.4002 -0.0828
   15CHTO   H75 6174   6.247   2.805   1.409 -1.6066  1.3441 -3.0096
   15CHTO   H76 6175   6.330   2.793   1.252 -2.0749  1.0911 -0.3731
   15CHTO   C43 6176   6.080   2.651   1.254  0.3887 -0.3717  0.0434
   15CHTO   H85 6177   6.023   2.705   1.329 -0.5510 -1.5127  0.1682
   15CHTO   O29 6178   6.016   2.525   1.224  0.1774 -0.3525 -0.5015
   15CHTO   C50 6179   6.082   2.427   1.141  0.7617 -0.9565 -0.0742
   15CHTO   H92 6180   6.026   2.332   1.150  0.9270 -0.8247  2.5253
   15CHTO   C54 6181   6.054   2.446   0.996  0.2888  0.4442  0.1359
   15CHTO   O36 6182   5.917   2.427   0.961 -0.1318  0.1953 -0.6450
   15CHTO   H72 6183   5.911   2.367   0.889 -2.8517  0.3967 -0.6236
   15CHTO   O27 6184   6.077   2.739   1.137 -0.1472  0.0330 -0.2104
   15CHTO   C37 6185   5.988   2.800   1.041 -0.1987 -0.2499 -0.4899
   15CHTO   H79 6186   5.953   2.723   0.971 -0.4341  2.2162 -3.1622
   15CHTO   C38 6187   5.864   2.863   1.118  0.3449 -0.5426  0.2398
   15CHTO   H80 6188   5.897   2.905   1.214 -0.4064  0.5673  0.0182
   15CHTO   O31 6189   5.778   2.747   1.153  0.3046 -0.1179 -0.1645
   15CHTO   H68 6190   5.816   2.662   1.142 -0.3769 -0.3715 -0.5643
   15CHTO   C39 6191   5.791   2.967   1.030  0.2770 -0.4663  0.1016
   15CHTO   H81 6192   5.730   2.913   0.957  1.5427  0.1847 -1.4661
   15CHTO    N7 6193   5.695   3.046   1.110  0.5415  0.3932  0.1306
   15CHTO   H73 6194   5.643   3.113   1.043 -3.2846 -1.4343  1.1187
   15CHTO   H74 6195   5.745   3.097   1.190  0.5969  0.5942 -0.0334
   15CHTO   C40 6196   5.883   3.061   0.940  0.0151 -1.3325  0.4034
   15CHTO   H82 6197   5.931   3.126   1.014  2.1729 -0.5999 -1.5629
   15CHTO   O26 6198   5.981   2.986   0.871 -0.2237 -0.0496 -0.5419
   15CHTO   C41 6199   6.065   2.907   0.951 -0.2051  0.1551 -0.6991
   15CHTO   H83 6200   6.123   2.984   1.003 -1.6196  0.6874  0.0992
   15CHTO   C52 6201   6.174   2.834   0.864  0.6287  0.3528  0.2213
   15CHTO   O35 6202   6.127   2.725   0.779 -0.4711  0.7218 -0.1041
   15CHTO   H71 6203   6.188   2.694   0.715 -1.2244 -1.5463  0.2410
   15CHTO   O28 6204   5.806   3.139   0.846  0.2791 -0.0178  0.6552
   15CHTO   C42 6205   5.857   3.266   0.789  0.1223  0.1630  0.1790
   15CHTO   H84 6206   5.824   3.255   0.686  0.8396 -2.1197  0.1605
   15CHTO   C44 6207   6.010   3.299   0.787  0.2607 -0.1574 -0.0642
   15CHTO   H86 6208   6.046   3.279   0.889  0.5334 -0.9562 -0.3073
   15CHTO   O32 6209   6.071   3.196   0.711  0.0604 -0.5318  0.2049
   15CHTO   H69 6210   6.159   3.182   0.742  0.2783  1.3186  0.4729
   15CHTO   C48 6211   6.047   3.438   0.731 -0.5050  0.3198  0.1289
   15CHTO   H90 6212   6.023   3.438   0.624 -3.8925  2.3195  0.8278
   15CHTO    N9 6213   6.194   3.469   0.733 -0.5310  0.3144  0.4886
   15CHTO   H77 6214   6.260   3.383   0.737  0.5986  0.9863 -2.3968
   15CHTO   H78 6215   6.217   3.525   0.644  0.0529  0.2593  0.6013
   15CHTO   C51 6216   5.955   3.537   0.812  0.3239 -0.3866  0.2599
   15CHTO   H93 6217   5.984   3.539   0.917  0.7160  0.7102  0.1305
   15CHTO   O30 6218   5.819   3.495   0.795  0.3689 -0.2052 -0.2070
   15CHTO   C46 6219   5.782   3.382   0.858  0.3728  0.5220 -0.1799
   15CHTO   H88 6220   5.828   3.393   0.956 -1.6959  2.3555  0.6363
   15CHTO   C53 6221   5.627   3.374   0.857  0.1756 -0.2606 -1.1884
   15CHTO   O72 6222   5.566   3.482   0.924  0.1764  0.2825 -0.2671
   15CHTO  H199 6223   5.555   3.459   1.015 -0.2460 -2.6051 -0.9984
   15CHTO   O22 6224   5.964   3.667   0.755 -0.1809 -0.3975 -0.1316
   15CHTO   C31 6225   5.926   3.798   0.824 -0.1979  0.0299  0.2561
   15CHTO   H59 6226   5.945   3.882   0.754  0.2677 -0.6962 -0.5039
   15CHTO   C29 6227   5.778   3.805   0.865 -0.3681  0.5950  0.2021
   15CHTO   H57 6228   5.752   3.716   0.925  1.9072 -0.8836 -0.9479
   15CHTO   O21 6229   5.696   3.791   0.749  0.1500 -0.4431  0.0522
   15CHTO   H37 6230   5.707   3.707   0.709  0.2304 -0.6171  0.4400
   15CHTO   C27 6231   5.732   3.928   0.951  0.2954 -0.3509 -0.8764
   15CHTO   H55 6232   5.733   4.015   0.884  0.0142  1.6101  1.6076
   15CHTO    N5 6233   5.600   3.921   1.009 -0.2480 -0.0825  0.0909
   15CHTO   H43 6234   5.517   3.935   0.941 -0.7932 -2.3359  0.2627
   15CHTO   H44 6235   5.589   4.001   1.081 -2.0626  0.2182 -0.4728
   15CHTO   C25 6236   5.839   3.967   1.054  0.3724 -0.2716  0.1397
   15CHTO   H53 6237   5.824   3.896   1.137  0.2435 -0.9021 -0.4176
   15CHTO   O17 6238   5.967   3.957   1.002 -0.1514  0.2734 -0.6357
   15CHTO   C32 6239   5.999   3.829   0.954 -0.1525 -0.1439  0.9089
   15CHTO   H60 6240   5.989   3.747   1.025 -0.0219  0.1623  1.2823
   15CHTO   C36 6241   6.155   3.827   0.934  0.5341 -0.1105  0.4057
   15CHTO   O25 6242   6.228   3.873   1.050 -0.6308  0.1509 -0.0787
   15CHTO   H40 6243   6.189   3.826   1.121 -0.8255 -0.3466 -0.5032
   15CHTO   O15 6244   5.804   4.113   1.097 -0.2221  0.1141 -0.5222
   15CHTO   C19 6245   5.858   4.234   1.162  0.6833 -0.2445  0.4055
   15CHTO   H47 6246   5.967   4.220   1.156  0.8410  0.5679  1.2874
   15CHTO   C20 6247   5.833   4.377   1.103 -0.5938  0.4089 -0.4739
   15CHTO   H48 6248   5.726   4.405   1.102 -0.9269 -0.8302 -0.4723
   15CHTO   O19 6249   5.877   4.374   0.968  0.3867  0.1791 -1.1244
   15CHTO   H35 6250   5.858   4.457   0.928  1.2052  0.6703 -0.4942
   15CHTO   C21 6251   5.925   4.478   1.187  0.7174 -0.3346  0.6590
   15CHTO   H49 6252   6.026   4.437   1.192  0.5464 -0.6686  1.5074
   15CHTO    N4 6253   5.936   4.620   1.134  0.0787  0.4377  0.4334
   15CHTO   H41 6254   6.042   4.635   1.121  0.1685 -0.0941  0.5345
   15CHTO   H42 6255   5.902   4.692   1.206  1.2389 -0.8993  2.3730
   15CHTO   C22 6256   5.867   4.472   1.334 -0.1733  0.2562 -0.1595
   15CHTO   H50 6257   5.760   4.482   1.316 -0.7559 -1.6429  1.9953
   15CHTO   O14 6258   5.893   4.336   1.377  0.0836  0.4523 -0.2489
   15CHTO   C23 6259   5.819   4.241   1.307  1.1101  0.7338  1.0675
   15CHTO   H51 6260   5.715   4.276   1.316 -0.1478 -1.4132 -3.7730
   15CHTO   C34 6261   5.833   4.104   1.384 -0.3664 -0.2409 -0.6131
   15CHTO   O23 6262   5.763   4.112   1.504  0.4661  0.3250 -0.6654
   15CHTO   H38 6263   5.677   4.081   1.482  1.4970 -1.9891 -1.6293
   15CHTO   O16 6264   5.898   4.566   1.439  0.3240 -0.3426  0.3326
   15CHTO   C24 6265   6.022   4.512   1.556 -0.1977  0.4503 -0.1117
   15CHTO   H52 6266   6.094   4.445   1.510 -1.7756 -0.8543 -0.7493
   15CHTO   C26 6267   5.961   4.446   1.682 -0.6493  0.2813  0.3043
   15CHTO   H54 6268   5.898   4.519   1.737  0.0255  0.5673  0.7022
   15CHTO   O20 6269   5.879   4.332   1.655  0.3502 -0.4822  0.0295
   15CHTO   H36 6270   5.841   4.327   1.569 -0.3489 -1.3797  0.3826
   15CHTO   C30 6271   6.071   4.400   1.782 -0.7718 -0.3873 -0.1455
   15CHTO   H58 6272   6.133   4.327   1.727  2.2959  4.1742 -3.1111
   15CHTO    N6 6273   6.024   4.335   1.908 -0.3495  0.3038 -0.0221
   15CHTO   H45 6274   6.084   4.259   1.957  0.1207 -0.2620 -1.4185
   15CHTO   H46 6275   5.924   4.299   1.893 -0.7787  1.6695 -0.4861
   15CHTO   C33 6276   6.162   4.516   1.815  0.1984  0.1970  0.0051
   15CHTO   H61 6277   6.108   4.589   1.878 -0.1633  0.6118 -0.7695
   15CHTO   O18 6278   6.202   4.594   1.698  0.6636  0.0624  0.4050
   15CHTO   C28 6279   6.097   4.635   1.599  0.3746  0.1203 -0.3565
   15CHTO   H56 6280   6.023   4.702   1.643  1.0930 -0.4133  1.7027
   15CHTO   C35 6281   6.161   4.697   1.479 -0.4170 -0.3215  0.5477
   15CHTO   O24 6282   6.254   4.799   1.516  0.5379  0.0631  0.4112
   15CHTO   H39 6283   6.279   4.853   1.443  0.9627 -2.0615 -1.0562
   15CHTO    O9 6284   6.276   4.480   1.892  0.2628  0.5371  0.0813
   15CHTO   C13 6285   6.294   4.552   2.032 -0.7102 -0.2474  0.4096
   15CHTO   H26 6286   6.200   4.532   2.088 -1.7140  0.9899 -0.7705
   15CHTO   C11 6287   6.319   4.714   2.010 -0.0308 -0.0983  0.1225
   15CHTO   H24 6288   6.219   4.760   2.001  0.2052  0.2726 -0.6823
   15CHTO    O8 6289   6.402   4.738   1.894 -0.3371  0.6714  0.0677
   15CHTO    H3 6290   6.389   4.826   1.866  2.4373  1.3449  0.7702
   15CHTO    C9 6291   6.389   4.775   2.137  0.7223 -0.2046  0.2507
   15CHTO   H22 6292   6.320   4.756   2.221  1.1475  2.1331  1.1663
   15CHTO    N2 6293   6.393   4.924   2.141 -0.1236  0.2609  0.0326
   15CHTO   H10 6294   6.444   4.960   2.230 -3.3266 -0.4858  2.2454
   15CHTO   H11 6295   6.439   4.964   2.052 -1.2144 -0.1767 -0.7353
   15CHTO    C7 6296   6.526   4.696   2.166  0.1169  0.4038 -0.2609
   15CHTO   H20 6297   6.529   4.691   2.277 -0.0942  2.3225 -0.1522
   15CHTO    O4 6298   6.522   4.562   2.125  0.3660 -0.1046  0.1724
   15CHTO   C14 6299   6.404   4.486   2.125 -0.1355 -0.1557  0.5032
   15CHTO   H27 6300   6.356   4.480   2.225 -0.2387  0.0304  0.4654
   15CHTO   C18 6301   6.427   4.343   2.079 -0.3823  0.4402 -0.8307
   15CHTO   O13 6302   6.312   4.266   2.101 -0.4878  0.4273  0.3432
   15CHTO    H7 6303   6.334   4.189   2.051  0.0265  1.3564 -0.8976
   15CHTO    O2 6304   6.662   4.767   2.100  0.4349  0.3601 -0.1717
   15CHTO    C1 6305   6.785   4.709   2.154 -0.3063 -0.1533  0.7169
   15CHTO   H14 6306   6.768   4.603   2.183  2.0366 -1.0416 -0.9684
   15CHTO    C2 6307   6.823   4.791   2.284  0.2029 -0.3714 -0.7747
   15CHTO   H15 6308   6.793   4.893   2.259 -0.3729 -0.1782  0.7019
   15CHTO    O6 6309   6.743   4.749   2.397  0.1577 -0.7810 -0.5705
   15CHTO    H1 6310   6.768   4.800   2.471  0.4126 -1.0890 -0.4448
   15CHTO    C3 6311   6.977   4.774   2.323 -0.6831 -0.3375 -0.3408
   15CHTO   H16 6312   6.995   4.685   2.384 -0.5446  0.4763  0.8171
   15CHTO    N1 6313   7.013   4.879   2.423  0.3784  0.4038 -0.7064
   15CHTO    H8 6314   6.987   4.978   2.390 -1.6122  0.8201  1.9147
   15CHTO    H9 6315   6.966   4.860   2.519  2.3479 -3.6105 -0.4017
   15CHTO    C4 6316   7.073   4.774   2.203 -0.3029  0.2868 -0.8576
   15CHTO   H17 6317   7.081   4.876   2.164  0.4624  0.9311  0.9090
   15CHTO    O1 6318   7.020   4.681   2.101  0.1334  0.0159  0.1062
   15CHTO    C5 6319   6.895   4.713   2.043  0.8396 -0.2792 -0.3745
   15CHTO   H18 6320   6.888   4.814   2.003  1.9067  0.7821  2.0438
   15CHTO   C16 6321   6.882   4.608   1.928 -0.7618 -0.5357 -0.0903
   15CHTO   O11 6322   6.752   4.601   1.879 -0.3452 -0.1392  0.6603
   15CHTO    H5 6323   6.711   4.517   1.890  1.0477 -1.1116 -1.2525
   15CHTO    O3 6324   7.198   4.723   2.251  0.3019  0.3557 -0.1886
   15CHTO    C6 6325   7.316   4.798   2.212  0.0528  0.8514 -0.1904
   15CHTO   H19 6326   7.295   4.879   2.142 -0.4515  1.0915  0.2363
   15CHTO    C8 6327   7.387   4.879   2.329 -0.4090  0.6491  0.0105
   15CHTO   H21 6328   7.393   4.811   2.414 -2.5366 -0.7360 -0.9190
   15CHTO    O7 6329   7.309   4.988   2.370 -0.0221 -0.2237 -0.5465
   15CHTO    H2 6330   7.346   5.040   2.440  0.3219  0.1316 -0.9915
   15CHTO   C12 6331   7.529   4.929   2.293  0.2764  0.1295  0.5928
   15CHTO   H25 6332   7.505   5.008   2.219 -1.8485  0.8984  2.0445
   15CHTO    N3 6333   7.606   4.989   2.406 -0.0608  0.2203 -0.2965
   15CHTO   H12 6334   7.665   4.916   2.460  1.7165  1.5490 -0.3926
   15CHTO   H13 6335   7.534   5.045   2.464  0.5837 -0.1069  0.8477
   15CHTO   C15 6336   7.607   4.818   2.215  0.2301 -0.0158  0.2056
   15CHTO   H28 6337   7.633   4.732   2.276  0.8001 -0.5870 -0.8194
   15CHTO   O10 6338   7.731   4.866   2.148 -0.6697  0.0009  0.1742
   15CHTO    H4 6339   7.779   4.915   2.212 -2.2048  1.9901 -0.1618
   15CHTO    O5 6340   7.532   4.769   2.101 -0.7391 -0.2477  0.1553
   15CHTO   C10 6341   7.412   4.701   2.135  0.6881  0.2304  0.4762
   15CHTO   H23 6342   7.441   4.614   2.193 -1.1033 -0.3826  0.4869
   15CHTO   C17 6343   7.338   4.656   2.005 -0.2795 -0.1490 -0.0962
   15CHTO   O12 6344   7.424   4.576   1.918  0.3864  0.2647  0.0651
   15CHTO    H6 6345   7.475   4.629   1.860 -1.0065  0.6722 -0.8035
   16CHTO  H203 6346   3.900   3.766   0.826 -1.1314  1.3394 -1.0490
   16CHTO   O82 6347   3.986   3.792   0.800 -0.4293  0.2415  0.0856
   16CHTO  C123 6348   4.079   3.688   0.834 -0.2205 -0.0452 -0.5360
   16CHTO  H227 6349   4.055   3.601   0.772  0.6282 -0.1380 -0.7455
   16CHTO   O77 6350   4.219   3.731   0.808 -0.1059  0.1861 -0.3743
   16CHTO  C118 6351   4.332   3.653   0.858  0.3191  0.1369 -0.0794
   16CHTO  H222 6352   4.329   3.555   0.808  2.9724 -0.8928  1.7283
   16CHTO  C125 6353   4.466   3.729   0.807 -0.0471  0.1511  0.2975
   16CHTO   O84 6354   4.476   3.861   0.873 -0.4574 -0.2965  0.1768
   16CHTO  H205 6355   4.546   3.913   0.839 -0.6479  0.4197  0.8449
   16CHTO  C114 6356   4.320   3.631   1.011  0.8878  0.6932 -0.4370
   16CHTO  H218 6357   4.319   3.725   1.067 -0.6729  1.0181 -0.9883
   16CHTO  C116 6358   4.185   3.563   1.049 -0.3457  0.0008  0.4724
   16CHTO  H220 6359   4.198   3.462   1.005  0.7193 -0.4005  1.6677
   16CHTO   O79 6360   4.167   3.538   1.190  0.4340  0.2504 -0.5659
   16CHTO  H201 6361   4.251   3.530   1.230  1.2367  0.8831 -2.1173
   16CHTO  C120 6362   4.059   3.641   0.988  0.9376  0.3950 -0.1765
   16CHTO  H224 6363   4.045   3.735   1.045  0.4534  0.1064  0.1811
   16CHTO   N21 6364   3.937   3.562   1.007  0.4968 -0.6816 -0.2004
   16CHTO  H211 6365   3.902   3.555   1.109  0.0403 -0.5709 -0.3458
   16CHTO  H212 6366   3.966   3.466   0.966  0.9695 -0.8989  0.6464
   16CHTO   O75 6367   4.435   3.554   1.044  0.8056  0.1165 -0.6013
   16CHTO  C112 6368   4.505   3.600   1.164 -0.1307  0.4768  0.1365
   16CHTO  H216 6369   4.438   3.659   1.229  1.7175  1.4078  1.2321
   16CHTO   O73 6370   4.613   3.682   1.112  0.1739 -0.3686 -0.1762
   16CHTO  C113 6371   4.706   3.739   1.203 -0.0371  0.2712  0.1483
   16CHTO  H217 6372   4.649   3.786   1.286 -1.4941 -0.7786 -0.2273
   16CHTO  C124 6373   4.790   3.846   1.129  0.3218 -0.3270  0.2923
   16CHTO   O83 6374   4.765   3.969   1.192  0.1000 -0.0757 -0.1706
   16CHTO  H204 6375   4.839   4.003   1.239 -1.6505  0.4469  2.3186
   16CHTO  C109 6376   4.787   3.629   1.274  0.0500 -0.2559 -0.1655
   16CHTO  H213 6377   4.851   3.576   1.202  0.8784 -0.6365  0.8311
   16CHTO  C110 6378   4.683   3.529   1.347  0.1417 -0.1262  0.0438
   16CHTO  H214 6379   4.641   3.587   1.429  1.5274  0.3704  0.4255
   16CHTO   O78 6380   4.763   3.415   1.387  0.0854  0.2893  0.0108
   16CHTO  H200 6381   4.719   3.333   1.378  1.6816 -0.1808 -5.0514
   16CHTO  C111 6382   4.574   3.483   1.248  0.0956  0.4959 -0.4898
   16CHTO  H215 6383   4.629   3.422   1.175  1.0191  1.4875 -0.6336
   16CHTO   N19 6384   4.475   3.399   1.319  0.5685  0.6826 -0.3873
   16CHTO  H207 6385   4.445   3.316   1.257  1.2800 -1.3589  1.9073
   16CHTO  H208 6386   4.388   3.460   1.337  0.8999  0.2434  2.9152
   16CHTO   O74 6387   4.878   3.683   1.375  0.5008  0.2706  0.0584
   16CHTO  C115 6388   5.045   3.694   1.318 -0.1620  0.3500  0.0505
   16CHTO  H219 6389   5.059   3.637   1.227  4.1906 -0.4246  1.1030
   16CHTO   O76 6390   5.089   3.853   1.290 -0.4618 -0.1084  0.0564
   16CHTO  C122 6391   5.226   3.880   1.255  0.2794  0.7205  0.6611
   16CHTO  H226 6392   5.245   3.987   1.256  2.6310  0.3427 -0.9773
   16CHTO  C126 6393   5.253   3.833   1.109 -0.0369  0.0187  0.3577
   16CHTO   O85 6394   5.155   3.885   1.023  0.5063 -0.1114 -0.0203
   16CHTO  H206 6395   5.071   3.878   1.065  0.7196  0.7260  0.5526
   16CHTO  C121 6396   5.326   3.808   1.355  0.2367  0.1607 -0.3651
   16CHTO  H225 6397   5.430   3.810   1.315  0.6504 -2.9160  0.4190
   16CHTO   O81 6398   5.306   3.880   1.480  0.6706  0.2566  0.5406
   16CHTO  H202 6399   5.358   3.845   1.551 -2.5084 -2.5920  1.6089
   16CHTO  C119 6400   5.299   3.656   1.386 -0.0445  0.0434 -0.2203
   16CHTO  H223 6401   5.315   3.603   1.292 -1.5767  1.2591 -1.2010
   16CHTO  C117 6402   5.149   3.633   1.425  0.7607  0.3987 -0.0601
   16CHTO  H221 6403   5.117   3.683   1.516 -0.1882 -2.3877  1.2080
   16CHTO   N20 6404   5.117   3.489   1.455 -0.5517  0.2247 -0.3224
   16CHTO  H209 6405   5.010   3.480   1.468 -0.1338 -3.0082  1.4474
   16CHTO  H210 6406   5.160   3.432   1.374 -1.1193  0.5229 -0.8378
   16CHTO   O80 6407   5.397   3.592   1.477  0.8155 -0.3167 -0.0822
   16CHTO  C103 6408   5.565   3.618   1.458 -0.1574  0.3530  0.7832
   16CHTO  H190 6409   5.579   3.672   1.364 -1.9120  0.9258  0.8413
   16CHTO  C101 6410   5.638   3.695   1.573  0.6003 -0.3306 -0.9042
   16CHTO  H188 6411   5.587   3.656   1.661  2.2408 -2.8687 -1.0304
   16CHTO   O68 6412   5.604   3.845   1.560 -0.2724  0.8080 -0.4102
   16CHTO  H168 6413   5.517   3.857   1.527 -0.3790  0.3292 -0.2954
   16CHTO   C99 6414   5.795   3.663   1.574  0.4867  0.4318  0.0315
   16CHTO  H186 6415   5.835   3.721   1.488  0.6885 -0.4150 -0.4465
   16CHTO   N17 6416   5.869   3.724   1.690 -0.0007  0.1984  0.1877
   16CHTO  H174 6417   5.866   3.832   1.685 -2.8114  0.0874 -1.1936
   16CHTO  H175 6418   5.974   3.702   1.677 -0.0731 -0.1282  0.1534
   16CHTO   C97 6419   5.815   3.513   1.538  0.6125  0.2321  0.0853
   16CHTO  H184 6420   5.776   3.458   1.625  1.1835  1.2739  1.0014
   16CHTO   O64 6421   5.762   3.470   1.416 -0.5663 -0.2595 -0.2346
   16CHTO  C104 6422   5.619   3.469   1.434  0.2901  0.0261  0.0554
   16CHTO  H191 6423   5.574   3.404   1.510 -0.4845  2.0714  1.3777
   16CHTO  C108 6424   5.554   3.427   1.301  0.1339  0.9729 -0.1580
   16CHTO   O71 6425   5.416   3.380   1.307  0.0425  0.1163 -0.1691
   16CHTO  H171 6426   5.405   3.287   1.304  0.0226  0.0789  0.7195
   16CHTO   O62 6427   5.955   3.485   1.535 -0.5389 -0.0695  0.2961
   16CHTO   C91 6428   6.019   3.365   1.586 -0.2423  0.1199 -0.7786
   16CHTO  H178 6429   6.123   3.395   1.593  0.1254 -0.7834 -2.2274
   16CHTO   C92 6430   6.010   3.245   1.485 -0.2918 -0.7273 -0.0575
   16CHTO  H179 6431   5.902   3.238   1.465 -0.4235 -0.0295  0.3747
   16CHTO   O66 6432   6.085   3.277   1.358  0.3378 -0.9581 -0.1625
   16CHTO  H166 6433   6.110   3.199   1.312 -4.3991 -1.0266 -2.8739
   16CHTO   C93 6434   6.064   3.107   1.545  0.4828 -0.2908 -0.4697
   16CHTO  H180 6435   6.172   3.123   1.557  0.3520 -0.3383  0.7412
   16CHTO   N16 6436   6.041   2.992   1.453  0.7143  1.1073  0.2678
   16CHTO  H172 6437   5.937   2.972   1.435 -0.2949  4.6056  1.6830
   16CHTO  H173 6438   6.083   2.904   1.499  0.9298  0.5744 -0.9592
   16CHTO   C94 6439   5.993   3.090   1.686 -0.7123 -0.3953  0.7348
   16CHTO  H181 6440   5.884   3.099   1.677 -0.9009 -2.2504  0.8931
   16CHTO   O61 6441   6.035   3.199   1.775  0.5436 -0.0152  1.1351
   16CHTO   C95 6442   5.972   3.326   1.730  0.6776  0.1158 -0.2202
   16CHTO  H182 6443   5.865   3.307   1.722  1.2383 -2.4762 -2.1202
   16CHTO  C106 6444   5.994   3.414   1.852 -0.0077 -0.0308 -0.7325
   16CHTO   O69 6445   6.137   3.451   1.846  0.1259 -0.0081  0.6076
   16CHTO  H169 6446   6.165   3.496   1.924  1.4027  1.1465 -0.5007
   16CHTO   O63 6447   6.044   2.961   1.762 -0.3291 -0.5302  0.7268
   16CHTO   C96 6448   5.934   2.849   1.838 -1.2640  0.2117 -0.0768
   16CHTO  H183 6449   5.988   2.778   1.901  1.0248 -0.3590 -2.6078
   16CHTO   C98 6450   5.864   2.753   1.739 -0.3988 -0.1128  0.1117
   16CHTO  H185 6451   5.816   2.812   1.659  0.5957  0.0391 -0.3772
   16CHTO   O67 6452   5.956   2.662   1.671  0.3086  0.3429 -0.4318
   16CHTO  H167 6453   6.011   2.607   1.724  2.2917 -1.1813 -3.9202
   16CHTO  C102 6454   5.746   2.671   1.815  0.0756  0.0036 -0.2621
   16CHTO  H189 6455   5.791   2.623   1.903  0.3400 -0.3425 -0.5817
   16CHTO   N18 6456   5.686   2.561   1.741 -0.4799  0.1872 -0.1731
   16CHTO  H176 6457   5.750   2.485   1.700  0.0066 -0.4229  1.6910
   16CHTO  H177 6458   5.597   2.522   1.788 -0.5821 -1.9307 -2.0532
   16CHTO  C105 6459   5.651   2.777   1.878  0.3303 -0.0011  0.0872
   16CHTO  H192 6460   5.622   2.850   1.803  0.8413  1.6515  1.4683
   16CHTO   O65 6461   5.719   2.852   1.977 -0.3062 -0.1512  0.0519
   16CHTO  C100 6462   5.825   2.938   1.930 -0.1108  0.1024  0.2640
   16CHTO  H187 6463   5.793   3.014   1.858 -0.7675 -0.6476 -0.2421
   16CHTO  C107 6464   5.899   3.008   2.054  0.4010 -0.2142  0.1315
   16CHTO   O70 6465   5.797   3.052   2.149 -0.4952 -0.2769  0.1378
   16CHTO  H170 6466   5.755   3.129   2.115 -1.4299 -1.5861 -1.7130
   16CHTO   O57 6467   5.509   2.715   1.943 -0.6396  0.3296  0.6797
   16CHTO   C85 6468   5.394   2.799   1.946  0.2310 -0.5610  0.4303
   16CHTO  H157 6469   5.404   2.873   1.864 -0.9609 -0.7826  0.0778
   16CHTO   C83 6470   5.400   2.870   2.087 -0.4454 -0.7192  0.3364
   16CHTO  H155 6471   5.502   2.902   2.109  0.0000 -1.6299 -0.3515
   16CHTO   O56 6472   5.362   2.779   2.196  0.2716 -0.0733  0.1368
   16CHTO  H135 6473   5.373   2.690   2.167  1.7586  0.1745 -0.0923
   16CHTO   C81 6474   5.305   2.988   2.074 -0.0676  0.8270  0.5120
   16CHTO  H153 6475   5.327   3.035   1.978  0.4405 -0.4540 -0.0231
   16CHTO   N14 6476   5.321   3.097   2.174 -0.3760 -0.3138 -0.2174
   16CHTO  H141 6477   5.319   3.054   2.272  1.9285  0.2969  0.1308
   16CHTO  H142 6478   5.241   3.169   2.171  0.9845  1.2349 -0.0090
   16CHTO   C79 6479   5.154   2.933   2.067  0.0808  0.0383  0.1860
   16CHTO  H151 6480   5.090   3.018   2.042 -0.8097 -0.2048  1.5832
   16CHTO   O52 6481   5.146   2.831   1.966  0.0505  0.0429  0.1040
   16CHTO   C86 6482   5.255   2.728   1.941 -0.1092 -0.2918 -0.0584
   16CHTO  H158 6483   5.243   2.658   2.027 -1.2445  0.4614  0.4030
   16CHTO   C90 6484   5.234   2.647   1.809  0.1112 -0.7888 -0.0443
   16CHTO   O60 6485   5.153   2.719   1.719  0.1273 -0.7217 -0.6329
   16CHTO  H138 6486   5.061   2.710   1.737 -0.5273  0.7842 -2.9543
   16CHTO   O50 6487   5.090   2.894   2.194  0.0487 -0.1620 -0.3082
   16CHTO   C73 6488   5.007   2.795   2.255 -0.5619 -0.0376  0.3167
   16CHTO  H145 6489   5.051   2.694   2.261 -2.5246 -0.8563  1.0590
   16CHTO   C74 6490   4.875   2.778   2.162 -0.2271  0.0283  0.0083
   16CHTO  H146 6491   4.911   2.755   2.060  0.1455 -2.4247  0.6484
   16CHTO   O54 6492   4.792   2.670   2.195  0.2511  0.8309  0.0194
   16CHTO  H133 6493   4.735   2.645   2.125 -0.2025 -0.1689  0.7255
   16CHTO   C75 6494   4.793   2.918   2.163  0.1191  1.0042 -0.6174
   16CHTO  H147 6495   4.860   3.001   2.135 -1.0677  1.6593 -1.5445
   16CHTO   N13 6496   4.676   2.926   2.074  0.3505  1.2350 -0.2717
   16CHTO  H139 6497   4.691   2.883   1.976 -1.0313 -0.8021  0.3818
   16CHTO  H140 6498   4.647   3.030   2.075 -1.6259  0.7146  2.2371
   16CHTO   C76 6499   4.754   2.955   2.322  0.2207  0.2712 -0.4071
   16CHTO  H148 6500   4.687   2.875   2.352 -1.2889  0.7342 -2.4008
   16CHTO   O49 6501   4.874   2.955   2.406 -0.0562  0.1495  0.0774
   16CHTO   C77 6502   4.959   2.835   2.396  0.5726 -0.0481  0.1568
   16CHTO  H149 6503   4.895   2.758   2.439 -0.8300 -0.3822 -2.4626
   16CHTO   C88 6504   5.089   2.844   2.480 -0.0003  0.6949 -0.6637
   16CHTO   O58 6505   5.066   2.895   2.618 -0.1005 -0.0579 -0.0221
   16CHTO  H136 6506   5.080   2.988   2.615  1.6775 -0.3402 -0.9622
   16CHTO   O51 6507   4.697   3.094   2.314 -0.6495 -0.4910  0.4167
   16CHTO   C78 6508   4.798   3.228   2.377 -0.6293  0.7620 -0.1905
   16CHTO  H150 6509   4.905   3.197   2.374 -0.8736 -0.4347  2.1141
   16CHTO   C80 6510   4.768   3.265   2.521  0.3086  0.2982  0.1243
   16CHTO  H152 6511   4.662   3.297   2.528 -0.0421 -0.5015 -1.2297
   16CHTO   O55 6512   4.783   3.145   2.600 -0.1675 -0.1956  0.3540
   16CHTO  H134 6513   4.845   3.152   2.670 -1.7703  0.9035  1.7165
   16CHTO   C84 6514   4.861   3.372   2.575 -0.1683 -0.4584 -0.1142
   16CHTO  H156 6515   4.962   3.333   2.573  0.2617  0.6530 -0.3016
   16CHTO   N15 6516   4.835   3.406   2.721 -0.2779 -0.2143 -0.1270
   16CHTO  H143 6517   4.739   3.448   2.742 -1.1741 -1.1448 -2.2130
   16CHTO  H144 6518   4.848   3.312   2.771  2.2403 -0.3520 -0.9625
   16CHTO   C87 6519   4.859   3.496   2.481 -0.1769 -0.0329  0.8421
   16CHTO  H159 6520   4.768   3.555   2.494 -0.1996  0.4166 -1.1430
   16CHTO   O53 6521   4.874   3.447   2.334  0.0557 -0.1283  0.2623
   16CHTO   C82 6522   4.785   3.346   2.284 -0.8130  0.0961  0.5587
   16CHTO  H154 6523   4.686   3.393   2.289 -1.4784 -1.1310 -0.7873
   16CHTO   C89 6524   4.810   3.307   2.140  0.0788  0.2544 -0.5131
   16CHTO   O59 6525   4.948   3.271   2.122 -0.0483 -0.2389  0.0410
   16CHTO  H137 6526   4.986   3.246   2.204 -0.2180 -2.2865 -0.4723
   16CHTO   O45 6527   4.976   3.588   2.527 -0.3114 -0.0226  0.8198
   16CHTO   C67 6528   5.105   3.580   2.458  0.2492 -0.1440 -0.5695
   16CHTO  H124 6529   5.101   3.500   2.384  1.4082  1.7703 -2.8077
   16CHTO   C65 6530   5.134   3.712   2.381 -0.1271 -0.3662  0.3138
   16CHTO  H122 6531   5.046   3.722   2.316 -2.1463 -0.9052  2.8722
   16CHTO   O44 6532   5.251   3.700   2.296  0.1668  0.0636 -0.5915
   16CHTO  H102 6533   5.251   3.777   2.242  0.0892  0.9833  0.7042
   16CHTO   C63 6534   5.136   3.830   2.486  0.6366 -1.1237 -0.2351
   16CHTO  H120 6535   5.042   3.836   2.540  1.1202  0.1904  0.5032
   16CHTO   N11 6536   5.136   3.965   2.425  0.0210  0.4944  0.1360
   16CHTO  H108 6537   5.113   4.048   2.488  1.7471  1.0504  0.0490
   16CHTO  H109 6538   5.086   3.959   2.330 -1.0831  0.4431  0.7095
   16CHTO   C61 6539   5.256   3.796   2.591 -0.3162 -0.6083  0.9108
   16CHTO  H118 6540   5.233   3.858   2.679  4.7009  1.6467  0.8685
   16CHTO   O40 6541   5.263   3.657   2.639 -0.3307  0.5702 -0.5920
   16CHTO   C68 6542   5.220   3.546   2.553 -0.5350  0.3358  0.3595
   16CHTO  H125 6543   5.163   3.475   2.618 -2.3203  1.1636 -0.2562
   16CHTO   C72 6544   5.341   3.468   2.496  0.4393  0.5621  0.4282
   16CHTO   O48 6545   5.419   3.400   2.598  0.3959 -0.3065  0.1684
   16CHTO  H105 6546   5.397   3.309   2.602 -3.5124  0.5257 -0.3972
   16CHTO   O38 6547   5.386   3.828   2.536 -0.1878  0.3859  0.0373
   16CHTO   C55 6548   5.491   3.866   2.628 -0.0383  0.2686  0.8208
   16CHTO  H112 6549   5.467   3.831   2.730  1.5738  0.0174  1.1342
   16CHTO   C56 6550   5.495   4.018   2.619  0.0655 -0.8752  0.0568
   16CHTO  H113 6551   5.481   4.046   2.513  0.9756 -1.1839 -0.1512
   16CHTO   O42 6552   5.379   4.073   2.691  0.2462 -0.1789 -0.5801
   16CHTO  H100 6553   5.369   4.166   2.683  2.9747  0.0343 -2.0357
   16CHTO   C57 6554   5.638   4.086   2.670 -0.3810 -1.2154 -0.2920
   16CHTO  H114 6555   5.618   4.088   2.777 -1.9717  0.8515 -0.5950
   16CHTO   N10 6556   5.660   4.223   2.612 -0.1140  0.3568 -0.8317
   16CHTO  H106 6557   5.627   4.239   2.510  0.0337  0.2396 -0.8987
   16CHTO  H107 6558   5.765   4.244   2.618  0.6241 -3.0583 -0.6578
   16CHTO   C58 6559   5.757   3.989   2.636  0.3014 -0.4505  0.5127
   16CHTO  H115 6560   5.778   3.993   2.527  0.1333 -0.6824  0.4708
   16CHTO   O37 6561   5.732   3.854   2.670 -0.7037 -0.2406 -0.2747
   16CHTO   C59 6562   5.628   3.797   2.590  0.1653  0.2004 -0.3002
   16CHTO  H116 6563   5.640   3.809   2.482  2.5069 -0.7817 -0.1709
   16CHTO   C70 6564   5.633   3.650   2.636  0.0465  0.0182  0.2923
   16CHTO   O46 6565   5.740   3.582   2.567 -0.0867 -0.3616  0.3029
   16CHTO  H103 6566   5.709   3.555   2.483 -0.6241  0.4811  0.2297
   16CHTO   O39 6567   5.889   4.048   2.723 -0.1301 -0.1133  0.3752
   16CHTO   C60 6568   6.008   4.034   2.641 -0.0711 -0.1036 -0.4124
   16CHTO  H117 6569   5.978   3.985   2.548 -0.4848 -1.0433  0.2035
   16CHTO   C62 6570   6.073   4.175   2.616 -0.1198 -0.0622 -0.4727
   16CHTO  H119 6571   5.998   4.247   2.577 -0.6469 -1.1626 -1.5449
   16CHTO   O43 6572   6.123   4.235   2.739  0.0060  0.5397 -0.2432
   16CHTO  H101 6573   6.196   4.180   2.762 -1.9371 -2.1210 -0.1768
   16CHTO   C66 6574   6.182   4.163   2.499  0.0988  0.5168  0.3918
   16CHTO  H123 6575   6.137   4.101   2.421 -0.1222  0.9730  0.1549
   16CHTO   N12 6576   6.233   4.291   2.443 -0.2184  0.0545 -0.2251
   16CHTO  H110 6577   6.158   4.369   2.434  2.7943  3.1231  0.2593
   16CHTO  H111 6578   6.311   4.318   2.512 -0.8401  0.2472  0.4132
   16CHTO   C69 6579   6.301   4.067   2.536  0.4003 -0.0483 -0.2694
   16CHTO  H126 6580   6.374   4.102   2.612  0.9846 -1.9770  0.0913
   16CHTO   O41 6581   6.240   3.921   2.601  0.4312  0.3865  0.4242
   16CHTO   C64 6582   6.120   3.943   2.703  0.3365  0.9045  0.2811
   16CHTO  H121 6583   6.175   3.979   2.792 -0.7450  1.2328  0.8241
   16CHTO   C71 6584   6.068   3.801   2.745 -0.0490  0.0076  0.1708
   16CHTO   O47 6585   6.011   3.740   2.627  0.1200  0.3267 -0.1428
   16CHTO  H104 6586   5.921   3.715   2.638  0.0897  0.5377  0.0742
   16CHTO   O34 6587   6.385   4.018   2.403  0.8147 -0.3245 -0.3724
   16CHTO   C49 6588   6.437   3.904   2.334  0.1692  0.5938  0.1967
   16CHTO   H91 6589   6.406   3.821   2.397 -1.2552  0.3942 -0.7332
   16CHTO   C47 6590   6.591   3.906   2.330  0.8403 -0.8294 -0.0026
   16CHTO   H89 6591   6.632   3.864   2.424 -1.0716  0.3377  1.3911
   16CHTO   O33 6592   6.638   4.043   2.326 -0.2004 -0.0130  0.4188
   16CHTO   H70 6593   6.570   4.102   2.301 -0.1311 -1.2614 -3.0884
   16CHTO   C45 6594   6.656   3.827   2.201  1.6434 -0.3603 -0.1990
   16CHTO   H87 6595   6.654   3.893   2.112  0.2433  3.0944  2.2538
   16CHTO    N8 6596   6.796   3.782   2.224  0.1563  0.0767 -0.7007
   16CHTO   H75 6597   6.840   3.822   2.314 -0.7968 -1.8063  0.6336
   16CHTO   H76 6598   6.849   3.818   2.137 -1.6966 -2.4842 -2.9766
   16CHTO   C43 6599   6.551   3.710   2.155  0.1321  0.1212 -0.0539
   16CHTO   H85 6600   6.591   3.650   2.073  0.1507 -0.5773  0.4723
   16CHTO   O29 6601   6.419   3.760   2.126 -0.2095  0.2211  0.4943
   16CHTO   C50 6602   6.384   3.881   2.191  0.3493  0.5159  0.4336
   16CHTO   H92 6603   6.421   3.965   2.131  1.9910 -1.2029 -1.0278
   16CHTO   C54 6604   6.222   3.892   2.200 -0.6685 -0.0877  0.3487
   16CHTO   O36 6605   6.183   3.942   2.073  0.1051  0.2135 -0.6197
   16CHTO   H72 6606   6.182   4.036   2.076  0.5923  0.1928  0.6515
   16CHTO   O27 6607   6.539   3.615   2.257  0.5118  0.5035 -0.0466
   16CHTO   C37 6608   6.470   3.491   2.284  0.3953 -0.1204 -0.2723
   16CHTO   H79 6609   6.476   3.469   2.392 -1.6492  1.6838  0.2458
   16CHTO   C38 6610   6.316   3.496   2.256  0.9893 -0.1504  0.4913
   16CHTO   H80 6611   6.293   3.556   2.167  0.0321 -1.1637  0.0409
   16CHTO   O31 6612   6.264   3.569   2.364  0.3578  0.1877  0.0431
   16CHTO   H68 6613   6.269   3.661   2.345 -1.2810  0.4529  0.8184
   16CHTO   C39 6614   6.236   3.358   2.257  0.5373  1.0478  0.1734
   16CHTO   H81 6615   6.233   3.322   2.360  0.5402  1.3688  0.2877
   16CHTO    N7 6616   6.091   3.362   2.209  0.0095 -0.3284  0.4196
   16CHTO   H73 6617   6.052   3.455   2.249 -1.8593 -1.7677  2.0357
   16CHTO   H74 6618   6.091   3.350   2.102 -1.6054 -3.0848  0.6773
   16CHTO   C40 6619   6.315   3.252   2.178  0.2477  0.7033  0.1636
   16CHTO   H82 6620   6.298   3.269   2.072 -2.0833  2.7014  0.8175
   16CHTO   O26 6621   6.458   3.253   2.217  0.6750 -0.2794  0.2496
   16CHTO   C41 6622   6.533   3.382   2.194  0.8310 -0.0782 -0.3957
   16CHTO   H83 6623   6.521   3.417   2.090 -0.5267 -2.0665 -0.9352
   16CHTO   C52 6624   6.684   3.339   2.236  0.6326 -0.2032 -1.0115
   16CHTO   O35 6625   6.739   3.252   2.146  0.3199  0.0830  0.2948
   16CHTO   H71 6626   6.830   3.275   2.135  0.2157 -0.1576 -1.1440
   16CHTO   O28 6627   6.271   3.117   2.206 -0.3184  0.2990 -0.1417
   16CHTO   C42 6628   6.314   2.990   2.150 -1.3438 -0.1275  0.0216
   16CHTO   H84 6629   6.420   2.989   2.177 -1.7071 -1.4298  1.4314
   16CHTO   C44 6630   6.307   2.971   1.996  0.2757 -0.4189  0.0258
   16CHTO   H86 6631   6.205   2.989   1.964  0.6913  1.1707 -0.4501
   16CHTO   O32 6632   6.387   3.077   1.935 -0.5137 -0.2008 -0.2311
   16CHTO   H69 6633   6.387   3.067   1.841  1.4587 -2.9063  0.0090
   16CHTO   C48 6634   6.355   2.826   1.944  0.0330  0.7155  0.0953
   16CHTO   H90 6635   6.462   2.812   1.960 -0.0839 -2.3498 -1.4808
   16CHTO    N9 6636   6.337   2.813   1.794 -0.4207  0.4218  0.5595
   16CHTO   H77 6637   6.285   2.725   1.759  0.4416 -0.9647  2.6369
   16CHTO   H78 6638   6.278   2.898   1.764 -0.9224  0.6962  2.2965
   16CHTO   C51 6639   6.286   2.714   2.033  0.7194  0.4076 -0.1793
   16CHTO   H93 6640   6.180   2.724   2.008  0.4703 -0.0588  0.6781
   16CHTO   O30 6641   6.310   2.746   2.178 -0.1930  0.3560 -0.1148
   16CHTO   C46 6642   6.258   2.865   2.222 -0.1970 -0.0232 -0.2893
   16CHTO   H88 6643   6.149   2.857   2.224 -0.0716 -2.2713  3.0455
   16CHTO   C53 6644   6.298   2.881   2.369  0.1454  0.2088 -1.0727
   16CHTO   O72 6645   6.237   2.789   2.463  0.5074  0.7240  0.2842
   16CHTO  H199 6646   6.264   2.808   2.551  2.5280 -1.7862  0.2692
   16CHTO   O22 6647   6.333   2.581   2.005  0.3266 -0.6589 -0.6056
   16CHTO   C31 6648   6.258   2.468   2.058  0.5889 -0.4054 -0.1413
   16CHTO   H59 6649   6.200   2.510   2.142  0.4479 -0.3708 -0.2556
   16CHTO   C29 6650   6.160   2.406   1.957  0.6023 -0.1111  0.2452
   16CHTO   H57 6651   6.220   2.380   1.869 -0.6126 -1.7390 -0.1331
   16CHTO   O21 6652   6.067   2.508   1.910 -1.0221 -0.4238 -0.3798
   16CHTO   H37 6653   6.012   2.471   1.843 -0.5432 -2.3716  0.2749
   16CHTO   C27 6654   6.094   2.272   2.006 -0.4557  0.6643  0.7589
   16CHTO   H55 6655   6.022   2.296   2.086 -1.8825  1.4549 -0.7374
   16CHTO    N5 6656   6.025   2.205   1.893 -0.0063  0.4062  0.4281
   16CHTO   H43 6657   5.923   2.242   1.889  0.1379  0.8257  0.7130
   16CHTO   H44 6658   6.030   2.097   1.888 -1.1516  0.3873 -0.8300
   16CHTO   C25 6659   6.207   2.184   2.074  0.3773 -0.6111 -0.0460
   16CHTO   H53 6660   6.286   2.151   2.006  0.3904  0.3536 -0.5148
   16CHTO   O17 6661   6.276   2.259   2.177 -0.4314  0.1601  0.1718
   16CHTO   C32 6662   6.358   2.364   2.119 -0.2036 -0.3988  0.7796
   16CHTO   H60 6663   6.424   2.331   2.039 -2.8944  1.0688 -2.1441
   16CHTO   C36 6664   6.438   2.426   2.240 -0.3705 -0.5413  0.2774
   16CHTO   O25 6665   6.541   2.519   2.192  0.5469  0.2688 -0.8119
   16CHTO   H40 6666   6.567   2.571   2.266 -2.0750  0.9261 -0.2778
   16CHTO   O15 6667   6.146   2.062   2.126 -0.1147  0.6546  0.3502
   16CHTO   C19 6668   6.060   1.990   2.225 -0.4876 -0.2649 -0.0645
   16CHTO   H47 6669   6.122   1.899   2.228  0.6329  0.3053 -3.3160
   16CHTO   C20 6670   6.047   2.054   2.369  0.2730  0.3045 -0.8501
   16CHTO   H48 6671   6.027   2.162   2.362  0.8586  0.4345 -0.5262
   16CHTO   O19 6672   6.171   2.037   2.436 -0.0034 -0.6566  0.1550
   16CHTO   H35 6673   6.177   2.076   2.521 -1.8280 -0.6494  0.2965
   16CHTO   C21 6674   5.932   1.993   2.457  0.1661 -0.4518 -0.0141
   16CHTO   H49 6675   5.968   1.900   2.502  2.0357 -1.0008 -2.5050
   16CHTO    N4 6676   5.890   2.086   2.570  0.4524 -0.1455 -0.1637
   16CHTO   H41 6677   5.784   2.077   2.584  0.6567 -1.4867  0.5938
   16CHTO   H42 6678   5.936   2.080   2.667 -1.6662 -1.5032  0.7730
   16CHTO   C22 6679   5.808   1.958   2.370  0.6288 -0.3500 -0.4932
   16CHTO   H50 6680   5.750   2.049   2.353  0.1176 -0.5887 -0.0327
   16CHTO   O14 6681   5.856   1.881   2.259  0.0990  0.7516  0.2208
   16CHTO   C23 6682   5.925   1.951   2.162  0.0832 -0.9493  0.2941
   16CHTO   H51 6683   5.865   2.040   2.139  0.2741 -0.3018  2.2154
   16CHTO   C34 6684   5.954   1.869   2.039 -0.9496  0.1400 -0.2674
   16CHTO   O23 6685   5.842   1.882   1.952 -0.5544  0.1807 -0.2654
   16CHTO   H38 6686   5.847   1.815   1.886  0.8040 -1.3079  1.3064
   16CHTO   O16 6687   5.724   1.867   2.441  0.5160 -0.1473 -0.1881
   16CHTO   C24 6688   5.591   1.833   2.353 -0.3972 -0.3102 -0.3845
   16CHTO   H52 6689   5.609   1.844   2.246  2.2834  3.9610  0.3489
   16CHTO   C26 6690   5.472   1.915   2.410  0.2636  0.3377  0.4447
   16CHTO   H54 6691   5.444   1.870   2.508  0.4628 -4.0085 -1.3971
   16CHTO   O20 6692   5.509   2.058   2.412 -0.2570 -0.2039 -0.5063
   16CHTO   H36 6693   5.438   2.104   2.452  0.9257  1.1765  0.0490
   16CHTO   C30 6694   5.348   1.883   2.325 -0.2292  0.2100  0.1817
   16CHTO   H58 6695   5.360   1.913   2.220  1.1335 -2.2044 -0.4186
   16CHTO    N6 6696   5.239   1.969   2.379  0.2521  0.0416 -0.3181
   16CHTO   H45 6697   5.196   1.931   2.470  1.3109  1.7970  0.9574
   16CHTO   H46 6698   5.168   1.978   2.298  0.9492 -0.6640 -1.0062
   16CHTO   C33 6699   5.310   1.733   2.323 -0.5130 -0.5350  0.1578
   16CHTO   H61 6700   5.267   1.706   2.421  0.6921  1.8954  1.3934
   16CHTO   O18 6701   5.433   1.654   2.305 -0.8201 -0.0105  0.1068
   16CHTO   C28 6702   5.558   1.685   2.380  0.9284 -0.1560  0.0033
   16CHTO   H56 6703   5.551   1.671   2.488 -0.5238 -0.4942 -0.1263
   16CHTO   C35 6704   5.665   1.586   2.322  0.0070  0.3509 -0.1885
   16CHTO   O24 6705   5.789   1.600   2.391 -0.4754 -0.1365  0.3400
   16CHTO   H39 6706   5.765   1.601   2.482  1.0021 -1.0852  0.7465
   16CHTO    O9 6707   5.214   1.699   2.225  0.3782 -0.1246 -0.3188
   16CHTO   C13 6708   5.137   1.557   2.244 -0.0534  0.9386  0.2367
   16CHTO   H26 6709   5.179   1.496   2.326 -0.3963  0.1707 -0.1464
   16CHTO   C11 6710   5.143   1.483   2.114  0.0701 -0.0297  0.2460
   16CHTO   H24 6711   5.251   1.467   2.095 -0.1160  1.7973 -2.6700
   16CHTO    O8 6712   5.107   1.557   1.998 -0.1469  0.5347  0.0917
   16CHTO    H3 6713   5.019   1.538   1.969  0.4022  0.1521 -1.3574
   16CHTO    C9 6714   5.074   1.343   2.128  0.3361 -0.2429 -0.3903
   16CHTO   H22 6715   5.130   1.294   2.209  1.0425  1.5276  0.2217
   16CHTO    N2 6716   5.096   1.259   2.008  0.0794 -0.4079  0.7989
   16CHTO   H10 6717   5.173   1.287   1.938 -1.0315 -0.8273 -0.6145
   16CHTO   H11 6718   5.003   1.241   1.956 -0.1101 -2.2798  1.7440
   16CHTO    C7 6719   4.926   1.376   2.184 -0.2313 -0.3203 -0.5594
   16CHTO   H20 6720   4.922   1.332   2.286 -1.5607  0.7541 -0.1338
   16CHTO    O4 6721   4.894   1.516   2.188 -0.0801  0.1849  0.3940
   16CHTO   C14 6722   4.984   1.580   2.277  0.4789  0.0423  0.0432
   16CHTO   H27 6723   4.954   1.534   2.373 -1.2225  0.6144 -0.1881
   16CHTO   C18 6724   4.929   1.722   2.275  0.2223 -0.1469 -0.0861
   16CHTO   O13 6725   4.983   1.782   2.388 -0.4662 -0.3438 -0.1360
   16CHTO    H7 6726   5.074   1.801   2.378  0.4632 -3.9358  0.8388
   16CHTO    O2 6727   4.786   1.278   2.088  0.3777 -0.2464 -0.5322
   16CHTO    C1 6728   4.690   1.205   2.163  0.2654 -0.3189 -0.1428
   16CHTO   H14 6729   4.630   1.147   2.091 -0.9451  0.2643  0.3900
   16CHTO    C2 6730   4.586   1.297   2.240 -0.3909  0.0817 -0.1511
   16CHTO   H15 6731   4.644   1.363   2.306 -0.2271 -0.7191  0.5101
   16CHTO    O6 6732   4.511   1.365   2.137 -0.4296  0.0543 -0.2055
   16CHTO    H1 6733   4.562   1.437   2.107  1.4176 -0.7926  0.8450
   16CHTO    C3 6734   4.481   1.211   2.333  0.6152 -0.0014  0.0050
   16CHTO   H16 6735   4.430   1.144   2.263  1.3244  0.2650 -0.7710
   16CHTO    N1 6736   4.386   1.304   2.407 -0.9950  0.2753  0.1672
   16CHTO    H8 6737   4.298   1.261   2.450 -2.2078  3.3789  0.9602
   16CHTO    H9 6738   4.363   1.386   2.340  0.2880  1.2842  0.9371
   16CHTO    C4 6739   4.556   1.116   2.426  0.7678 -0.0016 -0.0593
   16CHTO   H17 6740   4.610   1.181   2.496 -0.6063  0.5821  0.4738
   16CHTO    O1 6741   4.641   1.031   2.348  0.0344 -0.3118  0.1238
   16CHTO    C5 6742   4.744   1.105   2.273  0.7057 -0.0340  0.3660
   16CHTO   H18 6743   4.790   1.166   2.351 -0.6803  0.6099  0.6783
   16CHTO   C16 6744   4.847   1.008   2.208 -0.5883 -0.0894  0.0387
   16CHTO   O11 6745   4.882   0.908   2.301 -0.5496  0.2382  0.0848
   16CHTO    H5 6746   4.952   0.849   2.281 -0.3385 -0.2585  2.2115
   16CHTO    O3 6747   4.471   1.031   2.502  0.0744  0.6191  0.1381
   16CHTO    C6 6748   4.533   0.968   2.617  0.8455  0.5042 -0.6724
   16CHTO   H19 6749   4.642   0.975   2.625  1.2434 -3.7953 -1.1334
   16CHTO    C8 6750   4.477   1.016   2.761 -0.3425 -0.4995  0.2222
   16CHTO   H21 6751   4.368   1.006   2.759 -0.5997  2.0212  1.2090
   16CHTO    O7 6752   4.523   1.157   2.776 -0.1429  0.6384 -0.1403
   16CHTO    H2 6753   4.463   1.226   2.796 -0.0105  0.5485  0.5911
   16CHTO   C12 6754   4.507   0.931   2.882  0.5715 -0.4527  0.0802
   16CHTO   H25 6755   4.610   0.960   2.909 -0.5268  2.0152  1.7985
   16CHTO    N3 6756   4.419   0.972   2.999 -0.0771  0.1739 -0.1417
   16CHTO   H12 6757   4.484   0.993   3.082  1.9650 -0.3024 -1.5874
   16CHTO   H13 6758   4.342   0.903   3.031  0.8655 -0.1680  1.4543
   16CHTO   C15 6759   4.499   0.783   2.853  0.9863  0.4157 -0.2735
   16CHTO   H28 6760   4.396   0.749   2.848  1.5566 -0.9192 -3.8190
   16CHTO   O10 6761   4.586   0.705   2.951 -0.4143 -0.6812 -0.0567
   16CHTO    H4 6762   4.576   0.612   2.944  1.6228 -0.8403 -1.3255
   16CHTO    O5 6763   4.572   0.756   2.726 -0.0859  0.2645 -0.3466
   16CHTO   C10 6764   4.506   0.817   2.615  0.5877  0.3666 -0.1942
   16CHTO   H23 6765   4.400   0.790   2.625  0.4097  1.7067  1.6785
   16CHTO   C17 6766   4.557   0.749   2.484  0.0595  0.3989  0.2616
   16CHTO   O12 6767   4.695   0.759   2.454  0.4610 -0.6501 -0.2518
   16CHTO    H6 6768   4.716   0.718   2.372 -1.3647 -1.1513 -0.4827
   17CHTO  H203 6769   3.731   4.851   1.213 -0.7385  1.2823 -0.8608
   17CHTO   O82 6770   3.802   4.848   1.152 -0.1890  0.1410 -0.1716
   17CHTO  C123 6771   3.922   4.847   1.231 -0.2806  0.1456  0.9174
   17CHTO  H227 6772   3.949   4.741   1.247  0.6264  0.4454  1.3923
   17CHTO   O77 6773   4.024   4.914   1.148 -0.0016 -0.0176  0.0863
   17CHTO  C118 6774   4.154   4.932   1.205 -0.5918 -0.9510  0.1816
   17CHTO  H222 6775   4.203   4.837   1.231 -1.5424 -1.8068 -1.0928
   17CHTO  C125 6776   4.242   5.004   1.097  0.3239  0.0934  0.5536
   17CHTO   O84 6777   4.316   4.912   1.021  1.0909  0.7057  0.0091
   17CHTO  H205 6778   4.379   4.964   0.975 -0.2094 -0.4591 -3.2300
   17CHTO  C114 6779   4.133   5.019   1.335  0.5762 -0.3134 -0.7365
   17CHTO  H218 6780   4.096   5.117   1.305 -0.1699 -0.5355 -0.5648
   17CHTO  C116 6781   4.039   4.960   1.439 -0.0700 -0.4629  0.3543
   17CHTO  H220 6782   4.084   4.869   1.484  0.4812  0.9978  2.8239
   17CHTO   O79 6783   4.031   5.049   1.554 -0.4307 -0.0978 -0.3077
   17CHTO  H201 6784   4.119   5.060   1.585 -0.6172  0.1614  0.1268
   17CHTO  C120 6785   3.902   4.925   1.370  0.5932 -1.2077 -0.1001
   17CHTO  H224 6786   3.849   5.018   1.340  0.6248 -1.8713 -2.2773
   17CHTO   N21 6787   3.813   4.851   1.465 -0.2533  0.1667 -0.0729
   17CHTO  H211 6788   3.840   4.748   1.447  0.3789  0.0092  1.6933
   17CHTO  H212 6789   3.715   4.872   1.425 -0.7568 -0.0336  1.0396
   17CHTO   O75 6790   4.261   5.029   1.395 -0.0531  0.3449  0.2288
   17CHTO  C112 6791   4.340   5.164   1.418  0.7286  0.3821 -0.3704
   17CHTO  H216 6792   4.291   5.222   1.498 -2.1917 -0.3053 -1.6067
   17CHTO   O73 6793   4.344   5.233   1.298  0.3382 -0.5379  0.1719
   17CHTO  C113 6794   4.416   5.351   1.289 -0.0847 -0.2144  0.2077
   17CHTO  H217 6795   4.354   5.421   1.350 -0.8722  0.3818 -1.2542
   17CHTO  C124 6796   4.413   5.398   1.145  0.2743 -0.1384 -0.5207
   17CHTO   O83 6797   4.301   5.469   1.095  0.5780 -0.0202  0.0098
   17CHTO  H204 6798   4.317   5.512   1.013 -0.8619 -0.5386 -0.5583
   17CHTO  C109 6799   4.559   5.333   1.336  0.1018  0.1047  0.6085
   17CHTO  H213 6800   4.609   5.277   1.256 -0.4513  0.4885 -0.0125
   17CHTO  C110 6801   4.574   5.257   1.473 -0.8095  0.4812  0.1794
   17CHTO  H214 6802   4.536   5.314   1.558  0.0655  0.3949  0.6323
   17CHTO   O78 6803   4.713   5.245   1.509  0.6778  0.4653 -0.5753
   17CHTO  H200 6804   4.752   5.329   1.524 -1.4586  1.2501  0.7914
   17CHTO  C111 6805   4.491   5.127   1.468  0.1053 -0.2873  0.2206
   17CHTO  H215 6806   4.536   5.059   1.394  0.4203  1.0567 -0.8353
   17CHTO   N19 6807   4.492   5.059   1.602 -0.5551 -0.1501 -0.1411
   17CHTO  H207 6808   4.423   4.976   1.594  0.3182 -0.7007 -2.1282
   17CHTO  H208 6809   4.591   5.028   1.631  0.0325 -1.9451 -3.7141
   17CHTO   O74 6810   4.628   5.465   1.339 -0.2249  0.7395  0.0435
   17CHTO  C115 6811   4.785   5.468   1.269  0.1910 -0.6507 -0.7193
   17CHTO  H219 6812   4.862   5.492   1.342 -2.1024 -0.5551  1.7274
   17CHTO   O76 6813   4.821   5.322   1.201  0.4545 -0.3034  0.2323
   17CHTO  C122 6814   4.944   5.323   1.123 -0.1161  0.6002 -0.0543
   17CHTO  H226 6815   4.954   5.226   1.075 -0.2383  0.2768  0.5689
   17CHTO  C126 6816   5.077   5.342   1.212  0.1065  0.2216  0.0347
   17CHTO   O85 6817   5.087   5.233   1.302 -0.3506  0.2170 -0.4711
   17CHTO  H206 6818   5.154   5.171   1.281  0.7123  1.8067 -1.8120
   17CHTO  C121 6819   4.940   5.445   1.017 -0.0311  0.7506  0.5894
   17CHTO  H225 6820   5.039   5.440   0.968  0.9028 -0.5514  2.5490
   17CHTO   O81 6821   4.844   5.425   0.915  0.0300  0.1310  0.0807
   17CHTO  H202 6822   4.888   5.443   0.834  0.2819  1.9115  0.5916
   17CHTO  C119 6823   4.921   5.586   1.090 -0.1032 -0.1059 -0.4179
   17CHTO  H223 6824   5.004   5.597   1.160 -1.0168 -0.7791  0.7966
   17CHTO  C117 6825   4.790   5.589   1.166  0.0145 -0.6856  0.5390
   17CHTO  H221 6826   4.704   5.589   1.100 -1.2958  1.9658  2.1480
   17CHTO   N20 6827   4.774   5.726   1.240  0.1203  0.4833 -0.6685
   17CHTO  H209 6828   4.834   5.734   1.329  0.1641 -0.5959 -0.5992
   17CHTO  H210 6829   4.672   5.716   1.274  0.9424 -0.9619  1.4599
   17CHTO   O80 6830   4.958   5.715   0.987 -0.5388 -0.4763 -0.0351
   17CHTO  C103 6831   5.099   5.770   0.988 -0.5690 -0.0807 -0.5352
   17CHTO  H190 6832   5.138   5.780   1.090  1.1849  0.0003 -1.1845
   17CHTO  C101 6833   5.213   5.693   0.892  0.1937 -0.0030  0.2958
   17CHTO  H188 6834   5.163   5.663   0.800  1.7069  1.7376 -1.1451
   17CHTO   O68 6835   5.268   5.557   0.962  0.2092 -0.3733 -0.1516
   17CHTO  H168 6836   5.355   5.556   0.997 -1.1414  0.6387  3.3944
   17CHTO   C99 6837   5.330   5.795   0.854  0.5269  0.4404 -0.3873
   17CHTO  H186 6838   5.393   5.819   0.943  0.2451  1.3950 -0.4404
   17CHTO   N17 6839   5.434   5.743   0.763  0.3157  0.2274 -0.0183
   17CHTO  H174 6840   5.532   5.740   0.809  1.3499 -0.7268 -2.2160
   17CHTO  H175 6841   5.408   5.646   0.722  2.5267  0.2342 -1.5429
   17CHTO   C97 6842   5.273   5.925   0.805 -0.1254  0.4287 -0.4671
   17CHTO  H184 6843   5.214   5.906   0.715 -2.1578  0.6359  0.7857
   17CHTO   O64 6844   5.194   5.976   0.912 -0.8078 -0.2498 -0.2193
   17CHTO  C104 6845   5.073   5.917   0.945 -0.3099 -0.2503 -0.0943
   17CHTO  H191 6846   5.014   5.915   0.853  1.2992  0.0131 -1.1490
   17CHTO  C108 6847   5.000   6.003   1.047  0.2496 -0.4896  0.3073
   17CHTO   O71 6848   4.943   6.122   0.983 -0.8911 -0.1933 -0.8972
   17CHTO  H171 6849   5.019   6.172   0.959 -1.3757  0.5270 -0.9091
   17CHTO   O62 6850   5.363   6.036   0.783  0.4878  0.5748  0.1462
   17CHTO   C91 6851   5.315   6.132   0.680  0.0651 -0.4589 -0.5244
   17CHTO  H178 6852   5.325   6.086   0.581  0.5873  1.7327 -1.5180
   17CHTO   C92 6853   5.425   6.248   0.679 -0.6778  0.4723 -0.2057
   17CHTO  H179 6854   5.525   6.207   0.659 -1.1610 -0.5673 -0.5507
   17CHTO   O66 6855   5.392   6.321   0.561 -0.0120 -0.0508  0.5628
   17CHTO  H166 6856   5.412   6.273   0.483  0.7520 -0.5974  1.0875
   17CHTO   C93 6857   5.421   6.340   0.801  0.2679  0.0153  0.2925
   17CHTO  H180 6858   5.467   6.434   0.767 -0.2256  1.3494  3.1508
   17CHTO   N16 6859   5.513   6.304   0.907 -0.0226  0.1956 -0.4492
   17CHTO  H172 6860   5.467   6.274   1.000 -0.2887 -0.6246 -0.8441
   17CHTO  H173 6861   5.598   6.365   0.932 -0.4379  1.3549 -1.8410
   17CHTO   C94 6862   5.272   6.376   0.843  0.4985  0.1470 -0.0529
   17CHTO  H181 6863   5.243   6.326   0.935 -2.2492 -1.8043 -1.8963
   17CHTO   O61 6864   5.177   6.339   0.737 -0.6490  0.0149 -0.0966
   17CHTO   C95 6865   5.169   6.201   0.715 -0.5942 -0.2600  0.2175
   17CHTO  H182 6866   5.121   6.156   0.801  0.4701  1.5038  1.7550
   17CHTO  C106 6867   5.069   6.188   0.590  0.1740  0.1050  0.0244
   17CHTO   O69 6868   5.003   6.057   0.596  0.4104  0.1335 -0.0290
   17CHTO  H169 6869   4.971   6.037   0.510 -0.1457  1.3182 -0.1070
   17CHTO   O63 6870   5.268   6.539   0.871  0.4884 -0.4500 -0.3537
   17CHTO   C96 6871   5.266   6.578   1.043 -0.1052  1.2012 -0.0857
   17CHTO  H183 6872   5.327   6.507   1.098 -0.8132  1.4973  1.0844
   17CHTO   C98 6873   5.118   6.565   1.093 -0.6508 -0.8914 -0.8034
   17CHTO  H185 6874   5.046   6.629   1.041  0.0487  0.4964 -0.0858
   17CHTO   O67 6875   5.080   6.428   1.067  0.2203 -0.3753 -0.1500
   17CHTO  H167 6876   4.992   6.425   1.100  0.9733  1.0599  2.0766
   17CHTO  C102 6877   5.116   6.606   1.248 -0.1510 -0.8285 -0.5804
   17CHTO  H189 6878   5.177   6.536   1.306 -0.1167 -0.2651  0.0856
   17CHTO   N18 6879   4.981   6.602   1.307 -0.3581 -0.2650 -1.0231
   17CHTO  H176 6880   4.994   6.614   1.414 -0.1265 -1.4684 -0.9100
   17CHTO  H177 6881   4.939   6.505   1.285 -3.1267  0.7889 -0.5777
   17CHTO  C105 6882   5.191   6.744   1.274  0.3105  0.4716 -0.3038
   17CHTO  H192 6883   5.129   6.827   1.240  0.3671  0.7059  0.1568
   17CHTO   O65 6884   5.324   6.751   1.207  0.1431 -0.4743  0.1238
   17CHTO  C100 6885   5.330   6.724   1.066 -0.0764  0.1924 -0.2828
   17CHTO  H187 6886   5.272   6.804   1.016  0.5467 -0.5627 -2.2714
   17CHTO  C107 6887   5.470   6.724   1.004 -0.2605 -0.4598 -0.6293
   17CHTO   O70 6888   5.532   6.848   1.051  0.1467 -0.7146 -0.0593
   17CHTO  H170 6889   5.614   6.859   1.007  0.0011 -0.7637 -0.3377
   17CHTO   O57 6890   5.203   6.759   1.444 -0.3950  0.1028 -0.0301
   17CHTO   C85 6891   5.256   6.886   1.483  0.6331  0.2335  0.4898
   17CHTO  H157 6892   5.260   6.949   1.391  1.9360 -0.3969  0.0950
   17CHTO   C83 6893   5.405   6.869   1.525 -0.2858  0.3535  0.4992
   17CHTO  H155 6894   5.459   6.845   1.433 -4.5479 -0.7790 -1.8850
   17CHTO   O56 6895   5.416   6.747   1.599 -0.1182 -0.0875 -0.6749
   17CHTO  H135 6896   5.390   6.760   1.688  1.0378 -0.6426 -0.2471
   17CHTO   C81 6897   5.466   6.996   1.584 -0.0787 -0.2334 -0.6697
   17CHTO  H153 6898   5.454   7.073   1.508  0.2640 -0.7952 -1.2948
   17CHTO   N14 6899   5.616   6.988   1.609 -0.1615 -0.0800 -0.3513
   17CHTO  H141 6900   5.642   6.885   1.592 -0.3293 -0.0932 -0.5347
   17CHTO  H142 6901   5.645   7.021   1.707 -0.6500  0.3610 -0.3534
   17CHTO   C79 6902   5.381   7.040   1.719  0.1793 -0.8631 -0.5587
   17CHTO  H151 6903   5.426   7.132   1.757  1.6377 -1.8227  0.0961
   17CHTO   O52 6904   5.246   7.073   1.664 -0.2190  0.3533 -0.3172
   17CHTO   C86 6905   5.179   6.960   1.595  0.0920  0.4777  0.5668
   17CHTO  H158 6906   5.156   6.891   1.678 -1.4884  1.5609  1.0524
   17CHTO   C90 6907   5.045   7.009   1.549  0.3820  0.2456 -0.6385
   17CHTO   O60 6908   4.976   6.936   1.453 -0.3151  0.2595 -0.4916
   17CHTO  H138 6909   4.989   6.844   1.463  0.4624  0.5435  1.3805
   17CHTO   O50 6910   5.364   6.948   1.830 -0.8735 -0.3425 -1.1093
   17CHTO   C73 6911   5.348   6.933   1.974  0.5799 -0.1626 -1.2481
   17CHTO  H145 6912   5.403   7.014   2.025 -1.8648  0.0766  1.1370
   17CHTO   C74 6913   5.402   6.792   2.019  0.0687  0.3669  0.1274
   17CHTO  H146 6914   5.508   6.784   1.993  0.5311  1.4369  1.6251
   17CHTO   O54 6915   5.401   6.788   2.163  0.1851 -0.2278  0.6845
   17CHTO  H133 6916   5.415   6.698   2.187 -1.2322 -0.1284  1.9357
   17CHTO   C75 6917   5.328   6.674   1.958 -0.2483  0.1064 -0.4567
   17CHTO  H147 6918   5.343   6.676   1.849 -0.1458 -1.2094 -0.4797
   17CHTO   N13 6919   5.377   6.544   2.001  0.0989 -0.2027 -0.3697
   17CHTO  H139 6920   5.352   6.534   2.105  1.6031  2.4378  0.2935
   17CHTO  H140 6921   5.485   6.551   1.995  0.0638  1.2367  0.4979
   17CHTO   C76 6922   5.170   6.697   1.981  0.3474 -0.2180  0.2261
   17CHTO  H148 6923   5.147   6.673   2.085  1.4627  0.7866  0.7226
   17CHTO   O49 6924   5.131   6.837   1.945 -0.7960 -0.9800 -0.2629
   17CHTO   C77 6925   5.197   6.946   2.015  0.5020  0.0784 -0.6279
   17CHTO  H149 6926   5.183   6.927   2.121  0.7504 -2.5602 -1.0260
   17CHTO   C88 6927   5.123   7.074   1.970  0.1855  0.5795 -0.6820
   17CHTO   O58 6928   4.993   7.082   2.013  0.5015  0.2757 -0.9432
   17CHTO  H136 6929   4.983   7.070   2.106 -0.8876  2.9018 -0.7073
   17CHTO   O51 6930   5.078   6.594   1.886  0.4392 -0.1514 -0.4219
   17CHTO   C78 6931   4.934   6.569   1.938 -0.8082 -0.0019  0.1984
   17CHTO  H150 6932   4.910   6.634   2.024 -1.9312  0.5364 -0.5089
   17CHTO   C80 6933   4.918   6.420   1.971  0.1097 -0.1230  0.3583
   17CHTO  H152 6934   4.938   6.361   1.879  0.1279  1.2378 -0.5295
   17CHTO   O55 6935   5.020   6.383   2.057  0.2636  0.3774  0.8604
   17CHTO  H134 6936   4.982   6.333   2.127 -0.6229 -0.9794 -0.5620
   17CHTO   C84 6937   4.770   6.391   2.027  0.2389  0.6792 -0.1392
   17CHTO  H156 6938   4.755   6.437   2.125 -0.2904  0.2717 -0.0242
   17CHTO   N15 6939   4.750   6.242   2.059 -0.6013  1.1321  0.1554
   17CHTO  H143 6940   4.714   6.188   1.974 -1.9562  0.7906  0.9206
   17CHTO  H144 6941   4.671   6.241   2.132 -2.4941 -2.5615 -1.8017
   17CHTO   C87 6942   4.670   6.449   1.921 -0.4181  0.4321 -0.0841
   17CHTO  H159 6943   4.674   6.384   1.833  1.1336  1.1455 -0.5711
   17CHTO   O53 6944   4.703   6.594   1.874 -0.0342 -0.0983  0.4181
   17CHTO   C82 6945   4.836   6.613   1.826 -0.1201  0.2463 -0.3193
   17CHTO  H154 6946   4.847   6.547   1.740 -1.6264  0.4298 -0.6622
   17CHTO   C89 6947   4.852   6.750   1.769  0.0048 -0.3971  0.2039
   17CHTO   O59 6948   4.833   6.850   1.872  0.3784  0.0430  0.4793
   17CHTO  H137 6949   4.785   6.918   1.831 -0.2779 -0.7949 -0.1490
   17CHTO   O45 6950   4.526   6.454   1.976 -0.2407 -0.0408 -0.4079
   17CHTO   C67 6951   4.420   6.450   1.882  1.2947  0.2994  0.0204
   17CHTO  H124 6952   4.444   6.496   1.787  1.4295  0.6419  0.2200
   17CHTO   C65 6953   4.378   6.300   1.856  0.2013 -0.9768 -0.9654
   17CHTO  H122 6954   4.463   6.238   1.883  0.5147 -0.1170  0.0854
   17CHTO   O44 6955   4.353   6.292   1.715 -0.0167  0.1837  0.4770
   17CHTO  H102 6956   4.285   6.230   1.695  0.7524 -0.5641  0.1660
   17CHTO   C63 6957   4.259   6.267   1.953 -0.7748 -0.2386 -0.7091
   17CHTO  H120 6958   4.292   6.283   2.056  0.4378 -0.6037 -1.0337
   17CHTO   N11 6959   4.237   6.114   1.958  0.1824  0.3606  0.2101
   17CHTO  H108 6960   4.206   6.077   2.053 -1.2023 -1.9672 -1.1169
   17CHTO  H109 6961   4.176   6.085   1.875  1.1985 -0.7059 -0.1789
   17CHTO   C61 6962   4.137   6.368   1.915 -0.1706 -0.1728  0.0323
   17CHTO  H118 6963   4.076   6.369   2.006  0.0485  0.8299  0.1727
   17CHTO   O40 6964   4.182   6.505   1.894 -0.1565  0.0613  0.1523
   17CHTO   C68 6965   4.312   6.541   1.943  0.3965  0.2543 -0.3496
   17CHTO  H125 6966   4.320   6.542   2.054  3.1763  0.0849 -0.5204
   17CHTO   C72 6967   4.338   6.678   1.902  0.2272 -0.4466 -0.4453
   17CHTO   O48 6968   4.470   6.726   1.930  0.1024  0.3479  0.6717
   17CHTO  H105 6969   4.532   6.676   1.881 -2.7890 -1.3325 -1.3960
   17CHTO   O38 6970   4.061   6.334   1.797 -0.0674  0.3681  0.1165
   17CHTO   C55 6971   3.917   6.365   1.798  0.1634  0.2445  1.1821
   17CHTO  H112 6972   3.875   6.420   1.884 -5.4008 -0.5451 -0.8028
   17CHTO   C56 6973   3.845   6.215   1.784  0.4141  0.5406 -0.0735
   17CHTO  H113 6974   3.885   6.162   1.696 -2.2320 -1.6972  0.0100
   17CHTO   O42 6975   3.868   6.130   1.899  0.3714 -0.0479 -0.4885
   17CHTO  H100 6976   3.954   6.103   1.922  0.1751 -2.2404 -2.1842
   17CHTO   C57 6977   3.689   6.237   1.753  0.5048  0.2460  0.2558
   17CHTO  H114 6978   3.651   6.278   1.847  1.8074  1.6345  0.1988
   17CHTO   N10 6979   3.612   6.109   1.733 -0.8095 -0.1787  0.1732
   17CHTO  H106 6980   3.508   6.126   1.754 -1.0563  0.3878 -1.4468
   17CHTO  H107 6981   3.628   6.069   1.634 -1.5519  3.3361 -1.4331
   17CHTO   C58 6982   3.661   6.343   1.643 -0.6084  0.7503 -0.3546
   17CHTO  H115 6983   3.711   6.306   1.552  2.6753 -0.3560  1.8192
   17CHTO   O37 6984   3.726   6.468   1.672 -0.1521  0.2913  0.1153
   17CHTO   C59 6985   3.871   6.452   1.673  0.2929  0.8531 -0.1321
   17CHTO  H116 6986   3.906   6.405   1.581  2.8654 -1.7552  2.0675
   17CHTO   C70 6987   3.922   6.593   1.664 -0.0770  0.3356  0.4295
   17CHTO   O46 6988   3.890   6.671   1.777  0.6271  0.3310 -0.0358
   17CHTO  H103 6989   3.881   6.759   1.748 -1.5788  0.4158  0.7793
   17CHTO   O39 6990   3.504   6.367   1.606 -0.0557 -0.0442 -0.2038
   17CHTO   C60 6991   3.433   6.461   1.692  0.1674  0.4120  0.3373
   17CHTO  H117 6992   3.483   6.459   1.789  0.3369  0.2197  0.2442
   17CHTO   C62 6993   3.433   6.613   1.648 -0.5231  0.6267  0.4294
   17CHTO  H119 6994   3.538   6.645   1.636 -0.2434 -0.4038  0.0456
   17CHTO   O43 6995   3.352   6.631   1.527 -0.7789  0.1871  0.3835
   17CHTO  H101 6996   3.364   6.714   1.485 -1.8777 -1.5539 -3.6237
   17CHTO   C66 6997   3.375   6.704   1.762 -0.5131 -0.3860 -0.8584
   17CHTO  H123 6998   3.436   6.686   1.851 -3.4434  0.2664  1.3527
   17CHTO   N12 6999   3.390   6.850   1.735 -0.0131 -0.1450 -0.2508
   17CHTO  H110 7000   3.476   6.898   1.779  0.3212  0.0696 -1.1175
   17CHTO  H111 7001   3.296   6.898   1.715 -1.6928 -2.9616  0.6169
   17CHTO   C69 7002   3.231   6.670   1.801  0.2195 -1.1721 -0.0052
   17CHTO  H126 7003   3.166   6.702   1.717 -0.5232  1.4985  1.5468
   17CHTO   O41 7004   3.221   6.516   1.830 -0.3939 -0.0336  0.5681
   17CHTO   C64 7005   3.287   6.426   1.712 -0.3105  0.5374 -0.1388
   17CHTO  H121 7006   3.229   6.451   1.620  0.3519  1.2921 -0.3627
   17CHTO   C71 7007   3.268   6.276   1.747  0.6198  0.0498  0.6996
   17CHTO   O47 7008   3.331   6.234   1.873  0.3259  0.2936 -0.1840
   17CHTO  H104 7009   3.305   6.146   1.887 -0.5293  0.4072 -0.9919
   17CHTO   O34 7010   3.191   6.748   1.934  0.0935 -0.0757  0.0518
   17CHTO   C49 7011   3.077   6.836   1.972  0.5068  0.6444 -0.1446
   17CHTO   H91 7012   3.097   6.928   1.916 -0.5364  0.8712 -0.1531
   17CHTO   C47 7013   3.082   6.865   2.129 -0.4867  0.0059  0.3712
   17CHTO   H89 7014   3.024   6.958   2.143 -1.6607 -0.6492 -0.0932
   17CHTO   O33 7015   3.209   6.893   2.181 -0.3424  0.2976 -0.1923
   17CHTO   H70 7016   3.255   6.954   2.127 -0.6992 -1.5302 -2.6653
   17CHTO   C45 7017   3.016   6.745   2.221 -0.2421 -0.0669  0.5500
   17CHTO   H87 7018   3.096   6.703   2.284  0.5420 -2.3770 -1.9134
   17CHTO    N8 7019   2.904   6.799   2.300  0.0317 -0.6000 -0.5180
   17CHTO   H75 7020   2.809   6.754   2.275 -1.4667  2.1464 -0.0395
   17CHTO   H76 7021   2.909   6.784   2.407 -2.1536 -1.2729 -0.4847
   17CHTO   C43 7022   2.986   6.622   2.126 -0.2099 -0.4021 -0.2150
   17CHTO   H85 7023   3.084   6.593   2.089  0.5173 -0.1169  1.4431
   17CHTO   O29 7024   2.900   6.665   2.017  0.1735  0.3487 -0.2779
   17CHTO   C50 7025   2.942   6.773   1.933 -0.0643  0.1289 -0.0161
   17CHTO   H92 7026   2.964   6.727   1.836 -1.3546  0.0002 -0.2583
   17CHTO   C54 7027   2.824   6.870   1.899 -0.9157 -0.2893  0.0367
   17CHTO   O36 7028   2.783   6.945   2.016 -0.3794 -0.3205 -0.1649
   17CHTO   H72 7029   2.714   7.002   1.988  0.3871  0.0265 -1.3947
   17CHTO   O27 7030   2.934   6.506   2.193  0.2434 -0.6090  0.4307
   17CHTO   C37 7031   2.909   6.367   2.177  0.6064  0.7892  0.1294
   17CHTO   H79 7032   2.850   6.324   2.259  1.7059 -0.2580  0.3757
   17CHTO   C38 7033   2.822   6.338   2.055 -0.1979 -0.2308 -0.0807
   17CHTO   H80 7034   2.867   6.385   1.966 -1.5176  1.5841  0.1717
   17CHTO   O31 7035   2.695   6.396   2.073  1.0097 -0.0894 -0.0923
   17CHTO   H68 7036   2.644   6.342   2.131  0.5548  0.7509  0.3117
   17CHTO   C39 7037   2.811   6.183   2.007  0.0966 -0.2499 -0.3183
   17CHTO   H81 7038   2.731   6.137   2.064 -1.3500  0.8384 -1.4405
   17CHTO    N7 7039   2.771   6.171   1.859  0.1146  0.2660 -0.7616
   17CHTO   H73 7040   2.682   6.230   1.841  0.2003  0.6743  0.1393
   17CHTO   H74 7041   2.852   6.197   1.793 -0.1632 -0.0492 -1.2284
   17CHTO   C40 7042   2.954   6.112   2.039  0.9426  0.0127  0.0128
   17CHTO   H82 7043   3.019   6.126   1.953 -0.2625  0.3110 -0.8569
   17CHTO   O26 7044   3.020   6.151   2.162 -0.2519  0.1741 -0.3069
   17CHTO   C41 7045   3.050   6.291   2.169 -0.3212 -0.0817  0.0604
   17CHTO   H83 7046   3.111   6.327   2.085 -0.3113 -1.9453 -0.7566
   17CHTO   C52 7047   3.133   6.306   2.299  0.3273 -0.5139  0.2984
   17CHTO   O35 7048   3.256   6.224   2.316  0.1490 -0.8364  0.5135
   17CHTO   H71 7049   3.234   6.136   2.294 -0.9809  0.0002 -1.8447
   17CHTO   O28 7050   2.931   5.973   2.055  0.4570  0.3060  0.3095
   17CHTO   C42 7051   3.036   5.867   2.032  0.5049  1.0110 -0.2060
   17CHTO   H84 7052   2.991   5.779   2.079 -2.4909  2.6756  0.1413
   17CHTO   C44 7053   3.170   5.885   2.103 -0.4112  0.1075  0.6266
   17CHTO   H86 7054   3.228   5.964   2.057  0.2016 -1.5796 -1.5829
   17CHTO   O32 7055   3.153   5.920   2.240  0.2191 -0.6438  0.1538
   17CHTO   H69 7056   3.195   5.865   2.304  0.2642 -0.5629  0.1929
   17CHTO   C48 7057   3.255   5.755   2.071 -0.2037 -0.1941  0.1009
   17CHTO   H90 7058   3.202   5.673   2.120 -0.5508 -0.4776 -0.7418
   17CHTO    N9 7059   3.390   5.774   2.132  0.6328 -0.0109  0.0549
   17CHTO   H77 7060   3.381   5.802   2.236  0.4567  1.5078 -0.3493
   17CHTO   H78 7061   3.448   5.684   2.132 -0.5709 -0.7986  0.2116
   17CHTO   C51 7062   3.263   5.727   1.911 -0.2984 -0.2746  0.1994
   17CHTO   H93 7063   3.318   5.807   1.862  0.0482 -0.9238 -0.4867
   17CHTO   O30 7064   3.137   5.712   1.852 -0.2567 -0.3078 -0.1041
   17CHTO   C46 7065   3.045   5.839   1.886  0.5294 -0.6174 -0.1466
   17CHTO   H88 7066   3.083   5.930   1.839  0.7465 -0.4474  0.3536
   17CHTO   C53 7067   2.909   5.813   1.816  0.5112  0.7999  0.3425
   17CHTO   O72 7068   2.851   5.681   1.815 -0.5073 -0.3302  0.1879
   17CHTO  H199 7069   2.849   5.644   1.901  0.6090  1.7628  1.1492
   17CHTO   O22 7070   3.325   5.598   1.871 -0.4392 -0.0909  0.5859
   17CHTO   C31 7071   3.417   5.574   1.751  0.5518  0.2312 -0.5484
   17CHTO   H59 7072   3.463   5.474   1.764 -1.9493 -1.0280 -1.1147
   17CHTO   C29 7073   3.327   5.578   1.618  0.9107 -0.2366 -0.1675
   17CHTO   H57 7074   3.254   5.660   1.620  1.2341  0.0359  2.6012
   17CHTO   O21 7075   3.237   5.465   1.617  0.4585  0.4028  0.1384
   17CHTO   H37 7076   3.258   5.387   1.569 -1.8157 -0.4319  0.4120
   17CHTO   C27 7077   3.409   5.585   1.485 -0.3565  0.1783 -0.2550
   17CHTO   H55 7078   3.457   5.487   1.470 -0.8330 -0.5065  2.4058
   17CHTO    N5 7079   3.331   5.614   1.364 -0.3529 -0.7170  0.1570
   17CHTO   H43 7080   3.249   5.544   1.353  0.0588 -0.7883 -2.9100
   17CHTO   H44 7081   3.411   5.608   1.292  0.8097  1.9171  1.2032
   17CHTO   C25 7082   3.529   5.690   1.503  0.3863 -0.3231  0.2936
   17CHTO   H53 7083   3.477   5.783   1.528  1.7471  0.7082 -0.6223
   17CHTO   O17 7084   3.606   5.644   1.616 -0.4556 -0.0809 -0.3628
   17CHTO   C32 7085   3.538   5.668   1.743 -0.6668 -0.0086 -0.1643
   17CHTO   H60 7086   3.501   5.770   1.757 -1.2204 -0.2445  0.1155
   17CHTO   C36 7087   3.647   5.647   1.850  0.7976 -0.3457  0.4116
   17CHTO   O25 7088   3.767   5.716   1.814  0.0497 -0.4004 -0.0940
   17CHTO   H40 7089   3.839   5.697   1.871 -1.1903 -0.6789  1.4445
   17CHTO   O15 7090   3.625   5.712   1.370 -0.1447 -0.0381 -0.1542
   17CHTO   C19 7091   3.676   5.826   1.302 -0.2231  0.4738 -0.5134
   17CHTO   H47 7092   3.745   5.778   1.231  0.7522 -1.1662  1.5190
   17CHTO   C20 7093   3.568   5.905   1.223  0.2586 -0.1978 -0.4678
   17CHTO   H48 7094   3.488   5.941   1.289  0.5856 -0.9677  0.3677
   17CHTO   O19 7095   3.518   5.804   1.136  0.1032 -0.2305 -0.3739
   17CHTO   H35 7096   3.425   5.817   1.124  0.0998  0.0474 -0.0600
   17CHTO   C21 7097   3.641   6.024   1.148  0.1451 -0.9711  0.2739
   17CHTO   H49 7098   3.718   5.984   1.081  0.8691 -0.3573  0.7258
   17CHTO    N4 7099   3.541   6.104   1.064  0.7050 -0.4259  0.1107
   17CHTO   H41 7100   3.572   6.084   0.963 -1.7060  2.2650 -1.2606
   17CHTO   H42 7101   3.445   6.056   1.077  1.1118 -1.1273  0.6029
   17CHTO   C22 7102   3.720   6.107   1.247  0.2993  0.1076  0.1700
   17CHTO   H50 7103   3.664   6.161   1.323 -0.3289 -0.0926 -0.1477
   17CHTO   O14 7104   3.812   6.026   1.309  0.9957  0.3269 -0.1528
   17CHTO   C23 7105   3.765   5.910   1.392 -0.4518  0.0015  0.0607
   17CHTO   H51 7106   3.713   5.947   1.482 -1.5224 -0.5775 -0.3109
   17CHTO   C34 7107   3.897   5.851   1.437  0.1925  0.0192 -0.6648
   17CHTO   O23 7108   3.871   5.747   1.534 -0.5458 -0.0356  0.3479
   17CHTO   H38 7109   3.815   5.770   1.606  0.2104  2.0913  0.2890
   17CHTO   O16 7110   3.811   6.200   1.180 -0.4982 -0.1458  0.2104
   17CHTO   C24 7111   3.858   6.331   1.283  0.6541 -0.1725 -0.2387
   17CHTO   H52 7112   3.817   6.320   1.383 -0.8951  0.7132 -0.7642
   17CHTO   C26 7113   3.792   6.450   1.208  0.2810 -0.0597  0.2636
   17CHTO   H54 7114   3.825   6.455   1.102  1.9253  0.1390  0.7740
   17CHTO   O20 7115   3.650   6.444   1.210  0.0188  0.3162  0.0543
   17CHTO   H36 7116   3.608   6.502   1.149  0.3998  1.0457  0.4673
   17CHTO   C30 7117   3.848   6.579   1.271  0.3912  0.0987 -0.0059
   17CHTO   H58 7118   3.807   6.598   1.371  0.6479  0.5667  0.0142
   17CHTO    N6 7119   3.794   6.700   1.195 -0.1799  0.1997 -0.4159
   17CHTO   H45 7120   3.844   6.793   1.213 -1.6684  0.8906  0.2374
   17CHTO   H46 7121   3.687   6.712   1.207 -0.1882 -0.7277  0.4792
   17CHTO   C33 7122   4.000   6.579   1.294  0.7591 -0.4685 -0.2498
   17CHTO   H61 7123   4.039   6.574   1.191 -0.8161 -0.5586 -0.8664
   17CHTO   O18 7124   4.042   6.461   1.372  0.4989 -0.3626  0.1873
   17CHTO   C28 7125   4.019   6.338   1.298 -0.0620  0.2521 -0.0219
   17CHTO   H56 7126   4.059   6.345   1.197  2.3291 -2.2036  0.6808
   17CHTO   C35 7127   4.070   6.223   1.381 -1.0413 -0.2240 -0.5533
   17CHTO   O24 7128   4.095   6.113   1.295 -0.8492  0.1771  0.2237
   17CHTO   H39 7129   4.188   6.111   1.286 -0.8498 -1.5066  0.4283
   17CHTO    O9 7130   4.045   6.703   1.347 -0.2305  0.0481  0.4573
   17CHTO   C13 7131   4.206   6.754   1.324  0.7661 -0.1118 -0.7737
   17CHTO   H26 7132   4.234   6.721   1.222  1.6730 -0.3903 -0.4395
   17CHTO   C11 7133   4.296   6.679   1.434  0.0854  0.1950 -0.4107
   17CHTO   H24 7134   4.307   6.574   1.403  1.6674 -0.2108  1.4652
   17CHTO    O8 7135   4.221   6.682   1.564  0.0992 -0.2024  0.0685
   17CHTO    H3 7136   4.149   6.622   1.561 -1.2914  1.4906 -1.4242
   17CHTO    C9 7137   4.429   6.760   1.439  0.6533  0.4644  0.8037
   17CHTO   H22 7138   4.470   6.753   1.338  0.6760 -2.6193  0.9645
   17CHTO    N2 7139   4.528   6.683   1.521  0.3430  0.2012  0.3242
   17CHTO   H10 7140   4.571   6.753   1.591 -1.0217  1.5205 -0.1322
   17CHTO   H11 7141   4.470   6.608   1.573 -2.1459  0.6969 -1.6404
   17CHTO    C7 7142   4.408   6.909   1.470  0.0449 -0.5614 -0.1682
   17CHTO   H20 7143   4.489   6.951   1.407 -0.0767 -1.8110 -1.1828
   17CHTO    O4 7144   4.284   6.967   1.439  0.2053 -0.3205 -0.3583
   17CHTO   C14 7145   4.216   6.912   1.321 -0.4158  0.3416 -0.1259
   17CHTO   H27 7146   4.281   6.945   1.237 -0.2999  1.6390  0.4689
   17CHTO   C18 7147   4.081   6.993   1.305  0.0791  0.9353 -0.5589
   17CHTO   O13 7148   3.983   6.979   1.404  0.2514  0.2533 -0.5768
   17CHTO    H7 7149   3.895   6.984   1.372 -0.2944 -1.4622  0.5521
   17CHTO    O2 7150   4.456   6.959   1.624  0.4102 -0.8008  0.2517
   17CHTO    C1 7151   4.479   7.097   1.623  0.1810 -0.2013 -0.2583
   17CHTO   H14 7152   4.438   7.135   1.527 -3.2042 -1.1905  0.7399
   17CHTO    C2 7153   4.632   7.120   1.625  0.5171  0.1148 -0.0073
   17CHTO   H15 7154   4.669   7.049   1.701 -0.6851 -2.5193 -1.8003
   17CHTO    O6 7155   4.688   7.071   1.499  0.5559 -0.0473 -0.0150
   17CHTO    H1 7156   4.776   7.103   1.495  0.0553  1.3628 -0.2096
   17CHTO    C3 7157   4.672   7.272   1.656 -0.6349  0.1442 -0.5058
   17CHTO   H16 7158   4.660   7.328   1.562 -0.6367  1.4904  0.2857
   17CHTO    N1 7159   4.819   7.285   1.696  0.0459  0.2689  0.3531
   17CHTO    H8 7160   4.827   7.391   1.716 -1.3573  0.4506  0.0394
   17CHTO    H9 7161   4.825   7.246   1.796 -0.2404  0.6539  0.5196
   17CHTO    C4 7162   4.576   7.342   1.764 -0.3285  0.5396  0.7813
   17CHTO   H17 7163   4.594   7.301   1.863  0.9348 -0.6369  0.0762
   17CHTO    O1 7164   4.441   7.311   1.723  1.0457 -0.0209  0.0186
   17CHTO    C5 7165   4.402   7.171   1.733  0.1297 -0.0691  0.2551
   17CHTO   H18 7166   4.430   7.117   1.824 -0.1884 -1.4018 -0.4209
   17CHTO   C16 7167   4.248   7.178   1.700 -0.5402 -0.1530 -0.3032
   17CHTO   O11 7168   4.189   7.049   1.719  0.0617 -0.7117  0.3598
   17CHTO    H5 7169   4.199   7.020   1.808  0.5538 -1.0776  0.1855
   17CHTO    O3 7170   4.589   7.482   1.784  0.0003  0.0780 -0.0366
   17CHTO    C6 7171   4.506   7.530   1.894 -0.4771  0.8800  0.1358
   17CHTO   H19 7172   4.429   7.460   1.926  1.7960 -2.1881 -0.7682
   17CHTO    C8 7173   4.602   7.554   2.015 -0.3592 -0.0511  0.6570
   17CHTO   H21 7174   4.681   7.622   1.984  1.1400 -2.6024 -1.3120
   17CHTO    O7 7175   4.660   7.432   2.064  0.4300  0.1316  0.0891
   17CHTO    H2 7176   4.608   7.389   2.129 -1.3110  0.6774 -0.9251
   17CHTO   C12 7177   4.532   7.634   2.134 -0.7159  0.8479  0.1145
   17CHTO   H25 7178   4.462   7.559   2.177 -0.3803 -0.0824 -0.9373
   17CHTO    N3 7179   4.623   7.666   2.253  0.2920 -0.1333  0.4271
   17CHTO   H12 7180   4.640   7.588   2.325  1.4066 -0.9273 -0.6871
   17CHTO   H13 7181   4.713   7.703   2.207 -0.1184 -0.1976 -0.4452
   17CHTO   C15 7182   4.453   7.756   2.072 -0.1679 -0.4961  0.2969
   17CHTO   H28 7183   4.529   7.829   2.045  0.6612 -1.1700  0.7824
   17CHTO   O10 7184   4.346   7.823   2.178 -0.2304 -0.4940 -0.1872
   17CHTO    H4 7185   4.392   7.888   2.227  0.2367 -2.7723  2.4877
   17CHTO    O5 7186   4.369   7.722   1.959 -0.2489  0.1395 -0.0205
   17CHTO   C10 7187   4.433   7.665   1.845  0.0467  0.0674 -1.0486
   17CHTO   H23 7188   4.495   7.744   1.802  0.8490  0.9317  1.6337
   17CHTO   C17 7189   4.319   7.631   1.739 -0.4273 -0.3642 -0.1363
   17CHTO   O12 7190   4.364   7.595   1.609  0.2191 -0.2001  0.1332
   17CHTO    H6 7191   4.330   7.655   1.546  0.6837 -1.8726 -1.7827
   18CHTO  H203 7192   6.073   7.673   2.469  1.1436  0.0674 -2.9069
   18CHTO   O82 7193   5.984   7.690   2.446  0.1571  0.3822  0.7728
   18CHTO  C123 7194   5.955   7.625   2.321 -0.1223 -0.3951 -0.3016
   18CHTO  H227 7195   5.849   7.633   2.295 -0.3490  0.3030  0.7827
   18CHTO   O77 7196   6.041   7.704   2.229  0.7051 -0.3665 -0.1259
   18CHTO  C118 7197   6.027   7.655   2.094 -0.0560  0.4529 -0.4199
   18CHTO  H222 7198   5.919   7.670   2.075  0.1789  1.9594 -0.6098
   18CHTO  C125 7199   6.106   7.756   2.003 -0.7232 -0.0879  0.2743
   18CHTO   O84 7200   6.249   7.772   2.028  0.0888 -0.0634 -0.2655
   18CHTO  H205 7201   6.297   7.697   1.999 -1.1028 -0.9552 -0.0023
   18CHTO  C114 7202   6.056   7.506   2.080  0.0951  0.2071 -0.4187
   18CHTO  H218 7203   6.163   7.489   2.092  0.2562  2.5048  1.8655
   18CHTO  C116 7204   5.990   7.410   2.187  0.1225 -0.9444  0.1071
   18CHTO  H220 7205   5.883   7.403   2.159 -1.0064  4.3753  2.5044
   18CHTO   O79 7206   6.052   7.278   2.176  0.7639 -0.6318  0.4695
   18CHTO  H201 7207   5.990   7.211   2.153  3.5225 -3.2017  0.2214
   18CHTO  C120 7208   5.996   7.475   2.330  0.0868 -0.3465  0.0814
   18CHTO  H224 7209   6.103   7.476   2.358  0.1960  2.9596 -0.2233
   18CHTO   N21 7210   5.913   7.389   2.419 -0.0339 -0.0795  0.2466
   18CHTO  H211 7211   5.810   7.420   2.411  0.4557  1.0056 -2.5880
   18CHTO  H212 7212   5.951   7.399   2.519  0.7757 -1.2018  0.0594
   18CHTO   O75 7213   6.010   7.466   1.947  0.0860  0.0777 -0.1363
   18CHTO  C112 7214   6.134   7.404   1.846 -0.9352 -0.4387 -0.6975
   18CHTO  H216 7215   6.207   7.335   1.891 -0.7039 -1.1469 -2.1586
   18CHTO   O73 7216   6.202   7.519   1.794 -0.0064 -0.3912 -0.0502
   18CHTO  C113 7217   6.296   7.487   1.685 -0.3544 -0.2387 -0.5496
   18CHTO  H217 7218   6.369   7.416   1.729  0.0404 -0.5115 -1.6341
   18CHTO  C124 7219   6.367   7.622   1.657  0.1287 -0.3518 -0.6682
   18CHTO   O83 7220   6.275   7.736   1.647 -0.3211  0.0597 -0.3946
   18CHTO  H204 7221   6.324   7.809   1.680 -0.9810  0.8203 -1.0352
   18CHTO  C109 7222   6.227   7.416   1.562 -0.0364  0.4060  0.5048
   18CHTO  H213 7223   6.152   7.486   1.524 -0.6094 -0.9575 -0.9080
   18CHTO  C110 7224   6.161   7.287   1.618  0.7435 -0.2730  0.6252
   18CHTO  H214 7225   6.234   7.216   1.657  1.3575 -0.1127 -0.2208
   18CHTO   O78 7226   6.092   7.229   1.508  0.3215  0.3275  0.6828
   18CHTO  H200 7227   6.049   7.292   1.453 -1.6176 -0.3518  1.3738
   18CHTO  C111 7228   6.059   7.322   1.734  0.1327  0.7654 -0.5181
   18CHTO  H215 7229   5.987   7.391   1.687 -0.4496 -1.0276 -2.3149
   18CHTO   N19 7230   5.982   7.203   1.787 -0.4895  0.1702 -0.1227
   18CHTO  H207 7231   6.052   7.133   1.830  0.1079 -0.8796 -2.7533
   18CHTO  H208 7232   5.913   7.238   1.863  0.6357  0.2564  0.8650
   18CHTO   O74 7233   6.327   7.394   1.462 -0.0236 -0.2564 -0.3242
   18CHTO  C115 7234   6.262   7.407   1.307  0.6055 -0.1266 -1.1256
   18CHTO  H219 7235   6.176   7.342   1.292 -0.4590  1.0433 -0.0700
   18CHTO   O76 7236   6.200   7.558   1.273 -0.1412 -0.4100 -0.2307
   18CHTO  C122 7237   6.301   7.665   1.288 -0.0063 -0.0751  0.0007
   18CHTO  H226 7238   6.356   7.666   1.382  0.6061 -1.2047 -0.3324
   18CHTO  C126 7239   6.238   7.812   1.285 -0.4862 -0.3320  0.4571
   18CHTO   O85 7240   6.111   7.822   1.347  0.1988  0.6087 -0.0343
   18CHTO  H206 7241   6.054   7.875   1.295 -0.0216  2.0238  1.6150
   18CHTO  C121 7242   6.413   7.638   1.179  0.2861  0.4152  0.4538
   18CHTO  H225 7243   6.408   7.718   1.103  2.5093 -2.7482 -3.2194
   18CHTO   O81 7244   6.549   7.644   1.226 -0.1407 -0.3683 -1.2735
   18CHTO  H202 7245   6.609   7.647   1.154  0.0418 -1.9376 -1.1975
   18CHTO  C119 7246   6.395   7.504   1.105 -0.0582 -0.2199  0.0084
   18CHTO  H223 7247   6.303   7.524   1.050 -0.1793 -1.8523 -0.4029
   18CHTO  C117 7248   6.373   7.382   1.192 -0.1381  0.1636 -0.1331
   18CHTO  H221 7249   6.457   7.342   1.249 -0.9916 -1.9371 -0.3097
   18CHTO   N20 7250   6.329   7.261   1.104  0.7765  0.0687 -0.2669
   18CHTO  H209 7251   6.329   7.177   1.172 -2.4978 -0.4708 -0.8307
   18CHTO  H210 7252   6.231   7.280   1.063  0.7254 -0.6188 -0.4619
   18CHTO   O80 7253   6.500   7.490   0.986  0.1142 -0.3897 -0.5310
   18CHTO  C103 7254   6.443   7.496   0.818 -0.1088 -0.8301 -0.4929
   18CHTO  H190 7255   6.531   7.490   0.754 -0.0201  0.0445 -0.4585
   18CHTO  C101 7256   6.354   7.378   0.771  0.1481 -0.5315  0.2367
   18CHTO  H188 7257   6.279   7.361   0.848  0.8811  2.0954  1.5945
   18CHTO   O68 7258   6.450   7.248   0.757  0.4745  0.3741  0.1987
   18CHTO  H168 7259   6.510   7.257   0.686 -0.0339 -1.6595 -0.5467
   18CHTO   C99 7260   6.283   7.409   0.635  0.6347  0.0138  0.2543
   18CHTO  H186 7261   6.366   7.421   0.562 -0.0480  0.8938 -0.3948
   18CHTO   N17 7262   6.203   7.304   0.575 -0.2317 -0.3497 -0.0656
   18CHTO  H174 7263   6.247   7.208   0.598  2.0276 -0.2661 -3.6273
   18CHTO  H175 7264   6.194   7.334   0.472 -0.6285  0.1277  0.1024
   18CHTO   C97 7265   6.214   7.550   0.649  0.3398  0.0039 -0.7209
   18CHTO  H184 7266   6.152   7.541   0.740  2.8812 -1.2100  0.9400
   18CHTO   O64 7267   6.318   7.650   0.668  0.4039  0.0619 -0.1688
   18CHTO  C104 7268   6.380   7.638   0.795  0.0926 -0.2363 -0.5361
   18CHTO  H191 7269   6.304   7.657   0.870 -0.7211 -0.6657 -1.2394
   18CHTO  C108 7270   6.497   7.741   0.816 -0.5635 -0.2139 -0.6471
   18CHTO   O71 7271   6.596   7.729   0.724 -0.5184 -0.6016  0.3185
   18CHTO  H171 7272   6.634   7.644   0.737 -0.6012 -0.8155 -0.7814
   18CHTO   O62 7273   6.129   7.597   0.542 -0.8702 -0.1416  0.0849
   18CHTO   C91 7274   6.004   7.653   0.580  0.4827  0.6383 -0.3310
   18CHTO  H178 7275   6.009   7.699   0.678 -1.0229 -0.0447  0.0882
   18CHTO   C92 7276   5.889   7.542   0.571 -0.2171 -0.3291 -0.8714
   18CHTO  H179 7277   5.906   7.486   0.477  0.3546  0.6937 -1.3832
   18CHTO   O66 7278   5.908   7.435   0.667 -0.3703 -0.3904  0.4870
   18CHTO  H166 7279   5.980   7.385   0.633  0.9021  1.7075  0.0080
   18CHTO   C93 7280   5.741   7.603   0.590  0.2586  0.1582 -0.6964
   18CHTO  H180 7281   5.733   7.610   0.699 -0.6684 -1.2602 -0.6550
   18CHTO   N16 7282   5.631   7.522   0.539 -0.0921 -0.4928 -0.1306
   18CHTO  H172 7283   5.552   7.517   0.612 -0.3856 -1.9628 -0.5285
   18CHTO  H173 7284   5.657   7.424   0.502  0.0302  0.0861 -1.5890
   18CHTO   C94 7285   5.724   7.747   0.534 -0.1317 -0.0945 -0.3134
   18CHTO  H181 7286   5.707   7.750   0.426  0.6906  2.5964 -0.4107
   18CHTO   O61 7287   5.842   7.824   0.551  0.2785 -0.3902  0.2943
   18CHTO   C95 7288   5.947   7.770   0.478  0.9302 -0.5508  0.2951
   18CHTO  H182 7289   5.907   7.724   0.387 -0.0861  3.1334 -1.2052
   18CHTO  C106 7290   6.046   7.882   0.440 -0.1253  1.0234 -0.3205
   18CHTO   O69 7291   6.012   7.942   0.318  0.1882 -0.4187 -0.1794
   18CHTO  H169 7292   6.020   8.035   0.325 -1.9928 -0.2152  0.0376
   18CHTO   O63 7293   5.599   7.813   0.619  0.2510  0.0535 -0.7348
   18CHTO   C96 7294   5.510   7.914   0.555 -0.7002 -0.3692 -0.3427
   18CHTO  H183 7295   5.533   7.888   0.452 -0.7576 -1.1608 -0.1633
   18CHTO   C98 7296   5.547   8.069   0.578  0.1914 -0.4118  0.0016
   18CHTO  H185 7297   5.553   8.082   0.687  0.4908 -1.6541  0.1416
   18CHTO   O67 7298   5.682   8.098   0.530 -0.1185  0.5981 -0.2639
   18CHTO  H167 7299   5.681   8.190   0.515  1.2635  0.8131  0.8768
   18CHTO  C102 7300   5.441   8.171   0.520  0.2641 -0.0316  0.9647
   18CHTO  H189 7301   5.458   8.168   0.411  0.8600  0.2535  1.0495
   18CHTO   N18 7302   5.457   8.314   0.552 -0.2047 -0.3028 -0.0731
   18CHTO  H176 7303   5.559   8.342   0.531 -0.3487 -0.5968 -1.1864
   18CHTO  H177 7304   5.397   8.372   0.484  0.2280  1.9067  1.3422
   18CHTO  C105 7305   5.291   8.125   0.540  0.6013 -0.2130  0.5281
   18CHTO  H192 7306   5.264   8.128   0.645 -0.2579  2.2565  0.2786
   18CHTO   O65 7307   5.283   7.991   0.495  0.1262  0.2980 -0.2269
   18CHTO  C100 7308   5.361   7.891   0.573 -0.5688  0.0310 -0.2571
   18CHTO  H187 7309   5.320   7.900   0.675 -0.2508 -2.4840  0.1380
   18CHTO  C107 7310   5.328   7.740   0.537  0.4947  0.3358  0.1934
   18CHTO   O70 7311   5.191   7.703   0.528  0.2749 -0.4110 -0.0077
   18CHTO  H170 7312   5.147   7.740   0.454  1.6356 -0.2186 -0.7258
   18CHTO   O57 7313   5.186   8.222   0.464  0.3301  0.7567 -0.8130
   18CHTO   C85 7314   5.048   8.204   0.436 -0.2108 -0.7366  0.0170
   18CHTO  H157 7315   5.026   8.289   0.368 -0.2492  1.4116  2.6230
   18CHTO   C83 7316   4.953   8.225   0.557  0.4002  1.1376 -0.6551
   18CHTO  H155 7317   4.968   8.331   0.576 -2.1039  1.4789 -0.3665
   18CHTO   O56 7318   5.013   8.156   0.668 -0.0753 -0.2782  0.4046
   18CHTO  H135 7319   5.019   8.063   0.662  0.1491 -0.3076  1.0783
   18CHTO   C81 7320   4.804   8.191   0.520 -0.3439 -0.5913 -0.8010
   18CHTO  H153 7321   4.776   8.255   0.436  0.0965  2.1796  1.1030
   18CHTO   N14 7322   4.710   8.242   0.628  0.0999  0.0291  0.5350
   18CHTO  H141 7323   4.628   8.175   0.645 -2.2995  2.5811 -0.6992
   18CHTO  H142 7324   4.770   8.249   0.716  2.6264 -1.0962 -1.0209
   18CHTO   C79 7325   4.801   8.043   0.482  0.5456 -0.1006 -0.3151
   18CHTO  H151 7326   4.703   8.019   0.440 -0.5771  2.1940  0.9165
   18CHTO   O52 7327   4.882   8.025   0.363 -0.3781  0.9222  0.0747
   18CHTO   C86 7328   5.023   8.064   0.372 -0.0349  0.4241 -0.1114
   18CHTO  H158 7329   5.061   7.975   0.427 -1.1387 -0.7024 -1.1629
   18CHTO   C90 7330   5.093   8.062   0.229  0.0664 -0.5647 -0.3332
   18CHTO   O60 7331   5.132   7.928   0.208 -0.0801 -0.0053  0.2192
   18CHTO  H138 7332   5.111   7.897   0.121  1.9216 -1.8004  0.3407
   18CHTO   O50 7333   4.838   7.957   0.584  0.2242  0.3368  0.2156
   18CHTO   C73 7334   4.846   7.816   0.591  0.6586 -0.3067  0.3644
   18CHTO  H145 7335   4.928   7.789   0.523 -0.3658  0.4152 -1.1943
   18CHTO   C74 7336   4.713   7.745   0.540 -0.4296  0.3453 -0.3017
   18CHTO  H146 7337   4.697   7.773   0.434 -1.3212  0.8079 -0.0489
   18CHTO   O54 7338   4.736   7.603   0.540 -0.1987 -0.5053 -0.0499
   18CHTO  H133 7339   4.657   7.556   0.521 -1.6569  1.3576  1.1667
   18CHTO   C75 7340   4.594   7.789   0.636  0.4156  1.1772 -0.2947
   18CHTO  H147 7341   4.576   7.894   0.609 -0.7882  0.6072 -1.7992
   18CHTO   N13 7342   4.468   7.719   0.622 -0.4771  0.2104  0.5044
   18CHTO  H139 7343   4.398   7.737   0.702 -1.5761  1.3141 -0.6746
   18CHTO  H140 7344   4.488   7.614   0.604 -0.2101  0.4814 -0.8929
   18CHTO   C76 7345   4.646   7.786   0.791  0.0579 -0.0404 -0.3016
   18CHTO  H148 7346   4.641   7.681   0.817 -2.9972 -0.2032 -1.3395
   18CHTO   O49 7347   4.783   7.841   0.821 -0.2566 -0.3485 -0.5916
   18CHTO   C77 7348   4.885   7.782   0.738  0.1735  0.2199 -0.7980
   18CHTO  H149 7349   4.896   7.674   0.743 -1.7561  0.0756  1.1541
   18CHTO   C88 7350   5.023   7.844   0.772  0.4803  0.1964 -0.0405
   18CHTO   O58 7351   5.055   7.815   0.907  0.3195 -0.7199 -0.5980
   18CHTO  H136 7352   5.146   7.837   0.914  0.0557  0.1944  0.0457
   18CHTO   O51 7353   4.534   7.889   0.895 -0.6082  1.0588  0.2855
   18CHTO   C78 7354   4.604   7.900   1.053 -0.1063  0.9794 -0.3984
   18CHTO  H150 7355   4.715   7.906   1.047  0.0414 -0.4872  0.4485
   18CHTO   C80 7356   4.570   7.777   1.142 -0.5399  0.5325  0.2528
   18CHTO  H152 7357   4.460   7.769   1.151 -0.4197 -0.0294  1.3969
   18CHTO   O55 7358   4.625   7.656   1.076  0.3308  0.9133 -0.1660
   18CHTO  H134 7359   4.563   7.586   1.076  1.7028 -0.3200  0.8932
   18CHTO   C84 7360   4.627   7.798   1.287 -0.1024  0.0561 -0.7242
   18CHTO  H156 7361   4.736   7.788   1.288  0.0809  1.4591  2.6164
   18CHTO   N15 7362   4.576   7.693   1.378  0.3983 -0.7204 -0.4673
   18CHTO  H143 7363   4.472   7.695   1.403 -0.3776 -0.1555 -3.5305
   18CHTO  H144 7364   4.597   7.600   1.330 -1.9135 -1.4555 -0.0990
   18CHTO   C87 7365   4.598   7.935   1.348  0.0817  0.4652 -0.2139
   18CHTO  H159 7366   4.493   7.944   1.376 -0.3210  1.3810 -1.9473
   18CHTO   O53 7367   4.630   8.041   1.248  0.3503 -0.1285 -0.1435
   18CHTO   C82 7368   4.550   8.023   1.131  0.4341 -0.6317  0.1815
   18CHTO  H154 7369   4.446   8.005   1.158  0.0688  0.3695 -0.5237
   18CHTO   C89 7370   4.556   8.148   1.038  0.6955  0.1153  0.0482
   18CHTO   O59 7371   4.480   8.265   1.071 -0.3672 -0.1427  0.0316
   18CHTO  H137 7372   4.390   8.239   1.082 -0.6883  0.5808 -0.8219
   18CHTO   O45 7373   4.700   7.945   1.497  0.0316 -0.4150  1.2062
   18CHTO   C67 7374   4.845   7.947   1.479 -0.3287 -0.4459 -0.1941
   18CHTO  H124 7375   4.880   7.861   1.421 -1.8119 -1.1662 -0.0522
   18CHTO   C65 7376   4.894   8.088   1.416 -0.0667 -0.0126 -0.3549
   18CHTO  H122 7377   4.809   8.156   1.428  0.0198  0.1973 -0.9380
   18CHTO   O44 7378   4.910   8.068   1.274 -0.4328 -0.1600  0.1496
   18CHTO  H102 7379   4.875   7.986   1.246 -0.4848 -0.5317  1.3177
   18CHTO   C63 7380   5.003   8.163   1.504 -0.8077 -0.2655  0.4775
   18CHTO  H120 7381   4.953   8.199   1.594  2.5619  0.1936  2.2195
   18CHTO   N11 7382   5.054   8.284   1.438  0.0901  0.2277 -0.0171
   18CHTO  H108 7383   5.016   8.374   1.483 -0.5649  0.4187 -0.9549
   18CHTO  H109 7384   5.159   8.282   1.416  0.2475 -0.3106  0.7626
   18CHTO   C61 7385   5.112   8.065   1.549 -0.2945  0.3772  0.5738
   18CHTO  H118 7386   5.171   8.112   1.629 -0.2159 -2.2127  2.0763
   18CHTO   O40 7387   5.059   7.944   1.606  0.2630  0.5692 -0.2826
   18CHTO   C68 7388   4.914   7.927   1.621  0.4239 -0.2964 -0.3361
   18CHTO  H125 7389   4.872   7.996   1.697  1.3870 -1.4003  1.2279
   18CHTO   C72 7390   4.887   7.784   1.683  0.5515  0.2511  0.0302
   18CHTO   O48 7391   4.942   7.672   1.605 -0.0218  0.1278  0.4183
   18CHTO  H105 7392   4.900   7.655   1.523  1.6410  0.7414 -0.5869
   18CHTO   O38 7393   5.196   8.035   1.434  0.0282 -0.1650  0.0528
   18CHTO   C55 7394   5.314   7.958   1.442  0.5227  0.2365 -0.5568
   18CHTO  H112 7395   5.308   7.915   1.543  0.7013  1.3975 -0.0509
   18CHTO   C56 7396   5.447   8.042   1.429 -0.3273 -0.8603  0.3290
   18CHTO  H113 7397   5.432   8.099   1.336  2.5897 -2.3086 -1.1242
   18CHTO   O42 7398   5.458   8.145   1.530  0.2221  0.3982  0.0188
   18CHTO  H100 7399   5.379   8.195   1.533 -0.2961 -0.4399  0.2978
   18CHTO   C57 7400   5.581   7.957   1.420  0.0087 -0.2102 -0.7240
   18CHTO  H114 7401   5.598   7.924   1.523  0.0253 -0.1471 -0.7065
   18CHTO   N10 7402   5.704   8.029   1.381 -0.4592 -0.0177  0.0180
   18CHTO  H106 7403   5.756   8.064   1.470  1.6303 -1.0040 -0.7921
   18CHTO  H107 7404   5.770   7.961   1.329 -1.0651  0.6279 -1.6283
   18CHTO   C58 7405   5.559   7.833   1.332 -0.4936 -1.4000 -0.6522
   18CHTO  H115 7406   5.558   7.859   1.224 -2.1057  0.3256 -0.2576
   18CHTO   O37 7407   5.433   7.768   1.349  0.1480 -0.5450 -0.6922
   18CHTO   C59 7408   5.314   7.840   1.340 -0.1873  0.6009  0.5107
   18CHTO  H116 7409   5.294   7.877   1.239 -0.8099  1.6929  1.0203
   18CHTO   C70 7410   5.188   7.753   1.365  0.8672  0.0861  0.0884
   18CHTO   O46 7411   5.198   7.625   1.299  0.6542  0.0030 -0.3173
   18CHTO  H103 7412   5.268   7.576   1.337  1.5476  0.0154 -1.9153
   18CHTO   O39 7413   5.666   7.719   1.366  0.2636  0.1863 -0.3961
   18CHTO   C60 7414   5.640   7.641   1.483  0.0825 -0.6574 -0.3172
   18CHTO  H117 7415   5.597   7.707   1.558  1.7537  1.2158 -0.9834
   18CHTO   C62 7416   5.548   7.524   1.455  0.6012  0.6651 -0.0282
   18CHTO  H119 7417   5.460   7.562   1.400  1.0900  2.2156  0.2395
   18CHTO   O43 7418   5.610   7.433   1.366  0.4002  0.2765  0.0137
   18CHTO  H101 7419   5.681   7.395   1.415  0.8110 -0.4031 -1.0948
   18CHTO   C66 7420   5.496   7.481   1.598  0.5017  0.6828 -0.0432
   18CHTO  H123 7421   5.458   7.565   1.657  0.3361  1.1464 -0.8080
   18CHTO   N12 7422   5.376   7.391   1.579  0.5530  0.3342  0.4582
   18CHTO  H110 7423   5.328   7.423   1.488 -0.6263  1.7430  1.5435
   18CHTO  H111 7424   5.305   7.403   1.659  2.0550  1.4558  1.6491
   18CHTO   C69 7425   5.612   7.404   1.673 -0.1941  0.5395  0.0912
   18CHTO  H126 7426   5.641   7.307   1.627  0.7935  1.6082 -1.6105
   18CHTO   O41 7427   5.746   7.505   1.675 -0.6096 -0.5059  0.1366
   18CHTO   C64 7428   5.769   7.581   1.543 -0.2109 -0.0514 -0.2933
   18CHTO  H121 7429   5.817   7.515   1.468  1.2134  0.2401  0.3401
   18CHTO   C71 7430   5.861   7.703   1.586 -0.4522  0.3156 -0.1030
   18CHTO   O47 7431   5.992   7.666   1.629 -0.2440 -0.3118 -0.0051
   18CHTO  H104 7432   6.027   7.739   1.677 -0.4099 -1.1792  1.4400
   18CHTO   O34 7433   5.563   7.378   1.823  0.0206  0.5675 -0.1407
   18CHTO   C49 7434   5.560   7.449   1.956  0.3936 -0.5085  0.5651
   18CHTO   H91 7435   5.634   7.406   2.024  0.0496 -1.3622  0.3986
   18CHTO   C47 7436   5.420   7.440   2.026 -0.6378 -0.4833 -0.6701
   18CHTO   H89 7437   5.438   7.491   2.122 -1.4991 -1.0047 -0.2204
   18CHTO   O33 7438   5.400   7.301   2.049 -0.2747  0.1400  0.1692
   18CHTO   H70 7439   5.333   7.282   2.112 -1.2821  0.2734 -0.8427
   18CHTO   C45 7440   5.308   7.510   1.934  0.5727 -0.3432  0.1511
   18CHTO   H87 7441   5.292   7.458   1.838 -3.1945  3.8207 -1.6939
   18CHTO    N8 7442   5.179   7.504   2.001  0.3430  0.7987  0.2964
   18CHTO   H75 7443   5.169   7.405   2.043 -0.8795 -0.0137 -1.8177
   18CHTO   H76 7444   5.100   7.512   1.927  1.5065  0.9421 -0.9462
   18CHTO   C43 7445   5.355   7.670   1.879 -0.8089 -0.4007  0.2609
   18CHTO   H85 7446   5.293   7.690   1.792 -1.5366 -0.1092  0.8361
   18CHTO   O29 7447   5.497   7.675   1.855  0.2680 -1.4117 -0.1380
   18CHTO   C50 7448   5.590   7.602   1.940  0.1595  0.5711 -0.1315
   18CHTO   H92 7449   5.694   7.607   1.904 -0.2341  0.2193 -1.3510
   18CHTO   C54 7450   5.604   7.679   2.072 -0.2734 -0.7506 -0.6773
   18CHTO   O36 7451   5.644   7.813   2.057 -0.0042 -0.2124  0.6228
   18CHTO   H72 7452   5.658   7.852   2.141 -0.5713  1.9326 -0.2298
   18CHTO   O27 7453   5.320   7.775   1.972  0.6952  0.2167 -0.0373
   18CHTO   C37 7454   5.275   7.904   2.014 -0.1501 -0.1028  0.7534
   18CHTO   H79 7455   5.318   7.922   2.113 -1.7853  2.9969  0.9797
   18CHTO   C38 7456   5.308   8.006   1.907  0.9594  0.4191 -0.2166
   18CHTO   H80 7457   5.258   7.972   1.815 -0.5335 -0.8864  1.0293
   18CHTO   O31 7458   5.448   8.017   1.881 -0.4818  0.1852 -0.1515
   18CHTO   H68 7459   5.479   7.948   1.825  0.3141  0.2222  0.2465
   18CHTO   C39 7460   5.238   8.138   1.935  0.3295 -0.0459 -0.3549
   18CHTO   H81 7461   5.271   8.183   2.028  0.1805  0.0435 -0.3438
   18CHTO    N7 7462   5.262   8.249   1.837 -0.8779  0.4965 -0.4370
   18CHTO   H73 7463   5.203   8.255   1.747 -0.0295  0.4991 -0.9972
   18CHTO   H74 7464   5.276   8.344   1.885  0.5113 -0.6027  1.4280
   18CHTO   C40 7465   5.082   8.124   1.949  0.4182  0.1091  0.4255
   18CHTO   H82 7466   5.042   8.100   1.850  2.5427  0.4211 -0.5205
   18CHTO   O26 7467   5.055   8.023   2.045 -0.1586  0.2837 -0.2017
   18CHTO   C41 7468   5.120   7.892   2.032 -0.2275 -0.6650 -0.1953
   18CHTO   H83 7469   5.090   7.835   1.943 -2.2085  0.4835 -0.2755
   18CHTO   C52 7470   5.081   7.812   2.159  0.3814 -0.1211 -0.3457
   18CHTO   O35 7471   5.080   7.888   2.294  0.3550 -0.4970  0.5797
   18CHTO   H71 7472   5.042   7.838   2.363 -0.6228 -0.1935  0.2724
   18CHTO   O28 7473   5.011   8.238   2.002  0.0844  0.2591  0.0634
   18CHTO   C42 7474   4.861   8.256   1.991 -0.5297  0.6115  0.1474
   18CHTO   H84 7475   4.853   8.345   2.053  3.0019  1.1912 -0.1344
   18CHTO   C44 7476   4.766   8.152   2.052  0.0319  0.4466  0.3604
   18CHTO   H86 7477   4.772   8.061   1.993 -0.7039  1.5018 -1.3629
   18CHTO   O32 7478   4.821   8.121   2.180 -0.0747  0.4870  0.1037
   18CHTO   H69 7479   4.786   8.043   2.218  2.4063 -1.8417 -2.2336
   18CHTO   C48 7480   4.615   8.204   2.054  0.0619 -0.1076  0.0271
   18CHTO   H90 7481   4.626   8.305   2.094  0.1918 -0.6747  1.4352
   18CHTO    N9 7482   4.537   8.113   2.145 -0.2007  0.7654  0.4250
   18CHTO   H77 7483   4.589   8.117   2.239  1.2292 -0.3288 -0.2856
   18CHTO   H78 7484   4.527   8.014   2.103  0.4942  0.5621  0.7299
   18CHTO   C51 7485   4.577   8.221   1.910 -0.0161  0.2786 -0.7869
   18CHTO   H93 7486   4.585   8.122   1.866 -1.4026 -0.3502  0.3077
   18CHTO   O30 7487   4.655   8.311   1.842  0.3561 -0.2489  0.1279
   18CHTO   C46 7488   4.812   8.292   1.851  0.1575 -0.5884  0.3832
   18CHTO   H88 7489   4.855   8.217   1.784 -0.1504 -1.1167  0.7667
   18CHTO   C53 7490   4.865   8.429   1.813 -0.1185  0.2531  0.0113
   18CHTO   O72 7491   5.005   8.450   1.785 -0.1468  0.0117 -0.1376
   18CHTO  H199 7492   5.054   8.457   1.865  2.4151 -1.7582 -1.4855
   18CHTO   O22 7493   4.455   8.290   1.905 -0.1049 -0.3884 -0.1906
   18CHTO   C31 7494   4.363   8.276   1.788 -0.2286 -0.1146 -0.9364
   18CHTO   H59 7495   4.284   8.350   1.813  1.5084  0.9409  1.7366
   18CHTO   C29 7496   4.417   8.303   1.651  0.1029  0.5450  0.0138
   18CHTO   H57 7497   4.512   8.248   1.644  0.5323  1.2677  0.1460
   18CHTO   O21 7498   4.453   8.445   1.656  0.3012  0.0342  0.0528
   18CHTO   H37 7499   4.506   8.473   1.583  0.5685 -0.6704 -0.0294
   18CHTO   C27 7500   4.308   8.268   1.538 -0.5186  0.4035  0.3594
   18CHTO   H55 7501   4.229   8.343   1.552  0.8803  1.7070  1.3001
   18CHTO    N5 7502   4.354   8.278   1.402  0.6270  0.1242  0.2834
   18CHTO   H43 7503   4.285   8.343   1.351  0.4048 -1.7637 -1.8985
   18CHTO   H44 7504   4.451   8.326   1.409  0.1946  1.1774 -0.7739
   18CHTO   C25 7505   4.243   8.133   1.564  0.9908 -0.8240 -0.1123
   18CHTO   H53 7506   4.313   8.048   1.557 -1.3341 -3.0121  2.2197
   18CHTO   O17 7507   4.190   8.128   1.699 -0.2047 -0.2770  0.8616
   18CHTO   C32 7508   4.294   8.142   1.797 -0.4995 -0.3463  0.0198
   18CHTO   H60 7509   4.368   8.064   1.783 -1.7554 -1.4893 -0.4220
   18CHTO   C36 7510   4.222   8.111   1.933  0.0602 -0.6950 -0.1143
   18CHTO   O25 7511   4.197   7.970   1.947  0.0807 -0.5155  0.1296
   18CHTO   H40 7512   4.107   7.958   1.972  0.1731  1.5428  1.5726
   18CHTO   O15 7513   4.094   8.096   1.475  0.7562  0.9385  0.0584
   18CHTO   C19 7514   4.072   7.985   1.383 -0.1097  0.4969 -0.0197
   18CHTO   H47 7515   3.969   7.998   1.347  0.2372 -2.2288 -2.2365
   18CHTO   C20 7516   4.171   7.986   1.256 -0.3736  0.6826 -0.2816
   18CHTO   H48 7517   4.277   7.979   1.284 -0.3294  0.3443 -0.5340
   18CHTO   O19 7518   4.165   8.120   1.201  0.1125 -0.0594  0.0070
   18CHTO   H35 7519   4.221   8.122   1.125  1.4137 -1.2305  0.9181
   18CHTO   C21 7520   4.113   7.871   1.161 -0.3258 -0.3602 -0.2041
   18CHTO   H49 7521   4.006   7.894   1.156 -0.0791  0.7491 -0.7207
   18CHTO    N4 7522   4.147   7.882   1.022  0.0101 -0.4402 -0.2543
   18CHTO   H41 7523   4.215   7.802   0.998  1.3598 -0.0915  2.1413
   18CHTO   H42 7524   4.058   7.879   0.961 -0.5261 -0.3335  0.5099
   18CHTO   C22 7525   4.152   7.742   1.232 -0.1592  0.1013  0.5906
   18CHTO   H50 7526   4.254   7.752   1.268  0.7111  0.3184 -1.8230
   18CHTO   O14 7527   4.054   7.731   1.340  0.0689  0.2878 -0.2521
   18CHTO   C23 7528   4.075   7.838   1.433 -0.5576  0.2428 -0.6245
   18CHTO   H51 7529   4.169   7.810   1.484 -1.2520 -1.3966 -0.2236
   18CHTO   C34 7530   3.960   7.824   1.538  0.1554 -0.6368  0.4443
   18CHTO   O23 7531   3.926   7.690   1.569  0.5897  0.1674  0.4753
   18CHTO   H38 7532   3.837   7.681   1.596  1.1629  0.7316  2.6533
   18CHTO   O16 7533   4.141   7.620   1.156  0.6141 -0.3843 -0.5791
   18CHTO   C24 7534   4.281   7.528   1.143 -0.4209  0.6773  0.1306
   18CHTO   H52 7535   4.364   7.570   1.199 -0.4434  0.5280  0.2744
   18CHTO   C26 7536   4.315   7.518   0.995  0.2837  0.6126  0.0740
   18CHTO   H54 7537   4.222   7.488   0.943 -0.6246  0.5560  1.6846
   18CHTO   O20 7538   4.342   7.648   0.940 -0.6891 -0.2497  0.6116
   18CHTO   H36 7539   4.292   7.714   0.984 -0.0134  0.3568  0.4725
   18CHTO   C30 7540   4.426   7.407   0.966 -0.9141  0.7603 -0.0884
   18CHTO   H58 7541   4.531   7.436   0.984 -0.3100 -0.7411 -1.0699
   18CHTO    N6 7542   4.434   7.390   0.819  0.0671  0.9483  0.1301
   18CHTO   H45 7543   4.493   7.469   0.775  0.2045  0.8493  0.1375
   18CHTO   H46 7544   4.337   7.388   0.771 -1.2094 -0.8029  2.6697
   18CHTO   C33 7545   4.403   7.283   1.055 -0.2189 -0.5098  0.1608
   18CHTO   H61 7546   4.317   7.226   1.017 -0.3367  0.4594 -1.0764
   18CHTO   O18 7547   4.381   7.316   1.196 -0.2821  0.3430 -0.3617
   18CHTO   C28 7548   4.256   7.387   1.201  0.2485  0.0094  0.0321
   18CHTO   H56 7549   4.181   7.334   1.144  0.6723 -3.2687  2.3501
   18CHTO   C35 7550   4.197   7.399   1.337 -0.8671  0.3942  0.2642
   18CHTO   O24 7551   4.177   7.272   1.396  0.2115  0.1782  0.3598
   18CHTO   H39 7552   4.257   7.238   1.431 -0.4887 -0.2429  1.5762
   18CHTO    O9 7553   4.516   7.201   1.033  0.2836  0.4356  0.1430
   18CHTO   C13 7554   4.638   7.192   1.147  0.4935  0.2192  0.4597
   18CHTO   H26 7555   4.591   7.191   1.248  2.5256  1.5108  1.4563
   18CHTO   C11 7556   4.723   7.322   1.127 -0.0533  0.0526 -0.4362
   18CHTO   H24 7557   4.654   7.405   1.149 -2.3537 -1.4190 -1.9925
   18CHTO    O8 7558   4.775   7.346   0.994  0.4331  0.3794 -0.2087
   18CHTO    H3 7559   4.708   7.333   0.928  0.1216  0.7395  0.0330
   18CHTO    C9 7560   4.832   7.322   1.236 -0.7720 -0.1146 -0.7314
   18CHTO   H22 7561   4.776   7.300   1.328 -0.2428  1.5882  0.0062
   18CHTO    N2 7562   4.897   7.455   1.262 -0.3113 -0.0111 -0.0205
   18CHTO   H10 7563   4.989   7.446   1.317  0.4805  1.7130 -1.0016
   18CHTO   H11 7564   4.829   7.531   1.301 -0.1453 -0.4574  1.1666
   18CHTO    C7 7565   4.929   7.191   1.207  0.6317  1.3358 -0.6300
   18CHTO   H20 7566   4.995   7.189   1.297 -3.5560 -2.9427  2.5954
   18CHTO    O4 7567   4.847   7.077   1.210  0.5360  0.3512 -0.3933
   18CHTO   C14 7568   4.731   7.069   1.130 -0.6307  0.1396  0.4749
   18CHTO   H27 7569   4.679   6.983   1.177  2.5226 -1.9044  0.3232
   18CHTO   C18 7570   4.764   7.031   0.982 -0.8431 -0.0738 -0.1522
   18CHTO   O13 7571   4.825   6.900   0.977  0.6233  0.0090  0.3713
   18CHTO    H7 7572   4.848   6.862   0.895 -3.1750 -0.6754 -0.4680
   18CHTO    O2 7573   5.027   7.185   1.060 -0.3526  0.0913  0.2047
   18CHTO    C1 7574   5.169   7.222   1.045 -0.6846  0.5506  0.3384
   18CHTO   H14 7575   5.202   7.186   0.945  1.3714  0.1639  1.1327
   18CHTO    C2 7576   5.271   7.168   1.152  0.5244  0.0876 -0.0484
   18CHTO   H15 7577   5.243   7.214   1.248 -2.2042 -1.8291  0.1596
   18CHTO    O6 7578   5.262   7.023   1.147  0.3406  0.6719  0.4380
   18CHTO    H1 7579   5.187   6.989   1.191  1.1973  1.1198  2.2697
   18CHTO    C3 7580   5.415   7.212   1.107 -0.8033 -0.3309  0.1780
   18CHTO   H16 7581   5.425   7.175   1.004 -0.7324  0.0772  0.0338
   18CHTO    N1 7582   5.525   7.168   1.196  0.3619 -0.1365 -0.0372
   18CHTO    H8 7583   5.571   7.077   1.161 -2.2259 -0.7003 -2.1073
   18CHTO    H9 7584   5.595   7.250   1.198 -0.9067  0.9465  1.2305
   18CHTO    C4 7585   5.417   7.369   1.087 -0.1522  0.2724 -0.1661
   18CHTO   H17 7586   5.418   7.418   1.184 -0.1427  1.4502 -0.7544
   18CHTO    O1 7587   5.310   7.432   1.015 -0.2674 -0.0614 -0.3607
   18CHTO    C5 7588   5.175   7.377   1.042  0.2912 -0.5404  0.6495
   18CHTO   H18 7589   5.149   7.401   1.145  1.4949 -0.2835  0.8978
   18CHTO   C16 7590   5.087   7.450   0.935 -0.4771 -0.5004 -0.0117
   18CHTO   O11 7591   5.139   7.444   0.794  0.1540 -0.2000 -0.4127
   18CHTO    H5 7592   5.231   7.462   0.790  0.2026  0.2011  1.6911
   18CHTO    O3 7593   5.529   7.410   1.006  0.3584  0.0888 -0.0343
   18CHTO    C6 7594   5.606   7.529   1.041  0.6111 -0.1139  0.8113
   18CHTO   H19 7595   5.579   7.559   1.143 -0.8378  1.0461  0.1059
   18CHTO    C8 7596   5.762   7.497   1.039 -0.4850 -0.2052  0.2518
   18CHTO   H21 7597   5.786   7.456   0.941 -1.3951  0.1488 -0.1247
   18CHTO    O7 7598   5.783   7.405   1.148 -0.2837 -0.3576  0.9915
   18CHTO    H2 7599   5.718   7.339   1.159 -0.2426 -0.3595  1.2573
   18CHTO   C12 7600   5.853   7.626   1.054  0.0670  0.2901 -0.0019
   18CHTO   H25 7601   5.841   7.668   1.156  0.7666 -0.4430  0.3880
   18CHTO    N3 7602   6.003   7.592   1.036 -0.0173 -0.0163  0.2270
   18CHTO   H12 7603   6.057   7.684   1.054 -0.2830  0.0729  0.5873
   18CHTO   H13 7604   6.038   7.514   1.101  1.6953  2.7419  2.7031
   18CHTO   C15 7605   5.810   7.735   0.955  0.4450 -0.0981  0.2893
   18CHTO   H28 7606   5.838   7.715   0.852 -0.7884 -0.0930 -0.0557
   18CHTO   O10 7607   5.864   7.858   0.993  0.1751 -0.0726  0.1004
   18CHTO    H4 7608   5.825   7.891   1.071 -0.1062 -0.7374  0.2408
   18CHTO    O5 7609   5.671   7.766   0.965 -0.1704  0.5643  0.2198
   18CHTO   C10 7610   5.579   7.653   0.951  0.0967  0.3843  0.1335
   18CHTO   H23 7611   5.571   7.620   0.848 -2.5043  0.4851  0.2658
   18CHTO   C17 7612   5.445   7.718   0.980 -0.0659  0.8792  0.0610
   18CHTO   O12 7613   5.409   7.825   0.886  0.3280  0.0184  0.5891
   18CHTO    H6 7614   5.356   7.889   0.930 -1.2764 -2.0037  1.6724
   19CHTO  H203 7615   5.241   9.434   3.012 -0.1333 -1.2766 -0.1798
   19CHTO   O82 7616   5.175   9.454   2.949  0.2162 -0.0384 -0.1545
   19CHTO  C123 7617   5.132   9.348   2.864 -0.8050 -0.3277  0.4626
   19CHTO  H227 7618   5.105   9.388   2.765  3.3837  1.9749  0.1414
   19CHTO   O77 7619   5.240   9.263   2.845 -0.2145 -0.4937  0.1234
   19CHTO  C118 7620   5.208   9.176   2.736 -0.3680 -0.5489 -0.1453
   19CHTO  H222 7621   5.155   9.218   2.650 -0.9385  0.4751  0.6975
   19CHTO  C125 7622   5.346   9.110   2.685  0.3977 -0.1879 -0.3999
   19CHTO   O84 7623   5.424   9.197   2.603  0.3124 -0.1347  0.1553
   19CHTO  H205 7624   5.375   9.230   2.531  2.6710  0.9450 -1.0174
   19CHTO  C114 7625   5.114   9.075   2.799  0.0363  0.0950 -0.1507
   19CHTO  H218 7626   5.163   9.026   2.883  1.3648 -0.2306 -1.1026
   19CHTO  C116 7627   4.979   9.138   2.852 -0.4011 -1.0616  0.1665
   19CHTO  H220 7628   4.904   9.161   2.773 -0.4456  0.1678  0.5562
   19CHTO   O79 7629   4.900   9.043   2.930 -0.8007  0.1472 -0.2103
   19CHTO  H201 7630   4.852   9.096   2.991  1.1650  1.4439  0.2305
   19CHTO  C120 7631   5.015   9.272   2.932 -0.3096 -0.6257  0.6044
   19CHTO  H224 7632   5.059   9.244   3.030  0.9725  0.6748  0.4155
   19CHTO   N21 7633   4.898   9.355   2.966 -0.0644  0.2308  0.2613
   19CHTO  H211 7634   4.905   9.400   3.064 -4.1300 -1.1798  1.3015
   19CHTO  H212 7635   4.844   9.422   2.900  0.1591  0.9822  0.8348
   19CHTO   O75 7636   5.095   8.967   2.712 -1.2362 -0.2575  0.3972
   19CHTO  C112 7637   5.155   8.802   2.762 -0.8938 -0.7831  1.9545
   19CHTO  H216 7638   5.149   8.792   2.872 -0.2155 -0.4966  2.0264
   19CHTO   O73 7639   5.290   8.796   2.715  0.5530 -0.1047  0.3200
   19CHTO  C113 7640   5.347   8.672   2.763 -0.1239  0.0176 -0.0006
   19CHTO  H217 7641   5.334   8.664   2.873  1.8361  1.3924  0.3652
   19CHTO  C124 7642   5.502   8.675   2.737  0.3863  0.1537  0.8309
   19CHTO   O83 7643   5.561   8.790   2.802 -0.7630 -0.0802  0.3513
   19CHTO  H204 7644   5.582   8.845   2.729 -0.1419 -0.2005  0.4342
   19CHTO  C109 7645   5.283   8.554   2.696 -0.2859 -0.5252  0.0498
   19CHTO  H213 7646   5.301   8.572   2.589  1.3695  1.1844  0.5842
   19CHTO  C110 7647   5.131   8.554   2.737  0.3878 -0.1028  0.9907
   19CHTO  H214 7648   5.121   8.536   2.844  0.2142  1.4772  1.2498
   19CHTO   O78 7649   5.063   8.446   2.663 -0.2673 -0.2934 -0.1409
   19CHTO  H200 7650   5.105   8.364   2.679 -1.3356 -0.5873  1.2389
   19CHTO  C111 7651   5.063   8.692   2.700  0.1900 -0.2058 -0.3066
   19CHTO  H215 7652   5.075   8.719   2.594  1.9284  0.1019 -0.0541
   19CHTO   N19 7653   4.919   8.705   2.734  0.4970 -0.7621 -0.1199
   19CHTO  H207 7654   4.863   8.662   2.652 -0.7919  1.7184 -0.5713
   19CHTO  H208 7655   4.901   8.662   2.832  3.6405  0.0533  0.8716
   19CHTO   O74 7656   5.343   8.429   2.734  0.4469 -0.4356 -0.7813
   19CHTO  C115 7657   5.389   8.341   2.590  0.4514  0.0985 -0.6376
   19CHTO  H219 7658   5.378   8.399   2.499  0.0550 -0.6663 -1.0835
   19CHTO   O76 7659   5.525   8.307   2.590  0.7508  0.4219  0.0662
   19CHTO  C122 7660   5.570   8.245   2.712 -0.1408  0.1852 -0.0904
   19CHTO  H226 7661   5.559   8.318   2.792  1.5598 -0.9634  1.2261
   19CHTO  C126 7662   5.726   8.222   2.705 -0.7722 -0.2233  0.0998
   19CHTO   O85 7663   5.805   8.339   2.682  0.3461 -0.2886 -0.1109
   19CHTO  H206 7664   5.895   8.320   2.699  0.6096  0.5189 -0.5914
   19CHTO  C121 7665   5.495   8.112   2.753  0.0317 -0.0068  0.3303
   19CHTO  H225 7666   5.565   8.026   2.751 -0.1742 -0.1843  0.5595
   19CHTO   O81 7667   5.422   8.138   2.878  0.3436  0.4703 -0.0348
   19CHTO  H202 7668   5.469   8.097   2.949  1.1876 -0.9535 -1.3927
   19CHTO  C119 7669   5.381   8.083   2.645 -0.2437  0.3512  0.1668
   19CHTO  H223 7670   5.441   8.048   2.561 -2.3748 -3.1600 -0.0171
   19CHTO  C117 7671   5.297   8.208   2.588  0.5846  0.2721  0.0063
   19CHTO  H221 7672   5.214   8.239   2.650  0.6570  0.6729 -0.0981
   19CHTO   N20 7673   5.233   8.196   2.451 -0.4117 -0.5798  0.4717
   19CHTO  H209 7674   5.302   8.186   2.368 -1.2856 -0.1718 -0.3088
   19CHTO  H210 7675   5.156   8.120   2.448 -1.4515  0.4502  0.6257
   19CHTO   O80 7676   5.293   7.952   2.677  0.7232 -0.1882  0.3152
   19CHTO  C103 7677   5.301   7.827   2.581  0.2729  0.2324 -0.1234
   19CHTO  H190 7678   5.278   7.863   2.480 -0.8952  0.4882  0.2242
   19CHTO  C101 7679   5.438   7.748   2.577  0.7150 -0.5733  0.2236
   19CHTO  H188 7680   5.471   7.712   2.675  0.2118  0.3396  0.7304
   19CHTO   O68 7681   5.570   7.842   2.528 -0.0047  0.2926 -0.0344
   19CHTO  H168 7682   5.541   7.871   2.444  1.3959  1.4215 -0.1484
   19CHTO   C99 7683   5.421   7.622   2.473  0.2927  0.9293  0.5675
   19CHTO  H186 7684   5.401   7.652   2.368  3.3328 -0.8255 -0.5924
   19CHTO   N17 7685   5.543   7.535   2.466  0.0663 -0.5534 -0.4778
   19CHTO  H174 7686   5.607   7.543   2.552 -1.2966  0.0217  0.4969
   19CHTO  H175 7687   5.517   7.432   2.445 -1.4403 -0.1150 -0.8385
   19CHTO   C97 7688   5.291   7.541   2.515  0.0221  0.4934  0.7802
   19CHTO  H184 7689   5.309   7.485   2.608 -2.7169 -1.0529  0.4423
   19CHTO   O64 7690   5.180   7.627   2.525  0.4814 -0.3356 -0.1869
   19CHTO  C104 7691   5.188   7.733   2.619  0.1498  0.6056 -0.8907
   19CHTO  H191 7692   5.200   7.696   2.720  0.5442  2.1729 -0.3529
   19CHTO  C108 7693   5.046   7.803   2.621 -0.0987 -0.4029 -0.0167
   19CHTO   O71 7694   4.939   7.734   2.696 -0.8425 -0.2250 -0.1686
   19CHTO  H171 7695   4.984   7.707   2.774 -0.8591 -1.8187 -0.6803
   19CHTO   O62 7696   5.255   7.452   2.408 -0.0907 -0.4404 -0.9127
   19CHTO   C91 7697   5.157   7.345   2.432 -0.3264  0.2026 -0.3269
   19CHTO  H178 7698   5.106   7.370   2.524  1.6627 -0.8193  1.0964
   19CHTO   C92 7699   5.234   7.206   2.447  0.9640 -0.0906 -0.4000
   19CHTO  H179 7700   5.298   7.178   2.362  1.0348 -0.4194 -0.2408
   19CHTO   O66 7701   5.326   7.218   2.557 -0.7558 -0.6918 -0.0459
   19CHTO  H166 7702   5.367   7.139   2.589 -0.1529 -0.5794 -0.5156
   19CHTO   C93 7703   5.133   7.088   2.469 -0.1351 -0.4017  0.4612
   19CHTO  H180 7704   5.088   7.096   2.569 -0.1850  0.8647  0.3403
   19CHTO   N16 7705   5.205   6.961   2.466  0.0861  0.4411  0.2545
   19CHTO  H172 7706   5.292   6.956   2.402  0.5818  1.2234  0.8574
   19CHTO  H173 7707   5.150   6.868   2.459  1.2416 -0.3204  1.0430
   19CHTO   C94 7708   5.014   7.087   2.366 -0.4485  0.3512  0.0235
   19CHTO  H181 7709   5.044   7.057   2.266 -2.5472 -2.8032  0.2501
   19CHTO   O61 7710   4.961   7.219   2.351 -0.3290  0.1613 -0.3944
   19CHTO   C95 7711   5.051   7.324   2.315  0.3910 -0.1455  0.4418
   19CHTO  H182 7712   5.098   7.306   2.218 -0.0336 -0.0166  0.2113
   19CHTO  C106 7713   4.963   7.456   2.296  0.1948  0.3294 -0.6504
   19CHTO   O69 7714   4.934   7.526   2.417 -0.0415  0.5733 -0.6071
   19CHTO  H169 7715   4.903   7.474   2.489  2.4156 -0.0642  0.0527
   19CHTO   O63 7716   4.892   6.986   2.413  0.4831  0.6137  0.0032
   19CHTO   C96 7717   4.803   6.926   2.296 -0.3380 -0.1172  0.3311
   19CHTO  H183 7718   4.872   6.875   2.230 -0.3959  0.3810 -0.1164
   19CHTO   C98 7719   4.731   7.034   2.206  0.1903 -0.0980 -0.8383
   19CHTO  H185 7720   4.798   7.118   2.183 -1.1335  1.3310  0.4657
   19CHTO   O67 7721   4.696   6.974   2.082  0.4409 -0.4072 -0.2536
   19CHTO  H167 7722   4.658   6.888   2.088 -4.2911  1.5619 -0.0872
   19CHTO  C102 7723   4.593   7.085   2.269 -0.4310 -0.0159  0.9200
   19CHTO  H189 7724   4.534   7.127   2.187 -0.7486  2.1629  2.2226
   19CHTO   N18 7725   4.614   7.202   2.359  0.8298 -0.2417  0.2151
   19CHTO  H176 7726   4.667   7.157   2.442  1.8991 -0.7586 -0.7475
   19CHTO  H177 7727   4.675   7.278   2.313  0.5516 -0.2095 -0.1044
   19CHTO  C105 7728   4.513   6.970   2.340  0.0484 -0.2854 -0.4395
   19CHTO  H192 7729   4.514   6.981   2.448 -2.1936 -2.8429 -0.1088
   19CHTO   O65 7730   4.574   6.841   2.311  0.1842  0.3694 -0.2468
   19CHTO  C100 7731   4.707   6.818   2.358  0.1986  1.1879 -0.3881
   19CHTO  H187 7732   4.707   6.824   2.468 -1.8786 -1.5395 -0.1676
   19CHTO  C107 7733   4.747   6.676   2.328  0.3333 -0.4573  0.4533
   19CHTO   O70 7734   4.881   6.651   2.367  0.4007 -0.0171  0.2376
   19CHTO  H170 7735   4.936   6.606   2.305  2.1653  2.0924  0.2184
   19CHTO   O57 7736   4.367   6.985   2.304  0.1143  1.0380  0.3944
   19CHTO   C85 7737   4.264   6.898   2.337  0.1324 -0.1224  0.0643
   19CHTO  H157 7738   4.309   6.806   2.379 -2.1765 -0.8514  1.0389
   19CHTO   C83 7739   4.199   6.831   2.212 -0.4187  0.1769 -0.1733
   19CHTO  H155 7740   4.281   6.778   2.162  0.4926  0.1889  1.2810
   19CHTO   O56 7741   4.153   6.940   2.124 -0.3974  0.0855  0.0028
   19CHTO  H135 7742   4.122   6.901   2.045 -0.3592 -0.1575  0.1087
   19CHTO   C81 7743   4.089   6.727   2.258  0.2433  0.7835 -0.5503
   19CHTO  H153 7744   4.139   6.660   2.328  1.1599  1.2855 -0.7084
   19CHTO   N14 7745   4.036   6.635   2.155 -0.6452  0.0210  0.1123
   19CHTO  H141 7746   4.117   6.577   2.115 -0.4782 -1.1153  2.0330
   19CHTO  H142 7747   3.993   6.692   2.075 -2.1452  0.3927  1.1721
   19CHTO   C79 7748   3.979   6.816   2.331 -0.2175  0.7729  0.0048
   19CHTO  H151 7749   3.900   6.749   2.365  1.2240  0.2494  2.4606
   19CHTO   O52 7750   4.036   6.876   2.442  0.8964 -0.2681 -0.1016
   19CHTO   C86 7751   4.150   6.958   2.426  0.9975 -0.1463  0.1148
   19CHTO  H158 7752   4.112   7.055   2.388 -2.9471 -1.5751  0.1796
   19CHTO   C90 7753   4.209   6.988   2.566 -0.3894 -0.4942  0.4418
   19CHTO   O60 7754   4.129   7.086   2.634 -0.8185 -0.1075 -0.1009
   19CHTO  H138 7755   4.092   7.157   2.585 -0.1084 -0.7007 -1.5275
   19CHTO   O50 7756   3.908   6.905   2.244  0.5018 -0.1818 -0.2711
   19CHTO   C73 7757   3.774   6.954   2.221 -0.3022 -0.6150  0.2681
   19CHTO  H145 7758   3.707   6.895   2.284  0.7695 -2.1392  0.0201
   19CHTO   C74 7759   3.744   6.934   2.067 -0.1652  0.3935  0.1920
   19CHTO  H146 7760   3.756   6.827   2.044 -0.3120  0.4880 -0.3427
   19CHTO   O54 7761   3.602   6.955   2.055 -0.4306  0.5340 -0.1844
   19CHTO  H133 7762   3.564   6.874   2.025 -2.2773  1.1533  0.3852
   19CHTO   C75 7763   3.833   7.029   1.967 -0.2765  0.4505 -0.1782
   19CHTO  H147 7764   3.937   6.994   1.968 -0.1239  0.9008  0.2083
   19CHTO   N13 7765   3.790   7.031   1.825  0.1544  0.1539 -0.3620
   19CHTO  H139 7766   3.847   6.965   1.762 -1.1387 -1.3540  0.0098
   19CHTO  H140 7767   3.686   7.002   1.829 -0.2833  1.8002  0.8531
   19CHTO   C76 7768   3.841   7.176   2.040 -0.7258  0.7612 -0.0771
   19CHTO  H148 7769   3.746   7.221   2.011 -0.7581  0.7319 -0.0167
   19CHTO   O49 7770   3.853   7.175   2.186  0.3872  0.1053  0.3934
   19CHTO   C77 7771   3.760   7.098   2.263 -0.2646  0.0561  0.0299
   19CHTO  H149 7772   3.658   7.132   2.249  0.0075  0.1667 -1.9236
   19CHTO   C88 7773   3.789   7.110   2.414 -0.3878 -0.3875  0.2002
   19CHTO   O58 7774   3.685   7.078   2.506  0.8154 -0.1672  0.1420
   19CHTO  H136 7775   3.692   6.986   2.520  0.6577 -0.6395 -2.5271
   19CHTO   O51 7776   3.971   7.258   1.990  0.3667  0.3069 -0.3710
   19CHTO   C78 7777   3.969   7.394   2.053 -0.4314  0.0076 -0.1051
   19CHTO  H150 7778   3.918   7.393   2.152 -1.1326 -0.9587 -0.4770
   19CHTO   C80 7779   3.897   7.503   1.973 -0.5402  0.1388 -0.0528
   19CHTO  H152 7780   3.918   7.501   1.865 -0.0101  0.5820  0.0393
   19CHTO   O55 7781   3.758   7.462   1.979 -0.5537  0.2570  0.2542
   19CHTO  H134 7782   3.741   7.402   1.909  0.7392 -0.6224  0.6692
   19CHTO   C84 7783   3.924   7.641   2.039  0.9982  0.3994 -0.5599
   19CHTO  H156 7784   3.865   7.636   2.131  0.4203 -2.9795 -1.0316
   19CHTO   N15 7785   3.877   7.754   1.950 -0.1686 -0.1602  0.0001
   19CHTO  H143 7786   3.772   7.737   1.934 -0.8376  3.3380  0.2255
   19CHTO  H144 7787   3.883   7.848   2.002 -2.4737  0.1658 -0.2695
   19CHTO   C87 7788   4.065   7.664   2.091 -0.0957  0.0379  0.3022
   19CHTO  H159 7789   4.128   7.682   2.004  0.8358  0.5942  1.0743
   19CHTO   O53 7790   4.101   7.557   2.162 -0.8241  0.2355 -0.3957
   19CHTO   C82 7791   4.110   7.437   2.089  0.2814 -0.0107  0.0323
   19CHTO  H154 7792   4.169   7.454   1.999  0.9665 -0.1319  0.4570
   19CHTO   C89 7793   4.188   7.332   2.174  0.1097 -0.1370  0.1197
   19CHTO   O59 7794   4.253   7.230   2.096  0.2726 -0.0629  0.2052
   19CHTO  H137 7795   4.199   7.153   2.092 -2.6554  1.8873  0.7858
   19CHTO   O45 7796   4.077   7.794   2.176 -0.0536  0.1808 -0.0093
   19CHTO   C67 7797   3.994   7.799   2.294  0.4119 -0.9827 -0.1468
   19CHTO  H124 7798   3.891   7.765   2.284 -0.0461  0.6014 -0.8852
   19CHTO   C65 7799   4.051   7.723   2.419  0.0158  0.1289  0.1225
   19CHTO  H122 7800   4.158   7.727   2.399  0.0029  2.1257  0.3375
   19CHTO   O44 7801   3.990   7.595   2.419  0.4519  0.1269  0.2702
   19CHTO  H102 7802   3.954   7.569   2.502 -0.6514  1.3604  0.1954
   19CHTO   C63 7803   4.046   7.799   2.560 -0.1975  0.1969  0.3006
   19CHTO  H120 7804   4.124   7.874   2.558  0.1943 -0.1656  1.6122
   19CHTO   N11 7805   4.076   7.716   2.681 -0.3116  0.2808  0.1790
   19CHTO  H108 7806   4.093   7.775   2.768 -4.1153 -0.7965  1.7615
   19CHTO  H109 7807   4.164   7.660   2.658 -2.4479 -2.8755 -0.5613
   19CHTO   C61 7808   3.914   7.879   2.566  0.2589 -0.0447  0.2845
   19CHTO  H118 7809   3.920   7.943   2.655  1.3770  0.1533  0.0764
   19CHTO   O40 7810   3.900   7.971   2.456 -0.0939  0.7394 -0.1777
   19CHTO   C68 7811   3.984   7.953   2.337  0.0942  0.7266  0.4000
   19CHTO  H125 7812   4.088   7.988   2.356  0.0345  0.9770  0.2715
   19CHTO   C72 7813   3.921   8.051   2.234 -0.6967  0.1599 -0.2862
   19CHTO   O48 7814   3.960   8.190   2.255  0.2736 -0.0393  0.4191
   19CHTO  H105 7815   4.052   8.193   2.238  0.0400 -0.9288 -1.1758
   19CHTO   O38 7816   3.796   7.790   2.563  0.3213 -0.2679  0.5206
   19CHTO   C55 7817   3.675   7.854   2.585 -0.3395 -0.2585  0.3944
   19CHTO  H112 7818   3.678   7.964   2.584 -1.3976 -0.2345 -1.3639
   19CHTO   C56 7819   3.624   7.797   2.721  1.0583 -1.5334  0.5174
   19CHTO  H113 7820   3.597   7.691   2.709 -1.5065 -1.0295  1.4709
   19CHTO   O42 7821   3.728   7.813   2.821  0.2602  0.3226 -0.8029
   19CHTO  H100 7822   3.759   7.727   2.842  0.1591  0.3926 -0.3465
   19CHTO   C57 7823   3.488   7.874   2.755 -0.4802  0.4460 -0.1239
   19CHTO  H114 7824   3.517   7.979   2.765 -2.4434  0.8585  1.6675
   19CHTO   N10 7825   3.427   7.835   2.885 -0.2254  0.5194  0.6033
   19CHTO  H106 7826   3.331   7.884   2.877  0.2814  1.5215  0.5868
   19CHTO  H107 7827   3.484   7.867   2.971  2.9412 -2.8166 -0.1151
   19CHTO   C58 7828   3.385   7.856   2.633  0.1354 -0.2392 -0.4826
   19CHTO  H115 7829   3.348   7.751   2.631 -1.6297  0.3511  0.0255
   19CHTO   O37 7830   3.448   7.887   2.508 -0.3159  0.2536 -0.0169
   19CHTO   C59 7831   3.565   7.810   2.478  0.2411 -0.0197 -0.1871
   19CHTO  H116 7832   3.540   7.705   2.485  1.4340 -0.4788 -2.3413
   19CHTO   C70 7833   3.613   7.832   2.336  0.4267  0.0696 -0.1055
   19CHTO   O46 7834   3.523   7.800   2.238 -0.5868  0.2753  0.0649
   19CHTO  H103 7835   3.553   7.816   2.151 -2.2664  1.9182 -0.2454
   19CHTO   O39 7836   3.270   7.949   2.643  0.4648  0.1695 -0.5461
   19CHTO   C60 7837   3.155   7.916   2.565  0.1421 -0.2941 -0.5177
   19CHTO  H117 7838   3.179   7.842   2.488 -1.9383 -0.5608 -0.9246
   19CHTO   C62 7839   3.050   7.855   2.652 -0.4639 -0.2279  0.2593
   19CHTO  H119 7840   3.108   7.775   2.702 -0.2475 -0.9178 -1.0976
   19CHTO   O43 7841   3.013   7.951   2.754  0.1142  0.2045  0.1668
   19CHTO  H101 7842   2.965   7.914   2.827  1.9847  1.2678  1.9923
   19CHTO   C66 7843   2.935   7.785   2.560 -0.5662 -0.4512 -0.1021
   19CHTO  H123 7844   2.982   7.711   2.496 -1.3645  1.0067 -2.4399
   19CHTO   N12 7845   2.833   7.704   2.627 -0.4036 -0.2063 -0.0820
   19CHTO  H110 7846   2.868   7.630   2.697 -0.5315  1.1017  1.3834
   19CHTO  H111 7847   2.766   7.765   2.686  0.6992  1.0362 -0.1068
   19CHTO   C69 7848   2.874   7.881   2.458 -0.4402  0.1839  0.5426
   19CHTO  H126 7849   2.783   7.929   2.499 -0.7990 -1.3294  1.5925
   19CHTO   O41 7850   2.969   7.979   2.396 -0.4507 -0.3180  0.3010
   19CHTO   C64 7851   3.090   8.037   2.493  0.0971 -0.7297  0.5613
   19CHTO  H121 7852   3.045   8.110   2.563  0.7704 -2.1186  2.4916
   19CHTO   C71 7853   3.193   8.120   2.406 -0.1537 -0.2537 -0.2403
   19CHTO   O47 7854   3.268   8.058   2.305 -0.4875  0.7314 -0.1184
   19CHTO  H104 7855   3.214   8.032   2.233  0.2577  1.7244 -1.0434
   19CHTO   O34 7856   2.816   7.807   2.338 -0.8801 -0.2552  0.2147
   19CHTO   C49 7857   2.843   7.759   2.182 -0.5255  0.7536 -1.0614
   19CHTO   H91 7858   2.757   7.695   2.160  0.2715 -0.2979 -1.1381
   19CHTO   C47 7859   2.974   7.674   2.168  1.0790 -0.0870  0.3353
   19CHTO   H89 7860   2.958   7.643   2.063 -3.5014  0.6455  0.7019
   19CHTO   O33 7861   2.955   7.560   2.251  0.0725  0.0842  0.2746
   19CHTO   H70 7862   3.000   7.489   2.210  0.5840 -0.3274  1.5356
   19CHTO   C45 7863   3.110   7.764   2.182 -0.2595 -0.2617 -0.4374
   19CHTO   H87 7864   3.109   7.814   2.280  1.1553  0.3884 -0.7423
   19CHTO    N8 7865   3.229   7.677   2.174 -0.7669  0.4037 -0.1305
   19CHTO   H75 7866   3.312   7.730   2.219  0.2249  0.2844 -1.7610
   19CHTO   H76 7867   3.233   7.651   2.069 -0.6899  0.5202 -0.1567
   19CHTO   C43 7868   3.110   7.880   2.077 -0.4585 -0.0579  0.0313
   19CHTO   H85 7869   3.196   7.942   2.104  1.5243 -3.3186  1.6353
   19CHTO   O29 7870   2.987   7.951   2.097  0.2062  0.2251  0.6311
   19CHTO   C50 7871   2.861   7.882   2.094  0.4887  0.0264  0.1137
   19CHTO   H92 7872   2.785   7.953   2.131 -0.9040 -0.8447 -1.0416
   19CHTO   C54 7873   2.796   7.836   1.954 -0.6038 -0.5548  0.1335
   19CHTO   O36 7874   2.729   7.937   1.886  1.1458 -0.1109  0.0385
   19CHTO   H72 7875   2.646   7.907   1.855  1.1327 -0.1294  0.0917
   19CHTO   O27 7876   3.116   7.835   1.941  0.0418 -0.3486 -0.1063
   19CHTO   C37 7877   3.173   7.798   1.814 -0.3374  0.0596 -0.1644
   19CHTO   H79 7878   3.107   7.836   1.735 -0.0596 -2.3967 -1.6287
   19CHTO   C38 7879   3.316   7.862   1.811  0.3631 -0.0702 -0.4079
   19CHTO   H80 7880   3.369   7.833   1.903 -0.4285 -0.2860 -0.0240
   19CHTO   O31 7881   3.305   8.009   1.819  0.1807  0.0311 -0.1266
   19CHTO   H68 7882   3.393   8.042   1.818  0.1513  0.1123  0.0095
   19CHTO   C39 7883   3.403   7.816   1.690 -0.2839 -0.6834 -1.0979
   19CHTO   H81 7884   3.353   7.858   1.603 -0.2375  0.8889 -0.3791
   19CHTO    N7 7885   3.545   7.871   1.714  0.2289  0.2289 -0.1914
   19CHTO   H73 7886   3.557   7.968   1.667 -1.8685  2.3012  3.2957
   19CHTO   H74 7887   3.620   7.805   1.672 -1.1714 -1.9475  0.6324
   19CHTO   C40 7888   3.393   7.662   1.670 -0.2773  0.3755 -0.7285
   19CHTO   H82 7889   3.452   7.605   1.742 -2.2017  1.5248  1.8353
   19CHTO   O26 7890   3.256   7.616   1.669  0.2209  0.6979  0.3426
   19CHTO   C41 7891   3.186   7.643   1.794 -0.1941  0.0739 -0.1965
   19CHTO   H83 7892   3.245   7.605   1.879 -0.0153 -0.2691 -0.4738
   19CHTO   C52 7893   3.048   7.579   1.796 -0.3353  0.1306  0.2271
   19CHTO   O35 7894   2.975   7.617   1.665  0.0069 -0.0238  0.2812
   19CHTO   H71 7895   2.988   7.547   1.604  0.2680  0.9394 -0.7850
   19CHTO   O28 7896   3.432   7.623   1.535 -0.4986 -0.4889 -0.4253
   19CHTO   C42 7897   3.557   7.623   1.455 -0.6895 -0.6324  0.1736
   19CHTO   H84 7898   3.627   7.670   1.525  0.9508  0.6290 -2.2316
   19CHTO   C44 7899   3.568   7.710   1.322  0.3295 -0.7563 -0.2398
   19CHTO   H86 7900   3.489   7.674   1.256  0.9393 -1.6075 -0.5048
   19CHTO   O32 7901   3.525   7.845   1.355 -0.3311 -0.0928  0.6483
   19CHTO   H69 7902   3.603   7.884   1.390  1.7033 -1.7059 -1.9677
   19CHTO   C48 7903   3.703   7.699   1.245  0.2616  0.3717 -0.9468
   19CHTO   H90 7904   3.775   7.746   1.313 -1.5193 -0.7426  1.8249
   19CHTO    N9 7905   3.713   7.788   1.123  0.1359  0.1681 -0.2312
   19CHTO   H77 7906   3.757   7.722   1.049  0.4786  0.9900 -0.7600
   19CHTO   H78 7907   3.777   7.874   1.136 -0.0630  0.2235  0.4220
   19CHTO   C51 7908   3.730   7.552   1.212  0.1493 -0.2229  0.4286
   19CHTO   H93 7909   3.643   7.520   1.154  1.6015  0.2008 -2.0825
   19CHTO   O30 7910   3.750   7.483   1.338  0.0864  0.7123  0.4017
   19CHTO   C46 7911   3.608   7.475   1.429 -0.2476 -0.6800 -0.0848
   19CHTO   H88 7912   3.530   7.419   1.378 -3.4206  4.7547 -1.5226
   19CHTO   C53 7913   3.640   7.405   1.565  0.3759  0.4613 -0.2448
   19CHTO   O72 7914   3.683   7.272   1.532  0.2218 -0.3826  0.6990
   19CHTO  H199 7915   3.740   7.234   1.595 -1.9541 -0.6942  2.5584
   19CHTO   O22 7916   3.847   7.522   1.130 -0.0393 -0.0454 -0.0562
   19CHTO   C31 7917   3.840   7.416   1.024  0.4238 -0.2544  0.2063
   19CHTO   H59 7918   3.732   7.409   0.996  0.4298 -3.5244  0.8028
   19CHTO   C29 7919   3.921   7.477   0.900  0.2264  0.8971 -0.5954
   19CHTO   H57 7920   4.017   7.507   0.944 -1.9125  1.6846  3.7198
   19CHTO   O21 7921   3.868   7.597   0.852 -0.3170  0.0167  0.7852
   19CHTO   H37 7922   3.884   7.663   0.916  0.8507 -0.4543  0.9784
   19CHTO   C27 7923   3.952   7.360   0.794 -0.1572  0.2008  0.4246
   19CHTO   H55 7924   3.861   7.333   0.739  0.0386 -0.2008  0.3001
   19CHTO    N5 7925   4.056   7.399   0.699 -0.3675 -0.5171 -0.3979
   19CHTO   H43 7926   4.004   7.434   0.611 -0.6763  0.8921  0.3300
   19CHTO   H44 7927   4.124   7.472   0.739  1.3237 -2.3264  0.0712
   19CHTO   C25 7928   3.990   7.233   0.868  0.2953  0.0854 -0.0186
   19CHTO   H53 7929   4.081   7.247   0.929  0.6824 -2.0368 -0.0695
   19CHTO   O17 7930   3.894   7.185   0.957 -0.5233 -0.1387  0.9426
   19CHTO   C32 7931   3.880   7.268   1.072 -0.1365 -0.1904 -0.2862
   19CHTO   H60 7932   3.977   7.274   1.123  0.9705 -1.6857 -2.1787
   19CHTO   C36 7933   3.779   7.201   1.172  0.5207 -0.4644  0.0524
   19CHTO   O25 7934   3.640   7.206   1.118 -0.3817  0.0937  0.1224
   19CHTO   H40 7935   3.620   7.291   1.084 -0.4323  0.2299  0.4938
   19CHTO   O15 7936   4.000   7.095   0.762  0.0286 -0.0752  0.3086
   19CHTO   C19 7937   4.071   6.964   0.771 -0.5299 -0.4751 -0.1147
   19CHTO   H47 7938   4.087   6.941   0.665  2.0937  2.8980 -0.5157
   19CHTO   C20 7939   4.201   6.972   0.851 -0.3678 -0.7439  0.2322
   19CHTO   H48 7940   4.186   7.011   0.953  3.1553  2.0525 -0.2309
   19CHTO   O19 7941   4.285   7.073   0.791 -0.5382  0.2863  0.1739
   19CHTO   H35 7942   4.248   7.157   0.809 -0.0201  0.3053  1.2000
   19CHTO   C21 7943   4.280   6.829   0.850  0.5427  0.3596  0.0951
   19CHTO   H49 7944   4.309   6.807   0.747 -1.7644 -1.6275 -0.1795
   19CHTO    N4 7945   4.403   6.831   0.937 -0.1854  0.2791 -0.4499
   19CHTO   H41 7946   4.415   6.926   0.986  1.1986  0.9370 -2.0296
   19CHTO   H42 7947   4.497   6.797   0.896  1.5408  0.5817  3.0455
   19CHTO   C22 7948   4.182   6.710   0.889 -0.0458 -0.2605  0.7045
   19CHTO   H50 7949   4.169   6.706   0.997  0.4713 -0.6270  0.7543
   19CHTO   O14 7950   4.061   6.728   0.809 -0.4628  0.4748 -0.2294
   19CHTO   C23 7951   3.990   6.852   0.829  0.0892  0.0294 -0.4476
   19CHTO   H51 7952   3.972   6.862   0.937 -2.0626  0.1635 -0.7835
   19CHTO   C34 7953   3.842   6.842   0.781 -0.2626  0.2748  0.0638
   19CHTO   O23 7954   3.843   6.818   0.634  0.5282 -0.3047 -0.6946
   19CHTO   H38 7955   3.790   6.744   0.614  0.8999 -0.0426 -2.7386
   19CHTO   O16 7956   4.234   6.585   0.837 -0.6410 -0.1534  0.4274
   19CHTO   C24 7957   4.216   6.465   0.924  0.2069  0.2324  0.3175
   19CHTO   H52 7958   4.138   6.480   0.998  0.5825  0.6752  0.6198
   19CHTO   C26 7959   4.348   6.428   0.991 -1.2925  0.5918  0.2182
   19CHTO   H54 7960   4.429   6.431   0.915 -2.3314  3.2246 -0.8453
   19CHTO   O20 7961   4.380   6.535   1.086 -0.5022  0.6151 -0.1554
   19CHTO   H36 7962   4.473   6.549   1.079  0.1843 -2.4188  1.9261
   19CHTO   C30 7963   4.354   6.280   1.054 -0.0559 -0.6025 -0.6613
   19CHTO   H58 7964   4.298   6.285   1.148 -0.3750 -1.6666 -0.7920
   19CHTO    N6 7965   4.494   6.249   1.080 -0.1635 -0.1632 -0.1999
   19CHTO   H45 7966   4.510   6.232   1.185  1.5091 -2.1285 -0.7639
   19CHTO   H46 7967   4.528   6.161   1.028  0.8539  1.1784 -1.8634
   19CHTO   C33 7968   4.282   6.170   0.978  0.2535  0.2652 -0.0341
   19CHTO   H61 7969   4.339   6.132   0.892 -1.2792  2.8927 -2.2977
   19CHTO   O18 7970   4.159   6.229   0.922 -0.2841  0.3280  0.1638
   19CHTO   C28 7971   4.162   6.344   0.842  0.3021 -0.3399 -0.5872
   19CHTO   H56 7972   4.228   6.336   0.756  1.7008 -2.6505  0.6298
   19CHTO   C35 7973   4.018   6.359   0.786 -0.7686 -0.2078 -0.2423
   19CHTO   O24 7974   3.988   6.246   0.705  0.3136 -0.1271  0.1120
   19CHTO   H39 7975   3.905   6.255   0.662 -1.2345  3.8048  3.4472
   19CHTO    O9 7976   4.251   6.054   1.062 -0.2059 -0.0301  0.0848
   19CHTO   C13 7977   4.182   5.919   0.976  0.1710  0.0373 -0.4170
   19CHTO   H26 7978   4.240   5.916   0.881 -1.3488 -0.1444 -1.3580
   19CHTO   C11 7979   4.031   5.930   0.950 -0.0266  0.2567 -0.5470
   19CHTO   H24 7980   4.027   6.006   0.871  0.3359  1.2491  0.3718
   19CHTO    O8 7981   3.971   5.985   1.065  0.1273 -0.1796  0.0211
   19CHTO    H3 7982   3.880   6.004   1.056  0.2278  0.6373  0.7014
   19CHTO    C9 7983   3.970   5.803   0.887 -0.3288 -0.1574 -0.0953
   19CHTO   H22 7984   4.020   5.799   0.789 -2.7775  0.0704 -1.3996
   19CHTO    N2 7985   3.825   5.818   0.860  0.0930  0.2991 -0.1122
   19CHTO   H10 7986   3.759   5.847   0.941 -2.1750 -0.3680 -1.6890
   19CHTO   H11 7987   3.781   5.741   0.799 -0.7719  1.0841 -0.5002
   19CHTO    C7 7988   4.004   5.673   0.970  0.5715 -0.1456  0.0538
   19CHTO   H20 7989   3.992   5.596   0.891 -2.0077  0.0192  0.2468
   19CHTO    O4 7990   4.144   5.669   1.008 -0.4487  0.4985 -0.1662
   19CHTO   C14 7991   4.216   5.788   1.054  0.3160 -0.0905  0.0768
   19CHTO   H27 7992   4.324   5.772   1.036  0.3409  0.2561 -0.0678
   19CHTO   C18 7993   4.199   5.795   1.207  0.7096  0.1439  0.0162
   19CHTO   O13 7994   4.262   5.692   1.291 -0.7176 -0.1312  0.0440
   19CHTO    H7 7995   4.240   5.704   1.382  0.4433 -2.7233  0.6865
   19CHTO    O2 7996   3.910   5.633   1.103 -0.2703  0.3738 -0.7857
   19CHTO    C1 7997   3.893   5.487   1.133  0.1414 -0.8974 -0.1943
   19CHTO   H14 7998   3.981   5.431   1.095  0.9531 -1.1085  1.9623
   19CHTO    C2 7999   3.762   5.437   1.062  0.0134 -0.5307 -0.2703
   19CHTO   H15 8000   3.684   5.511   1.082 -0.1715 -0.8284  0.1200
   19CHTO    O6 8001   3.783   5.429   0.917  0.5330 -0.1999  0.0491
   19CHTO    H1 8002   3.699   5.437   0.877  1.1584 -3.2149 -2.1268
   19CHTO    C3 8003   3.716   5.293   1.125  0.6090  0.0820 -0.2017
   19CHTO   H16 8004   3.786   5.212   1.099  2.8139  1.8562  0.0134
   19CHTO    N1 8005   3.587   5.251   1.066  0.1979 -0.2017  0.2112
   19CHTO    H8 8006   3.529   5.343   1.064 -2.5393 -1.8806 -0.5958
   19CHTO    H9 8007   3.608   5.227   0.963  3.3646 -1.6521  1.1557
   19CHTO    C4 8008   3.715   5.311   1.278  0.4902  0.8742 -0.1146
   19CHTO   H17 8009   3.648   5.395   1.300 -2.1002 -1.3414  0.6474
   19CHTO    O1 8010   3.841   5.347   1.332  0.0799  0.5919  0.7016
   19CHTO    C5 8011   3.888   5.480   1.294  1.1737 -0.1648  0.3913
   19CHTO   H18 8012   3.827   5.564   1.328  0.4600  0.3695 -2.0931
   19CHTO   C16 8013   4.026   5.492   1.357  0.2507  0.4099  0.1618
   19CHTO   O11 8014   4.013   5.522   1.494 -0.6367  0.2148 -0.0216
   19CHTO    H5 8015   4.075   5.593   1.495 -3.3201  2.7432 -2.5361
   19CHTO    O3 8016   3.675   5.196   1.361 -0.1639  0.2023  0.3521
   19CHTO    C6 8017   3.572   5.209   1.463 -1.0091  0.1015  0.5551
   19CHTO   H19 8018   3.535   5.309   1.484 -0.5210  0.4594 -0.2771
   19CHTO    C8 8019   3.448   5.126   1.418  0.6322  0.1815 -0.0357
   19CHTO   H21 8020   3.490   5.031   1.384 -0.0758  0.2723 -1.2176
   19CHTO    O7 8021   3.383   5.179   1.308  0.5121  0.2409  0.2304
   19CHTO    H2 8022   3.335   5.259   1.318 -0.6936 -0.1839 -1.7514
   19CHTO   C12 8023   3.348   5.100   1.536  0.2009 -0.0561  0.0617
   19CHTO   H25 8024   3.315   5.203   1.563 -0.0890 -0.0964 -0.1363
   19CHTO    N3 8025   3.225   5.012   1.506 -0.4835 -0.3919  0.2247
   19CHTO   H12 8026   3.154   5.071   1.449  0.3005  1.3015  0.9738
   19CHTO   H13 8027   3.249   4.921   1.453 -1.0453 -1.4284  1.7301
   19CHTO   C15 8028   3.425   5.046   1.662  0.1056  0.3001 -1.2768
   19CHTO   H28 8029   3.472   4.950   1.646  1.6933  0.9303 -0.4165
   19CHTO   O10 8030   3.331   5.041   1.793  0.1905 -0.3156  0.9886
   19CHTO    H4 8031   3.241   5.046   1.769  1.0752  0.3920 -2.4121
   19CHTO    O5 8032   3.531   5.136   1.694 -0.6241  0.0005 -0.2058
   19CHTO   C10 8033   3.632   5.152   1.592 -0.0887  0.4994 -0.0039
   19CHTO   H23 8034   3.675   5.057   1.560 -1.5741 -0.0972 -0.3014
   19CHTO   C17 8035   3.750   5.232   1.644 -0.1180 -1.0528  0.0246
   19CHTO   O12 8036   3.732   5.371   1.668 -0.2455 -0.4451 -0.0657
   19CHTO    H6 8037   3.659   5.384   1.725  0.4316  2.2964  0.2560
   20CHTO  H203 8038   5.130   0.195   2.011  0.3209 -1.6392  0.2150
   20CHTO   O82 8039   5.044   0.197   2.048  0.3027 -0.0739  0.1466
   20CHTO  C123 8040   4.969   0.311   2.011  0.0323 -0.8890 -0.0910
   20CHTO  H227 8041   4.880   0.315   2.075 -0.0012  2.1592 -0.2795
   20CHTO   O77 8042   5.059   0.425   2.037  0.0939 -0.0980  0.1829
   20CHTO  C118 8043   5.011   0.556   2.013  0.0118 -0.3656 -0.3981
   20CHTO  H222 8044   4.924   0.572   2.079  0.8503  1.0883  0.3948
   20CHTO  C125 8045   5.121   0.662   2.055  0.5961 -0.0081  0.5431
   20CHTO   O84 8046   5.231   0.655   1.966 -0.3329 -0.8251 -0.1519
   20CHTO  H205 8047   5.306   0.693   2.008 -1.5155  0.8470  0.4679
   20CHTO  C114 8048   4.969   0.570   1.871  0.1581  0.6338 -0.2144
   20CHTO  H218 8049   5.057   0.570   1.807  0.7359  0.2232  0.5732
   20CHTO  C116 8050   4.873   0.452   1.825  0.8567 -0.1634 -0.3753
   20CHTO  H220 8051   4.773   0.457   1.873  1.1756  1.0908  0.1898
   20CHTO   O79 8052   4.854   0.465   1.683  0.1122 -1.0199  0.7135
   20CHTO  H201 8053   4.865   0.555   1.662 -1.4326 -0.8418  0.5999
   20CHTO  C120 8054   4.935   0.310   1.858  0.0065 -0.3153  0.7114
   20CHTO  H224 8055   5.031   0.309   1.802 -0.6692  3.2938 -0.6116
   20CHTO   N21 8056   4.847   0.188   1.831 -0.1673  0.1567 -0.5431
   20CHTO  H211 8057   4.886   0.092   1.800 -2.0002 -0.3441 -1.3739
   20CHTO  H212 8058   4.762   0.215   1.770 -1.4075 -0.0538  1.0613
   20CHTO   O75 8059   4.910   0.699   1.854 -0.3805  0.0183  0.0772
   20CHTO  C112 8060   4.953   0.771   1.710 -0.6797 -0.6685 -0.1238
   20CHTO  H216 8061   4.924   0.704   1.628 -0.9148  1.5922 -1.9356
   20CHTO   O73 8062   5.094   0.788   1.717 -0.3567 -0.1018 -0.7063
   20CHTO  C113 8063   5.156   0.884   1.627  0.4381  0.7224 -0.1317
   20CHTO  H217 8064   5.163   0.835   1.528  1.0592  2.4924 -0.9802
   20CHTO  C124 8065   5.304   0.883   1.676  0.0396  0.2631  0.5218
   20CHTO   O83 8066   5.391   0.957   1.586  0.2128  0.1474  0.5680
   20CHTO  H204 8067   5.389   0.925   1.497  1.2803  0.7548  0.3135
   20CHTO  C109 8068   5.084   1.019   1.616 -0.2793  0.0077  0.1643
   20CHTO  H213 8069   5.102   1.077   1.708  3.1892 -0.7317 -0.0033
   20CHTO  C110 8070   4.934   1.000   1.592 -0.6485  0.4053 -0.1680
   20CHTO  H214 8071   4.922   0.965   1.489 -0.2682  1.3824 -0.5514
   20CHTO   O78 8072   4.868   1.123   1.604  0.5916 -0.6364  0.4334
   20CHTO  H200 8073   4.882   1.178   1.530 -2.5835  2.9908  2.3307
   20CHTO  C111 8074   4.870   0.903   1.696 -0.4421 -0.0287  0.4052
   20CHTO  H215 8075   4.869   0.953   1.794 -0.2299 -0.5740  0.6863
   20CHTO   N19 8076   4.731   0.873   1.664 -0.0306  0.1204  0.2419
   20CHTO  H207 8077   4.687   0.782   1.703  0.4189 -0.9787 -1.7205
   20CHTO  H208 8078   4.714   0.863   1.558 -0.2706  0.4598  0.2505
   20CHTO   O74 8079   5.150   1.084   1.498  0.6364 -0.0876 -0.1162
   20CHTO  C115 8080   5.202   1.226   1.510  0.2076  0.1302 -0.0096
   20CHTO  H219 8081   5.209   1.257   1.614  1.1357 -1.9585  0.5821
   20CHTO   O76 8082   5.354   1.238   1.454  0.1704  0.4697 -0.5761
   20CHTO  C122 8083   5.346   1.196   1.318  0.0143  0.3508  0.4341
   20CHTO  H226 8084   5.304   1.096   1.305 -1.3240  0.9195  0.3400
   20CHTO  C126 8085   5.496   1.185   1.267 -0.7380 -0.0469  0.2077
   20CHTO   O85 8086   5.572   1.087   1.342  0.6548 -0.5550  0.1355
   20CHTO  H206 8087   5.540   1.000   1.328 -2.1992  0.6431 -1.2400
   20CHTO  C121 8088   5.258   1.302   1.237  0.7364  0.6077 -0.5312
   20CHTO  H225 8089   5.329   1.358   1.173  2.5619 -0.0828  0.8216
   20CHTO   O81 8090   5.174   1.222   1.150 -0.2854  0.7411  0.2326
   20CHTO  H202 8091   5.200   1.217   1.060  3.4296 -0.8271  1.2857
   20CHTO  C119 8092   5.173   1.400   1.320  0.4064  0.4077  0.4139
   20CHTO  H223 8093   5.242   1.465   1.374 -0.0323  0.7397  0.5716
   20CHTO  C117 8094   5.100   1.322   1.434 -0.1143 -0.3350 -0.0045
   20CHTO  H221 8095   5.021   1.257   1.397 -0.8579  0.5799 -0.0573
   20CHTO   N20 8096   5.036   1.411   1.531  0.6156 -0.8657 -0.4442
   20CHTO  H209 8097   4.959   1.359   1.586  1.1935  0.0024  1.1919
   20CHTO  H210 8098   4.988   1.491   1.477 -1.0802 -0.9950  0.8094
   20CHTO   O80 8099   5.091   1.498   1.251 -0.1359  0.4368  0.3278
   20CHTO  C103 8100   4.947   1.455   1.161  0.2875  0.5590  0.3943
   20CHTO  H190 8101   4.946   1.346   1.154 -1.6168  0.7023 -2.5077
   20CHTO  C101 8102   4.805   1.501   1.212  0.9999 -0.6039 -0.3578
   20CHTO  H188 8103   4.820   1.602   1.250  0.7176 -0.5503 -0.3909
   20CHTO   O68 8104   4.761   1.397   1.328  0.4893  0.1906 -0.3709
   20CHTO  H168 8105   4.816   1.408   1.403  0.3918  0.4623 -0.3388
   20CHTO   C99 8106   4.698   1.517   1.099  0.5619  0.0567  0.7523
   20CHTO  H186 8107   4.687   1.418   1.048  4.0723  0.0139 -0.0490
   20CHTO   N17 8108   4.572   1.565   1.150  0.5407  0.7122 -0.0856
   20CHTO  H174 8109   4.582   1.658   1.204 -1.3516  0.1436  1.2880
   20CHTO  H175 8110   4.482   1.538   1.096 -0.2269 -0.8264  1.9069
   20CHTO   C97 8111   4.755   1.609   0.989 -0.1896  0.1461  0.0123
   20CHTO  H184 8112   4.777   1.706   1.036  0.3805 -0.0556  0.1562
   20CHTO   O64 8113   4.871   1.547   0.931  0.0973  0.2090  0.0028
   20CHTO  C104 8114   4.983   1.513   1.016  0.3585  0.6346 -0.7908
   20CHTO  H191 8115   5.054   1.594   1.026 -1.3437  1.8226  2.1520
   20CHTO  C108 8116   5.051   1.411   0.933  0.1621 -0.2344  0.9270
   20CHTO   O71 8117   5.121   1.466   0.824  0.0384 -0.1729 -0.2866
   20CHTO  H171 8118   5.074   1.538   0.786  1.0157  0.2220 -0.7595
   20CHTO   O62 8119   4.662   1.623   0.880 -0.4382  0.1859  0.1004
   20CHTO   C91 8120   4.674   1.737   0.796  0.5058 -0.2157 -0.4264
   20CHTO  H178 8121   4.778   1.770   0.806  0.4898 -1.0043  3.1985
   20CHTO   C92 8122   4.591   1.855   0.865 -0.2990  0.6893  1.0457
   20CHTO  H179 8123   4.491   1.818   0.894 -0.4932  0.4628  0.0748
   20CHTO   O66 8124   4.641   1.891   0.993  0.0878 -0.2820 -0.0190
   20CHTO  H166 8125   4.651   1.819   1.052 -0.9857  0.2826  0.8924
   20CHTO   C93 8126   4.592   1.982   0.771 -0.6674 -0.3787 -0.0177
   20CHTO  H180 8127   4.687   2.036   0.780 -0.1055 -1.5523  1.1888
   20CHTO   N16 8128   4.494   2.088   0.817  0.6383 -0.1383  0.4260
   20CHTO  H172 8129   4.463   2.085   0.920  0.8319 -1.2511  0.4625
   20CHTO  H173 8130   4.415   2.122   0.752 -0.3390  0.9574  2.1436
   20CHTO   C94 8131   4.574   1.946   0.614 -0.3690 -0.3973  0.7178
   20CHTO  H181 8132   4.470   1.930   0.585  0.8331 -0.9064 -3.6919
   20CHTO   O61 8133   4.645   1.825   0.577 -0.3389  0.0338 -0.0570
   20CHTO   C95 8134   4.608   1.710   0.653  0.1245  0.3110  0.1183
   20CHTO  H182 8135   4.499   1.703   0.645 -0.0330  0.2653  2.0608
   20CHTO  C106 8136   4.677   1.595   0.582 -0.1384  0.0581  0.6756
   20CHTO   O69 8137   4.654   1.464   0.643  0.3996  0.2671  0.4056
   20CHTO  H169 8138   4.659   1.398   0.577 -3.1331  0.6279 -0.3076
   20CHTO   O63 8139   4.641   2.076   0.509 -0.1295  0.1209 -0.3609
   20CHTO   C96 8140   4.601   2.035   0.356 -0.0037 -0.4460  0.2058
   20CHTO  H183 8141   4.554   1.936   0.360  0.9629 -0.9760 -1.3167
   20CHTO   C98 8142   4.725   2.023   0.265 -0.1094  0.0729  0.5148
   20CHTO  H185 8143   4.789   2.112   0.279 -0.6465  0.3379  1.3426
   20CHTO   O67 8144   4.808   1.918   0.318  0.0605  0.3282  0.8581
   20CHTO  H167 8145   4.849   1.867   0.251 -0.8783  2.4823 -1.4078
   20CHTO  C102 8146   4.697   2.006   0.115  0.1557  0.2163  0.5283
   20CHTO  H189 8147   4.650   1.907   0.102  1.9946 -0.4443 -1.3778
   20CHTO   N18 8148   4.814   2.013   0.022  0.1563 -0.1512 -0.1483
   20CHTO  H176 8149   4.857   2.112   0.026  1.1050 -0.5610 -0.2272
   20CHTO  H177 8150   4.797   1.990  -0.082 -0.2747 -0.1824 -0.0745
   20CHTO  C105 8151   4.595   2.113   0.072 -0.4318 -0.8682 -0.1228
   20CHTO  H192 8152   4.644   2.211   0.075  0.6681 -1.4438  1.1981
   20CHTO   O65 8153   4.473   2.124   0.152 -0.4394  0.1213  0.6924
   20CHTO  C100 8154   4.505   2.139   0.297  0.1849 -0.6446  0.2960
   20CHTO  H187 8155   4.554   2.235   0.315  1.3262 -1.0630 -0.4932
   20CHTO  C107 8156   4.373   2.142   0.370 -0.3254  0.5736 -0.5423
   20CHTO   O70 8157   4.392   2.188   0.507 -0.4029  0.4517 -0.0132
   20CHTO  H170 8158   4.399   2.281   0.518 -3.4408  0.4106  3.0610
   20CHTO   O57 8159   4.536   2.073  -0.081  0.1082  0.0135  0.2421
   20CHTO   C85 8160   4.468   1.942  -0.090 -0.1069  0.0724  0.3342
   20CHTO  H157 8161   4.468   1.896   0.010  2.0414  0.6964  0.6366
   20CHTO   C83 8162   4.553   1.859  -0.202  0.4491  0.0734 -0.1316
   20CHTO  H155 8163   4.654   1.845  -0.162  0.1832 -0.6229  0.3057
   20CHTO   O56 8164   4.572   1.938  -0.324  0.5244  0.8562  0.1745
   20CHTO  H135 8165   4.630   1.898  -0.385  0.3301  1.5625 -0.4893
   20CHTO   C81 8166   4.493   1.719  -0.233 -0.1426  0.1243  1.0113
   20CHTO  H153 8167   4.500   1.654  -0.145  0.0586 -0.3291  0.6674
   20CHTO   N14 8168   4.576   1.652  -0.332 -0.4929 -0.1098  0.2600
   20CHTO  H141 8169   4.655   1.592  -0.292 -0.0723 -1.0499 -1.8881
   20CHTO  H142 8170   4.610   1.722  -0.406  0.2694 -0.9657 -0.2167
   20CHTO   C79 8171   4.342   1.729  -0.282 -0.0626  0.7482 -0.3118
   20CHTO  H151 8172   4.302   1.629  -0.264  1.1578  0.2030 -0.6137
   20CHTO   O52 8173   4.266   1.817  -0.188 -0.2416  0.9077 -0.6384
   20CHTO   C86 8174   4.325   1.947  -0.162  0.6567 -0.1508  0.1057
   20CHTO  H158 8175   4.319   2.000  -0.260 -1.1966  1.1079  0.8638
   20CHTO   C90 8176   4.227   2.022  -0.062  0.2226 -0.8460 -0.2320
   20CHTO   O60 8177   4.213   1.960   0.065 -0.2262 -0.0149  0.0468
   20CHTO  H138 8178   4.293   1.947   0.113  0.5887 -1.8892 -1.6898
   20CHTO   O50 8179   4.310   1.760  -0.419 -0.5233  0.3593  0.1751
   20CHTO   C73 8180   4.208   1.770  -0.526 -0.4948 -0.6668 -0.2463
   20CHTO  H145 8181   4.260   1.783  -0.622 -0.7971 -0.2739 -0.3561
   20CHTO   C74 8182   4.124   1.892  -0.503  0.1617 -0.2579  0.0167
   20CHTO  H146 8183   4.191   1.975  -0.476 -0.8713  0.2943  0.9154
   20CHTO   O54 8184   4.071   1.933  -0.633  0.4015  0.6048 -0.4659
   20CHTO  H133 8185   4.141   1.942  -0.695  0.1031 -0.1818 -0.9192
   20CHTO   C75 8186   4.018   1.862  -0.386 -0.1657 -0.1587  0.6203
   20CHTO  H147 8187   4.068   1.871  -0.289  0.4491  0.8195  0.2144
   20CHTO   N13 8188   3.922   1.974  -0.378  0.4230  0.0455  0.3264
   20CHTO  H139 8189   3.911   2.014  -0.478 -0.1582 -2.8479 -0.8408
   20CHTO  H140 8190   3.945   2.043  -0.298  1.3034  2.4057 -1.8917
   20CHTO   C76 8191   3.940   1.727  -0.416  0.4898 -0.0429  0.2465
   20CHTO  H148 8192   3.878   1.748  -0.503 -0.1546 -1.4899  0.3426
   20CHTO   O49 8193   4.036   1.618  -0.434 -0.2219  0.2102 -0.1182
   20CHTO   C77 8194   4.118   1.640  -0.544  0.3382 -0.1956 -0.2968
   20CHTO  H149 8195   4.057   1.649  -0.634  2.9368  2.3024 -1.8990
   20CHTO   C88 8196   4.209   1.520  -0.569 -0.1101 -0.0514 -0.3485
   20CHTO   O58 8197   4.135   1.405  -0.614 -0.1169 -0.2809  0.2420
   20CHTO  H136 8198   4.179   1.327  -0.585  0.4843  0.2509  0.7424
   20CHTO   O51 8199   3.852   1.668  -0.281 -0.1382 -0.1163 -0.4122
   20CHTO   C78 8200   3.922   1.656  -0.139 -0.4576 -0.3607 -0.0601
   20CHTO  H150 8201   3.998   1.735  -0.119 -0.4729  0.0770 -1.6249
   20CHTO   C80 8202   3.990   1.522  -0.116  0.3854  0.0584  0.1511
   20CHTO  H152 8203   3.924   1.440  -0.153  1.2833 -0.2104 -0.8843
   20CHTO   O55 8204   4.104   1.518  -0.206 -0.1511  0.6000 -0.4288
   20CHTO  H134 8205   4.077   1.527  -0.296  0.5519 -2.4123 -0.9970
   20CHTO   C84 8206   4.037   1.506   0.031  0.3864 -0.0100  0.4699
   20CHTO  H156 8207   4.112   1.584   0.048  1.9061 -1.0855 -1.1835
   20CHTO   N15 8208   4.109   1.380   0.063 -0.0688  0.1161  0.1279
   20CHTO  H143 8209   4.147   1.338  -0.027  0.6929  0.0503  0.4738
   20CHTO  H144 8210   4.187   1.410   0.129 -0.6892  0.2287  0.8268
   20CHTO   C87 8211   3.918   1.540   0.126  0.4715 -0.8249 -0.1263
   20CHTO  H159 8212   3.845   1.459   0.125  0.2403 -0.6591  2.0468
   20CHTO   O53 8213   3.856   1.686   0.081 -0.4831 -0.2648  0.6614
   20CHTO   C82 8214   3.804   1.688  -0.054  1.1962 -0.3392 -0.1120
   20CHTO  H154 8215   3.726   1.612  -0.064  1.2397 -0.4199  0.1613
   20CHTO   C89 8216   3.743   1.826  -0.085  0.6650  0.3045  0.5029
   20CHTO   O59 8217   3.627   1.849  -0.008 -0.0188 -0.8071 -0.3859
   20CHTO  H137 8218   3.591   1.934  -0.025 -0.6369 -1.5781 -3.1721
   20CHTO   O45 8219   3.961   1.570   0.276  0.1909 -0.6593  0.4579
   20CHTO   C67 8220   4.019   1.697   0.311 -1.2278  0.1576 -0.2644
   20CHTO  H124 8221   4.064   1.743   0.223  1.7437 -0.9470  0.6332
   20CHTO   C65 8222   3.910   1.787   0.372  0.9523  0.0628 -0.5706
   20CHTO  H122 8223   3.826   1.781   0.304  2.1068 -1.6944 -1.8919
   20CHTO   O44 8224   3.957   1.924   0.382  0.2966  0.0501  0.0004
   20CHTO  H102 8225   3.891   1.972   0.429  0.3678 -0.5285  0.7064
   20CHTO   C63 8226   3.861   1.729   0.507 -0.5529  0.1000  0.3279
   20CHTO  H120 8227   3.821   1.629   0.490  1.6063 -0.5802 -0.9989
   20CHTO   N11 8228   3.750   1.786   0.586 -0.4878 -0.3528 -0.0396
   20CHTO  H108 8229   3.694   1.718   0.646  0.2474 -0.2690  0.7580
   20CHTO  H109 8230   3.688   1.844   0.521 -0.7779 -0.9704 -0.3162
   20CHTO   C61 8231   3.990   1.711   0.601 -0.2891 -0.0868  0.3950
   20CHTO  H118 8232   3.967   1.652   0.690 -0.1018  1.6412  1.6220
   20CHTO   O40 8233   4.102   1.649   0.538  0.6076  0.4603 -0.3551
   20CHTO   C68 8234   4.141   1.677   0.406 -0.2471 -0.4546  0.2984
   20CHTO  H125 8235   4.184   1.578   0.379  1.8945  0.1288  1.4612
   20CHTO   C72 8236   4.251   1.782   0.381 -0.2043 -0.4000  0.4805
   20CHTO   O48 8237   4.375   1.731   0.415  0.5943 -0.5375  0.4853
   20CHTO  H105 8238   4.442   1.786   0.378 -0.7475  1.9674  1.5974
   20CHTO   O38 8239   4.054   1.838   0.626 -0.0529 -0.6040  0.1496
   20CHTO   C55 8240   4.040   1.884   0.768  0.2806  0.4785  0.9335
   20CHTO  H112 8241   3.950   1.840   0.813 -0.4171  0.6399 -0.2886
   20CHTO   C56 8242   4.030   2.049   0.753  0.0549 -0.0579 -0.5345
   20CHTO  H113 8243   4.120   2.083   0.699  1.1653  0.5436  1.6453
   20CHTO   O42 8244   3.913   2.089   0.675 -0.5961 -0.1382  0.1774
   20CHTO  H100 8245   3.926   2.160   0.616  1.4613 -1.8562 -1.4781
   20CHTO   C57 8246   4.034   2.119   0.899  0.2713 -0.5856 -0.4964
   20CHTO  H114 8247   3.939   2.103   0.949  1.0898  1.9493  1.9690
   20CHTO   N10 8248   4.068   2.264   0.886 -0.0068  0.1943  0.2415
   20CHTO  H106 8249   4.034   2.304   0.792 -0.9469  0.7258  0.8050
   20CHTO  H107 8250   4.015   2.312   0.966 -0.0822 -0.7363  0.7656
   20CHTO   C58 8251   4.142   2.055   0.987 -0.2328  0.1958 -0.8366
   20CHTO  H115 8252   4.242   2.084   0.948 -0.5503 -0.3781 -2.0971
   20CHTO   O37 8253   4.129   1.910   0.983  0.0648 -0.6206  0.6312
   20CHTO   C59 8254   4.164   1.857   0.854  0.4716 -0.1465  0.1618
   20CHTO  H116 8255   4.255   1.903   0.816  2.1840 -1.3795  2.6121
   20CHTO   C70 8256   4.169   1.705   0.870 -0.1083  0.6567 -0.3372
   20CHTO   O46 8257   4.270   1.657   0.957  0.0549  0.0217  0.7154
   20CHTO  H103 8258   4.238   1.645   1.044  0.2938  1.5976  1.0331
   20CHTO   O39 8259   4.123   2.107   1.139 -0.2375  0.2179  0.2697
   20CHTO   C60 8260   4.185   2.025   1.236  0.1993  0.1266  0.4487
   20CHTO  H117 8261   4.135   1.928   1.234  1.5482 -0.5494 -1.4757
   20CHTO   C62 8262   4.332   2.001   1.215 -0.4743 -0.4609 -0.0836
   20CHTO  H119 8263   4.347   1.950   1.117 -0.7026 -0.1370 -0.2880
   20CHTO   O43 8264   4.403   2.123   1.198 -0.1458  0.0372 -0.0436
   20CHTO  H101 8265   4.402   2.175   1.276  1.1276  1.5390 -1.0029
   20CHTO   C66 8266   4.390   1.913   1.334 -0.2262 -0.0944  0.3643
   20CHTO  H123 8267   4.338   1.818   1.326 -0.6264  0.1102  0.4869
   20CHTO   N12 8268   4.536   1.889   1.320 -0.2911 -0.4445 -0.0382
   20CHTO  H110 8269   4.565   1.815   1.392  1.6348  1.2417  0.9489
   20CHTO  H111 8270   4.591   1.981   1.323  0.4166 -0.7369 -2.7197
   20CHTO   C69 8271   4.369   1.990   1.473 -0.3172 -0.6018 -0.2810
   20CHTO  H126 8272   4.416   2.090   1.466  0.7237 -1.0881 -0.4097
   20CHTO   O41 8273   4.224   2.013   1.498 -0.1551 -0.3601 -0.0479
   20CHTO   C64 8274   4.156   2.087   1.376  0.4799  0.5647  0.0961
   20CHTO  H121 8275   4.196   2.190   1.369 -0.0287  1.0603  3.6555
   20CHTO   C71 8276   4.007   2.101   1.408 -0.0487  0.9522  0.4786
   20CHTO   O47 8277   3.953   1.965   1.430  0.1170 -0.2412  0.1934
   20CHTO  H104 8278   3.870   1.964   1.473  0.3455  2.0979  0.7576
   20CHTO   O34 8279   4.425   1.904   1.595 -0.5930 -0.1172 -0.2495
   20CHTO   C49 8280   4.383   1.757   1.641 -0.1905 -0.1564 -0.2195
   20CHTO   H91 8281   4.400   1.692   1.555 -0.5452 -1.1526  0.4514
   20CHTO   C47 8282   4.235   1.758   1.692  0.8569 -0.1008 -0.6566
   20CHTO   H89 8283   4.172   1.776   1.603  1.7132  2.5342 -0.7996
   20CHTO   O33 8284   4.213   1.858   1.791  0.1247  0.3224  0.1322
   20CHTO   H70 8285   4.296   1.871   1.833  0.8984  0.0187 -1.2817
   20CHTO   C45 8286   4.198   1.618   1.761  0.6225 -1.0490  0.4488
   20CHTO   H87 8287   4.205   1.623   1.871  1.4926 -0.0564  0.3577
   20CHTO    N8 8288   4.056   1.581   1.730  0.1262  0.7786 -0.3997
   20CHTO   H75 8289   4.013   1.548   1.824  3.1818  1.7140  1.3848
   20CHTO   H76 8290   4.035   1.504   1.657  0.7143 -1.4425  1.7369
   20CHTO   C43 8291   4.318   1.508   1.735  0.5032 -0.1021 -0.3127
   20CHTO   H85 8292   4.285   1.417   1.785 -0.1421  0.8601  1.0299
   20CHTO   O29 8293   4.438   1.561   1.792 -0.3001 -0.0050  0.6545
   20CHTO   C50 8294   4.467   1.701   1.755 -1.2636  0.1814  0.6004
   20CHTO   H92 8295   4.460   1.776   1.835  1.0364  1.3906 -0.3055
   20CHTO   C54 8296   4.617   1.702   1.722 -0.3915 -1.2415  0.3188
   20CHTO   O36 8297   4.677   1.653   1.844 -0.2041  0.0209  0.2142
   20CHTO   H72 8298   4.700   1.725   1.901  0.4615  0.0370 -0.0737
   20CHTO   O27 8299   4.340   1.469   1.600  0.2379 -0.4011 -0.4890
   20CHTO   C37 8300   4.334   1.354   1.512  0.9674 -0.0944 -0.2306
   20CHTO   H79 8301   4.257   1.281   1.543  0.8300 -0.1690 -0.7482
   20CHTO   C38 8302   4.291   1.393   1.370 -0.6619 -0.6304  0.5329
   20CHTO   H80 8303   4.357   1.476   1.340 -2.5830  1.2687  1.3758
   20CHTO   O31 8304   4.162   1.443   1.397 -0.0381  0.6317  0.3367
   20CHTO   H68 8305   4.144   1.530   1.367  0.6999  0.4353 -0.7092
   20CHTO   C39 8306   4.298   1.277   1.264  0.5926 -0.0303 -0.4441
   20CHTO   H81 8307   4.215   1.210   1.290  1.7504 -0.9959  0.8411
   20CHTO    N7 8308   4.267   1.317   1.120 -0.2610  0.8060 -0.2699
   20CHTO   H73 8309   4.208   1.407   1.121 -0.9852  0.4646 -3.6133
   20CHTO   H74 8310   4.219   1.234   1.068  0.9779 -1.0606  1.4819
   20CHTO   C40 8311   4.442   1.213   1.261  0.1616  0.2812 -0.2422
   20CHTO   H82 8312   4.512   1.283   1.217 -0.2703  0.9315  0.0980
   20CHTO   O26 8313   4.479   1.175   1.400 -0.1766 -0.4331  0.4339
   20CHTO   C41 8314   4.477   1.287   1.495 -0.0251 -0.3488  0.1611
   20CHTO   H83 8315   4.542   1.365   1.451 -0.7159  1.0949  1.6480
   20CHTO   C52 8316   4.540   1.232   1.624 -0.3167 -0.4253  0.0944
   20CHTO   O35 8317   4.613   1.326   1.717  0.2171 -0.0269  0.1320
   20CHTO   H71 8318   4.646   1.296   1.799  0.9459  1.4253  0.3874
   20CHTO   O28 8319   4.445   1.087   1.190  0.1253 -0.3563  0.1528
   20CHTO   C42 8320   4.567   1.018   1.155  0.6595 -0.1230  0.2308
   20CHTO   H84 8321   4.526   0.940   1.091  0.1932  0.1868  0.1521
   20CHTO   C44 8322   4.644   0.940   1.267 -0.7714  0.0486  0.2954
   20CHTO   H86 8323   4.703   1.011   1.326 -2.8418  0.3606  2.0157
   20CHTO   O32 8324   4.553   0.869   1.358  0.3096 -0.1329 -0.6483
   20CHTO   H69 8325   4.468   0.909   1.357  0.2870 -0.1063  0.9661
   20CHTO   C48 8326   4.747   0.844   1.202  0.2786 -0.5033 -0.1552
   20CHTO   H90 8327   4.683   0.775   1.147 -2.2533 -0.5458  2.7087
   20CHTO    N9 8328   4.819   0.757   1.304  0.1170 -0.0622 -0.4730
   20CHTO   H77 8329   4.767   0.666   1.328  1.2810 -0.1350  1.8293
   20CHTO   H78 8330   4.825   0.821   1.391 -1.1964 -0.7552  0.1337
   20CHTO   C51 8331   4.853   0.922   1.110  0.1648  0.3134  0.0900
   20CHTO   H93 8332   4.912   0.986   1.176 -0.8656  0.6792  0.6673
   20CHTO   O30 8333   4.784   0.999   1.010 -0.1019 -0.3380  0.2528
   20CHTO   C46 8334   4.671   1.105   1.071 -0.5392 -0.1027  1.1740
   20CHTO   H88 8335   4.731   1.178   1.127  0.0946  1.6432 -1.6742
   20CHTO   C53 8336   4.604   1.162   0.948  0.0496 -0.3825 -0.0904
   20CHTO   O72 8337   4.701   1.234   0.875  0.2590  0.3416 -0.6637
   20CHTO  H199 8338   4.672   1.251   0.787 -0.7833  0.6396 -0.2614
   20CHTO   O22 8339   4.935   0.823   1.036  0.1035  0.1006 -0.3455
   20CHTO   C31 8340   5.070   0.843   0.989  0.1410  0.3718 -0.8014
   20CHTO   H59 8341   5.101   0.743   0.952  2.3099  1.1882 -1.2517
   20CHTO   C29 8342   5.072   0.940   0.867 -0.1316  0.6351 -0.7741
   20CHTO   H57 8343   5.024   1.031   0.907  0.7618  1.4607 -1.5461
   20CHTO   O21 8344   4.980   0.881   0.771 -0.0742  0.5251 -0.1951
   20CHTO   H37 8345   4.893   0.906   0.795  0.8561  3.8815  0.0649
   20CHTO   C27 8346   5.210   0.975   0.808 -0.3400 -0.3492 -0.6955
   20CHTO   H55 8347   5.254   0.890   0.755 -0.0052 -0.7549  0.2196
   20CHTO    N5 8348   5.206   1.094   0.716 -0.1743  0.0401 -0.5135
   20CHTO   H43 8349   5.308   1.128   0.707 -0.4169  0.8010 -0.4976
   20CHTO   H44 8350   5.185   1.059   0.616 -3.5310 -2.2725  0.9126
   20CHTO   C25 8351   5.311   0.997   0.927 -0.6774  0.0872 -0.8999
   20CHTO   H53 8352   5.291   1.089   0.983  2.3538  0.9837 -1.1962
   20CHTO   O17 8353   5.305   0.888   1.026  0.5285  0.5083 -0.0938
   20CHTO   C32 8354   5.175   0.872   1.090 -0.3677  0.0960  0.2868
   20CHTO   H60 8355   5.163   0.975   1.125  1.8453  0.4539  0.0743
   20CHTO   C36 8356   5.194   0.762   1.195  0.4503 -0.5613 -0.8547
   20CHTO   O25 8357   5.226   0.635   1.132 -0.2237  0.1805 -0.6047
   20CHTO   H40 8358   5.168   0.563   1.148 -0.2627  0.0860 -1.1694
   20CHTO   O15 8359   5.458   1.010   0.880  0.7616  0.1234 -0.0157
   20CHTO   C19 8360   5.555   1.107   0.823 -0.5475  0.0419 -0.1468
   20CHTO   H47 8361   5.518   1.139   0.725 -1.4370 -0.1260  0.1321
   20CHTO   C20 8362   5.566   1.237   0.899  0.1939 -0.2579  0.0038
   20CHTO   H48 8363   5.609   1.223   0.999  2.1753 -0.0652 -0.8037
   20CHTO   O19 8364   5.435   1.292   0.916  0.6158 -0.6980 -0.1836
   20CHTO   H35 8365   5.418   1.321   1.004 -0.9890 -1.3629 -0.2514
   20CHTO   C21 8366   5.671   1.337   0.831  0.1364 -0.4285  0.0280
   20CHTO   H49 8367   5.643   1.368   0.730  0.2280  0.7405  0.3463
   20CHTO    N4 8368   5.695   1.467   0.905  0.9353 -0.6173  1.0657
   20CHTO   H41 8369   5.760   1.542   0.862 -0.9174 -0.4037 -1.5023
   20CHTO   H42 8370   5.727   1.449   1.007  1.7563  0.7458  1.0704
   20CHTO   C22 8371   5.802   1.261   0.802 -0.0229  0.4965  0.5065
   20CHTO   H50 8372   5.864   1.252   0.892 -1.7456  1.3609  1.8187
   20CHTO   O14 8373   5.773   1.138   0.731 -0.4248 -0.3657  0.1468
   20CHTO   C23 8374   5.690   1.042   0.802 -0.6659  0.5411 -0.3303
   20CHTO   H51 8375   5.741   1.021   0.898  0.8959  3.2304 -0.5491
   20CHTO   C34 8376   5.681   0.910   0.725  0.1937 -0.5160  0.4125
   20CHTO   O23 8377   5.792   0.822   0.762 -0.2890 -0.3981 -0.1554
   20CHTO   H38 8378   5.875   0.852   0.732 -0.0419  1.0146  1.8618
   20CHTO   O16 8379   5.871   1.326   0.693 -0.0662 -0.3414 -0.1243
   20CHTO   C24 8380   6.004   1.246   0.643 -0.5213 -0.4756  0.0325
   20CHTO   H52 8381   6.001   1.142   0.673  2.2376 -0.5233  0.2052
   20CHTO   C26 8382   6.133   1.308   0.698  0.3522  0.1064 -0.9142
   20CHTO   H54 8383   6.124   1.418   0.700 -1.4221  0.0091 -1.9169
   20CHTO   O20 8384   6.147   1.269   0.839 -0.4307  0.1599  0.7051
   20CHTO   H36 8385   6.085   1.313   0.894  0.3478  0.4922  1.3201
   20CHTO   C30 8386   6.267   1.263   0.632 -0.2674 -0.8984  0.1520
   20CHTO   H58 8387   6.338   1.223   0.706  0.7981 -0.7790 -0.7963
   20CHTO    N6 8388   6.348   1.371   0.576 -0.1583 -0.1403 -0.0411
   20CHTO   H45 8389   6.452   1.342   0.583  0.9477  3.3834 -1.1765
   20CHTO   H46 8390   6.338   1.456   0.642  1.3197 -0.0629  0.1040
   20CHTO   C33 8391   6.237   1.150   0.532 -0.8872  0.7799 -0.2695
   20CHTO   H61 8392   6.329   1.145   0.472 -0.1894  2.1445  0.6767
   20CHTO   O18 8393   6.127   1.182   0.446 -0.0862 -0.0961 -0.4132
   20CHTO   C28 8394   6.010   1.246   0.487  0.3877  0.5258  0.3013
   20CHTO   H56 8395   6.018   1.348   0.449  0.6941 -0.3347 -2.0305
   20CHTO   C35 8396   5.889   1.169   0.425  0.4548 -0.0544  0.2167
   20CHTO   O24 8397   5.887   1.179   0.280 -0.1547  0.0321 -0.8895
   20CHTO   H39 8398   5.806   1.148   0.244 -0.4293  3.0523 -3.0867
   20CHTO    O9 8399   6.224   1.018   0.590  0.3954 -0.1383 -0.2833
   20CHTO   C13 8400   6.221   0.899   0.478  0.8390  0.1989 -0.6797
   20CHTO   H26 8401   6.283   0.933   0.392  2.5843 -2.6021 -0.5868
   20CHTO   C11 8402   6.076   0.842   0.434 -0.6964 -0.1168 -0.0622
   20CHTO   H24 8403   6.029   0.921   0.374 -0.7363  0.8666  1.2384
   20CHTO    O8 8404   5.990   0.827   0.550  0.0627 -0.3137 -0.1231
   20CHTO    H3 8405   6.025   0.870   0.625  0.4306 -0.2369 -0.3373
   20CHTO    C9 8406   6.103   0.709   0.355  0.2189  0.1131 -0.1302
   20CHTO   H22 8407   6.166   0.739   0.270  1.3174 -1.3722  0.1501
   20CHTO    N2 8408   5.978   0.665   0.289  0.0150  0.0530 -0.1965
   20CHTO   H10 8409   5.906   0.638   0.365  1.1887 -0.6646  0.6701
   20CHTO   H11 8410   5.990   0.580   0.224  2.4366  0.4441 -0.3143
   20CHTO    C7 8411   6.168   0.606   0.443  0.9664 -0.0329 -0.4641
   20CHTO   H20 8412   6.187   0.522   0.372  1.2953  0.8187 -1.3883
   20CHTO    O4 8413   6.300   0.654   0.482  0.2664 -0.6098 -0.0873
   20CHTO   C14 8414   6.305   0.780   0.550  0.3477 -0.3135 -0.1076
   20CHTO   H27 8415   6.413   0.808   0.548  0.4726 -0.8030 -0.1771
   20CHTO   C18 8416   6.271   0.746   0.697  0.4601 -0.9894 -0.4313
   20CHTO   O13 8417   6.366   0.646   0.741 -0.1018 -0.2008 -0.2665
   20CHTO    H7 8418   6.356   0.625   0.832  2.1983  0.7262  0.2334
   20CHTO    O2 8419   6.082   0.540   0.574 -0.1988  0.1335 -0.0283
   20CHTO    C1 8420   6.077   0.409   0.630  0.2807 -0.5398 -0.3317
   20CHTO   H14 8421   6.062   0.413   0.740 -1.0156 -1.9886 -0.4297
   20CHTO    C2 8422   6.201   0.318   0.597 -0.3165  0.2299  0.5737
   20CHTO   H15 8423   6.211   0.313   0.488 -0.0707  2.4734  0.4737
   20CHTO    O6 8424   6.318   0.382   0.653  0.1660  0.3233 -0.7104
   20CHTO    H1 8425   6.325   0.470   0.620  1.3393  1.0565  1.3976
   20CHTO    C3 8426   6.181   0.166   0.653  0.3335 -0.2921  0.7184
   20CHTO   H16 8427   6.173   0.174   0.763  0.1085  0.0569  0.6782
   20CHTO    N1 8428   6.299   0.079   0.624 -0.0034 -0.1266 -0.2113
   20CHTO    H8 8429   6.326   0.003   0.697 -0.4576 -1.0250 -0.9650
   20CHTO    H9 8430   6.394   0.122   0.599  0.0872 -1.2161 -1.8001
   20CHTO    C4 8431   6.049   0.106   0.609  0.0985 -0.4817 -0.2715
   20CHTO   H17 8432   6.052   0.086   0.502  3.2398 -0.0674 -0.3103
   20CHTO    O1 8433   5.939   0.203   0.634  0.0735  0.3044 -0.2664
   20CHTO    C5 8434   5.947   0.334   0.582 -0.0510 -0.8459  0.0454
   20CHTO   H18 8435   5.963   0.330   0.475 -3.1027 -0.5681 -0.4798
   20CHTO   C16 8436   5.817   0.417   0.604 -0.0733  0.6060 -0.6583
   20CHTO   O11 8437   5.716   0.351   0.527 -0.2659  0.0858 -0.2491
   20CHTO    H5 8438   5.644   0.377   0.581  0.9805  1.1494  0.9408
   20CHTO    O3 8439   6.012  -0.014   0.673 -0.1080  0.0584 -0.0720
   20CHTO    C6 8440   5.914  -0.088   0.602  0.5297  0.4794  0.2389
   20CHTO   H19 8441   5.864  -0.024   0.529  0.2531  0.3589  0.3203
   20CHTO    C8 8442   5.977  -0.209   0.524 -0.7093  0.2977  0.3759
   20CHTO   H21 8443   6.028  -0.274   0.595  1.0616  2.2524  0.9482
   20CHTO    O7 8444   6.076  -0.161   0.434  0.4911  0.5015  0.3260
   20CHTO    H2 8445   6.031  -0.120   0.363  0.6482 -0.8088 -0.5550
   20CHTO   C12 8446   5.869  -0.290   0.442 -0.2999 -0.5763  0.2456
   20CHTO   H25 8447   5.832  -0.225   0.360 -0.5087 -0.4851  0.4150
   20CHTO    N3 8448   5.928  -0.408   0.385  0.1378 -0.7813 -0.4184
   20CHTO   H12 8449   5.867  -0.431   0.298  1.7358  0.0460 -1.7784
   20CHTO   H13 8450   5.914  -0.482   0.461  0.0873 -0.1107  0.2351
   20CHTO   C15 8451   5.750  -0.319   0.547 -0.5883 -0.1148 -0.0611
   20CHTO   H28 8452   5.773  -0.392   0.625  0.0263 -0.5288 -0.6311
   20CHTO   O10 8453   5.627  -0.351   0.470  0.0180  0.6610 -0.2585
   20CHTO    H4 8454   5.589  -0.430   0.503  1.0231 -0.2119 -1.1051
   20CHTO    O5 8455   5.707  -0.201   0.619  0.3873 -0.2638 -0.0098
   20CHTO   C10 8456   5.808  -0.137   0.703 -0.5364  0.2056  0.0120
   20CHTO   H23 8457   5.853  -0.210   0.770  0.0292  0.3380 -0.2168
   20CHTO   C17 8458   5.753  -0.027   0.794  0.1014 -0.0538 -0.2606
   20CHTO   O12 8459   5.690  -0.083   0.909  0.0721  0.2366 -0.2547
   20CHTO    H6 8460   5.623  -0.140   0.877  2.3867 -2.3398 -0.7280
   21GLOH   H03 8461   3.391   8.502   0.417  0.2419  0.0033 -0.3932
   21GLOH    O1 8462   3.438   8.458   0.490 -0.2630 -0.2315 -0.2083
   21GLOH    C1 8463   3.577   8.443   0.460  1.2491  0.2096  0.1117
   21GLOH   H02 8464   3.594   8.351   0.404  2.5668 -0.0563  0.9388
   21GLOH   H08 8465   3.635   8.433   0.552  0.1926 -0.0812  0.7546
   21GLOH    C2 8466   3.635   8.561   0.382  0.5878  0.4014  0.3265
   21GLOH   H04 8467   3.742   8.537   0.394  0.3595 -0.8628 -0.1756
   21GLOH    O2 8468   3.592   8.575   0.241 -0.2857 -0.1222 -0.6424
   21GLOH   H05 8469   3.570   8.495   0.189 -0.8024 -0.7658  0.5470
   21GLOH    C3 8470   3.619   8.699   0.452  0.6397  0.2233  1.0831
   21GLOH   H06 8471   3.514   8.714   0.476  0.4356 -0.1614  0.4429
   21GLOH   H07 8472   3.654   8.783   0.392 -0.1193 -0.4573 -0.3225
   21GLOH    O3 8473   3.698   8.698   0.575 -0.2084 -0.2217 -0.4888
   21GLOH   H01 8474   3.792   8.692   0.549  0.2692  0.2866  1.1183
   22GLOH   H03 8475   3.625   8.187   2.249  0.0379  2.3727 -1.7951
   22GLOH    O1 8476   3.634   8.224   2.339  0.0322 -0.1084 -0.7237
   22GLOH    C1 8477   3.719   8.337   2.348  0.1963  0.1861  0.2929
   22GLOH   H02 8478   3.658   8.427   2.356 -0.1347  0.1079 -1.1220
   22GLOH   H08 8479   3.788   8.346   2.263  1.7851 -1.7080  1.3503
   22GLOH    C2 8480   3.803   8.353   2.473  0.5017  0.0717  0.4025
   22GLOH   H04 8481   3.877   8.271   2.470  2.1043  1.5574 -1.6987
   22GLOH    O2 8482   3.880   8.474   2.474  0.0997  0.1624  0.1211
   22GLOH   H05 8483   3.941   8.480   2.398 -0.9552  0.0143 -0.7462
   22GLOH    C3 8484   3.709   8.343   2.597 -0.1796  0.5954  0.4034
   22GLOH   H06 8485   3.658   8.437   2.617 -0.9671  0.5474 -1.3031
   22GLOH   H07 8486   3.776   8.325   2.681  1.3819 -0.0432 -0.9396
   22GLOH    O3 8487   3.612   8.233   2.593  0.2325 -0.5404  0.0068
   22GLOH   H01 8488   3.621   8.205   2.500 -0.2546 -1.9117  0.3555
   23GLOH   H03 8489   2.653   8.962   0.520  2.0280 -0.5700 -1.4218
   23GLOH    O1 8490   2.705   8.956   0.602  0.2489 -0.6295 -0.2626
   23GLOH    C1 8491   2.829   8.900   0.558 -0.0178  0.8093  0.6428
   23GLOH   H02 8492   2.913   8.959   0.593  2.4847 -1.6899 -0.9609
   23GLOH   H08 8493   2.829   8.892   0.449 -0.7090  1.3368  0.5971
   23GLOH    C2 8494   2.852   8.761   0.621 -1.0222 -0.3723  0.1060
   23GLOH   H04 8495   2.762   8.699   0.606 -0.5610 -1.8086  3.0024
   23GLOH    O2 8496   2.967   8.694   0.557  0.3784 -0.5062  0.7761
   23GLOH   H05 8497   2.976   8.604   0.594 -1.0212 -0.7881  0.4666
   23GLOH    C3 8498   2.869   8.775   0.776 -0.4424 -0.6768  1.1561
   23GLOH   H06 8499   2.963   8.823   0.803  0.5603 -1.1515 -1.3246
   23GLOH   H07 8500   2.875   8.674   0.816 -0.0774 -0.5288  1.4784
   23GLOH    O3 8501   2.757   8.842   0.835 -0.4442 -0.7500 -0.3992
   23GLOH   H01 8502   2.704   8.892   0.771  1.5154  0.6939 -0.9225
   24GLOH   H03 8503   2.651   9.384   0.178  0.0420 -0.2416  1.3929
   24GLOH    O1 8504   2.581   9.320   0.155  0.2084  0.1323 -0.2102
   24GLOH    C1 8505   2.497   9.294   0.270  0.8270 -0.1890 -0.4065
   24GLOH   H02 8506   2.397   9.262   0.240 -0.3318 -0.8684  3.9469
   24GLOH   H08 8507   2.485   9.383   0.332  1.0872  1.1384 -2.2126
   24GLOH    C2 8508   2.560   9.184   0.365  0.1324 -0.5102  0.3033
   24GLOH   H04 8509   2.663   9.221   0.378  0.2932  1.1960 -4.5212
   24GLOH    O2 8510   2.492   9.182   0.494 -0.0033 -0.3594  0.0844
   24GLOH   H05 8511   2.497   9.271   0.532 -0.7720  0.0028 -0.6532
   24GLOH    C3 8512   2.562   9.044   0.293 -0.2214 -0.4266 -0.3633
   24GLOH   H06 8513   2.645   9.055   0.223  0.0695  0.0580  0.0553
   24GLOH   H07 8514   2.469   9.041   0.237 -0.3181  0.1582 -0.2367
   24GLOH    O3 8515   2.577   8.931   0.377  0.2853  0.3633  0.3242
   24GLOH   H01 8516   2.488   8.896   0.391  0.0917  1.3102  1.4810
   25GLOH   H03 8517   3.424   9.227  -0.012  0.9305 -1.9241  0.4310
   25GLOH    O1 8518   3.463   9.246   0.076  0.0794  0.3931  0.3565
   25GLOH    C1 8519   3.600   9.207   0.083  0.5244  0.0532 -0.2851
   25GLOH   H02 8520   3.669   9.275   0.034 -1.1496  2.3707  0.4750
   25GLOH   H08 8521   3.606   9.115   0.024 -0.0571 -0.6614  0.7508
   25GLOH    C2 8522   3.647   9.165   0.225  0.4266 -0.8959  0.4320
   25GLOH   H04 8523   3.735   9.100   0.209 -1.2742 -3.2180  0.2740
   25GLOH    O2 8524   3.691   9.279   0.299  0.8617 -0.2376 -0.2601
   25GLOH   H05 8525   3.764   9.252   0.358  0.5772  1.2443  0.8042
   25GLOH    C3 8526   3.540   9.083   0.299  0.3142 -0.6798  0.3840
   25GLOH   H06 8527   3.451   9.142   0.321 -0.6307 -1.7671 -0.4864
   25GLOH   H07 8528   3.584   9.072   0.399  2.3266  0.2842 -0.3726
   25GLOH    O3 8529   3.523   8.952   0.245  0.0402 -0.1836 -0.4347
   25GLOH   H01 8530   3.433   8.916   0.238  0.3588 -1.6200  2.0843
   26GLOH   H03 8531   4.545   9.602   0.973 -0.3106 -0.6011  0.7017
   26GLOH    O1 8532   4.535   9.657   1.053 -0.2516 -0.0156  0.3077
   26GLOH    C1 8533   4.633   9.754   1.071  0.3951  0.2552 -0.3098
   26GLOH   H02 8534   4.661   9.799   0.976 -0.8384  1.5940 -0.0529
   26GLOH   H08 8535   4.723   9.706   1.110  0.5932  0.0966 -0.9643
   26GLOH    C2 8536   4.598   9.873   1.164  0.6526  0.3448 -0.0462
   26GLOH   H04 8537   4.495   9.901   1.137  0.5329 -0.0914 -0.0451
   26GLOH    O2 8538   4.589   9.840   1.306  0.0490  0.7890  0.2288
   26GLOH   H05 8539   4.512   9.783   1.318  2.0176 -1.8018  1.1850
   26GLOH    C3 8540   4.690   9.999   1.151  0.5858  0.1163 -0.5043
   26GLOH   H06 8541   4.783   9.982   1.204 -0.9200 -0.8197  1.9386
   26GLOH   H07 8542   4.640  10.086   1.195  0.1119  0.5332 -1.8249
   26GLOH    O3 8543   4.728  10.024   1.013 -0.3368  0.0816  0.0790
   26GLOH   H01 8544   4.647  10.025   0.959  0.1402  2.0539 -0.6457
   27GLOH   H03 8545   3.238   8.891   0.656  1.0434  0.2537 -0.4863
   27GLOH    O1 8546   3.197   8.943   0.584  0.6880  0.6424 -0.0071
   27GLOH    C1 8547   3.282   9.048   0.544 -0.3526  0.0945 -0.3208
   27GLOH   H02 8548   3.264   9.063   0.437 -0.5551 -2.0224 -0.6108
   27GLOH   H08 8549   3.388   9.022   0.544 -0.8019 -1.7765  0.1837
   27GLOH    C2 8550   3.277   9.170   0.634  0.0229 -0.4121 -0.6983
   27GLOH   H04 8551   3.288   9.141   0.739  0.5179 -0.5318 -0.7778
   27GLOH    O2 8552   3.385   9.254   0.595  0.5824  0.0468  0.9727
   27GLOH   H05 8553   3.467   9.220   0.635 -0.3770 -1.5120  1.6613
   27GLOH    C3 8554   3.147   9.253   0.616  0.2077  0.8241  0.0283
   27GLOH   H06 8555   3.127   9.315   0.703  0.3078  2.0581 -0.8050
   27GLOH   H07 8556   3.074   9.174   0.597  2.1569  0.1148 -5.3433
   27GLOH    O3 8557   3.144   9.326   0.492 -0.4895  0.2464  0.1900
   27GLOH   H01 8558   3.115   9.272   0.417 -0.4021  1.0397 -0.4210
   28GLOH   H03 8559   4.660   9.991   1.785  0.7819  1.9707 -1.0851
   28GLOH    O1 8560   4.609   9.990   1.702 -0.2193 -0.3312 -0.4728
   28GLOH    C1 8561   4.527   9.867   1.716  0.3328 -0.0890 -0.8014
   28GLOH   H02 8562   4.584   9.774   1.720 -0.0415 -0.3876 -2.1910
   28GLOH   H08 8563   4.457   9.852   1.634  0.8100 -1.1914 -1.0133
   28GLOH    C2 8564   4.440   9.877   1.844  0.2214 -0.7274  0.7460
   28GLOH   H04 8565   4.383   9.971   1.845 -1.6989 -1.8766  3.0303
   28GLOH    O2 8566   4.352   9.769   1.852 -0.4678 -0.0273  0.0226
   28GLOH   H05 8567   4.297   9.782   1.930  0.2105  1.0408  0.3264
   28GLOH    C3 8568   4.545   9.870   1.957 -0.2559  0.4342 -0.4065
   28GLOH   H06 8569   4.600   9.776   1.958 -1.5009 -0.2957 -0.3147
   28GLOH   H07 8570   4.493   9.863   2.052  0.3298 -1.2049 -0.1906
   28GLOH    O3 8571   4.642   9.976   1.959 -0.6090  0.2551 -0.2561
   28GLOH   H01 8572   4.599  10.052   2.003  1.0126  2.3362 -2.1162
   29GLOH   H03 8573   4.105   0.772   1.246 -0.6425 -1.2463  0.2220
   29GLOH    O1 8574   4.031   0.802   1.303 -0.2056  0.0523  0.1030
   29GLOH    C1 8575   4.073   0.779   1.442 -0.9486  0.5151  0.3500
   29GLOH   H02 8576   4.071   0.672   1.463  2.6278  0.2600 -0.3845
   29GLOH   H08 8577   4.003   0.826   1.511 -0.0892  0.3591  1.3446
   29GLOH    C2 8578   4.208   0.828   1.478  0.3366 -0.3089 -0.1145
   29GLOH   H04 8579   4.216   0.822   1.587  0.1536  2.3300  0.0853
   29GLOH    O2 8580   4.302   0.748   1.410 -0.0338  0.0093  0.6704
   29GLOH   H05 8581   4.277   0.728   1.318 -0.1934 -2.8383  1.2908
   29GLOH    C3 8582   4.220   0.975   1.438 -1.1149  0.2299  0.0017
   29GLOH   H06 8583   4.203   0.986   1.331 -1.2189 -1.7849 -0.2219
   29GLOH   H07 8584   4.322   0.998   1.465 -0.9030  2.0055 -2.2012
   29GLOH    O3 8585   4.134   1.066   1.510  0.5263 -0.1437 -0.4253
   29GLOH   H01 8586   4.175   1.072   1.598 -0.8845 -0.0936  0.2459
   30GLOH   H03 8587   2.958   8.993   0.275 -0.7075 -0.7368 -0.1150
   30GLOH    O1 8588   2.901   9.004   0.197 -0.2605 -0.1001 -0.3584
   30GLOH    C1 8589   2.904   9.144   0.160 -1.1675 -0.5217  0.1847
   30GLOH   H02 8590   2.850   9.203   0.234  1.5407  1.0022  1.0325
   30GLOH   H08 8591   2.869   9.168   0.060  1.1989 -1.5104 -0.9409
   30GLOH    C2 8592   3.049   9.199   0.167  0.4537  0.5992 -0.0937
   30GLOH   H04 8593   3.047   9.308   0.152  1.8208  0.6375 -0.0213
   30GLOH    O2 8594   3.105   9.178   0.299  0.1427 -0.4953  0.6928
   30GLOH   H05 8595   3.084   9.084   0.315 -0.3578 -0.8225 -1.6053
   30GLOH    C3 8596   3.132   9.131   0.063  0.7853 -0.0895 -0.5562
   30GLOH   H06 8597   3.110   9.025   0.071 -1.2058  0.2663 -1.1723
   30GLOH   H07 8598   3.238   9.148   0.085  0.4605  0.0595  0.9309
   30GLOH    O3 8599   3.099   9.177  -0.066  0.7497  0.3570  0.0267
   30GLOH   H01 8600   3.118   9.108  -0.132 -0.8013  1.7637 -1.9603
   31GLOH   H03 8601   3.751   1.314   0.483 -3.0680  1.7391  0.4258
   31GLOH    O1 8602   3.743   1.278   0.393 -0.0148  0.0254  0.7549
   31GLOH    C1 8603   3.617   1.315   0.342 -0.5672 -0.0863 -0.4955
   31GLOH   H02 8604   3.531   1.270   0.392 -1.0773 -1.3345 -2.4391
   31GLOH   H08 8605   3.615   1.275   0.241  1.0350 -0.0558 -0.5501
   31GLOH    C2 8606   3.601   1.468   0.323  0.1413 -0.4651  0.1283
   31GLOH   H04 8607   3.691   1.527   0.302 -1.2183  1.3075 -0.9432
   31GLOH    O2 8608   3.502   1.490   0.227  0.1227 -0.1291 -0.1715
   31GLOH   H05 8609   3.537   1.470   0.138 -1.2733  1.6305 -1.1338
   31GLOH    C3 8610   3.535   1.519   0.461  0.2491 -1.1429  0.5969
   31GLOH   H06 8611   3.435   1.476   0.471  0.5949 -2.2966 -0.6446
   31GLOH   H07 8612   3.520   1.627   0.460  3.5354 -0.6288 -0.2002
   31GLOH    O3 8613   3.604   1.479   0.573  0.1998 -0.0276 -0.7290
   31GLOH   H01 8614   3.577   1.524   0.655 -0.9138  0.6472 -1.4436
   32GLOH   H03 8615   3.049  -0.028   0.417  0.0658  0.4205 -0.3645
   32GLOH    O1 8616   3.114  -0.048   0.346  0.9525  0.5341  0.4049
   32GLOH    C1 8617   3.136   0.069   0.264 -0.7307  0.0397  0.7624
   32GLOH   H02 8618   3.216   0.047   0.193 -0.2680  2.2757  0.5702
   32GLOH   H08 8619   3.177   0.148   0.327  1.0675 -0.4467  0.2386
   32GLOH    C2 8620   3.000   0.101   0.191  0.2539  0.3688  0.1488
   32GLOH   H04 8621   2.931   0.108   0.276 -1.0679  2.0302 -1.0253
   32GLOH    O2 8622   2.982   0.231   0.138 -0.5972 -0.2902 -0.2351
   32GLOH   H05 8623   3.025   0.299   0.192  1.5936 -1.0987 -0.8882
   32GLOH    C3 8624   2.961  -0.014   0.098 -0.0578 -0.2709 -0.1701
   32GLOH   H06 8625   3.035  -0.011   0.018  2.2563 -1.9111  1.8233
   32GLOH   H07 8626   2.866   0.005   0.048  0.9416 -0.2522 -2.0816
   32GLOH    O3 8627   2.948  -0.141   0.158 -1.0398 -0.3969  0.1657
   32GLOH   H01 8628   3.009  -0.144   0.234 -0.7780 -0.7126 -0.0563
   33GLOH   H03 8629   3.278   9.664   2.257 -1.0159  0.6270 -2.4538
   33GLOH    O1 8630   3.270   9.571   2.230 -0.4127 -0.2604  0.3297
   33GLOH    C1 8631   3.314   9.479   2.331 -0.2438  0.4177  0.3477
   33GLOH   H02 8632   3.284   9.376   2.309 -2.0308  1.2367 -1.1788
   33GLOH   H08 8633   3.272   9.506   2.428  0.8877  0.8735  0.7180
   33GLOH    C2 8634   3.463   9.481   2.344  0.2442 -0.3771 -0.3324
   33GLOH   H04 8635   3.495   9.584   2.365 -0.3694 -0.6370  2.0731
   33GLOH    O2 8636   3.502   9.398   2.455 -0.0094 -0.2571 -0.2339
   33GLOH   H05 8637   3.582   9.345   2.438  0.9871  0.9682  0.5262
   33GLOH    C3 8638   3.537   9.424   2.217 -0.1667  0.1440  0.2909
   33GLOH   H06 8639   3.506   9.322   2.194 -0.0651  0.1781  0.0069
   33GLOH   H07 8640   3.643   9.411   2.238 -0.2342  1.5538  1.6593
   33GLOH    O3 8641   3.521   9.497   2.092  0.0980  0.1907 -0.5176
   33GLOH   H01 8642   3.522   9.593   2.110  1.9564 -0.0214  0.6283
   34GLOH   H03 8643   3.492  -0.189  -0.048 -0.6428  0.1035 -1.6637
   34GLOH    O1 8644   3.529  -0.099  -0.050 -0.2367  0.0198  0.3983
   34GLOH    C1 8645   3.472  -0.048   0.073  0.1731  0.3145  0.4351
   34GLOH   H02 8646   3.491  -0.115   0.157 -1.9314  2.0946  2.3937
   34GLOH   H08 8647   3.364  -0.039   0.071  0.2282  1.0843  0.5600
   34GLOH    C2 8648   3.532   0.086   0.128  0.2366 -0.3430  0.2172
   34GLOH   H04 8649   3.534   0.155   0.042  0.4765 -0.1343  0.3903
   34GLOH    O2 8650   3.459   0.149   0.242 -0.3055  0.6586 -0.2800
   34GLOH   H05 8651   3.432   0.082   0.307 -0.4034  0.3447 -0.6409
   34GLOH    C3 8652   3.679   0.046   0.157  0.5575  0.2915  0.0530
   34GLOH   H06 8653   3.726   0.142   0.178 -0.2010  0.2263  2.1551
   34GLOH   H07 8654   3.723  -0.003   0.070 -0.5850  2.2829 -1.6877
   34GLOH    O3 8655   3.696  -0.053   0.260  0.0022 -0.3395 -0.7354
   34GLOH   H01 8656   3.712   0.000   0.340 -1.6536  0.3417 -0.8291
   35GLOH   H03 8657   4.090   1.128   0.822 -0.4954 -1.7689  0.1630
   35GLOH    O1 8658   4.181   1.098   0.802  0.0133 -0.4842  0.4799
   35GLOH    C1 8659   4.212   0.968   0.865  0.6068  0.0294 -0.1482
   35GLOH   H02 8660   4.127   0.903   0.842  0.3782  0.9033 -1.9086
   35GLOH   H08 8661   4.212   0.980   0.973 -1.6090  0.2744 -0.1473
   35GLOH    C2 8662   4.346   0.902   0.823 -0.1585 -0.4756  0.3987
   35GLOH   H04 8663   4.432   0.960   0.862 -1.8156  1.0900  1.7978
   35GLOH    O2 8664   4.339   0.772   0.885 -0.3564  0.1616 -0.7092
   35GLOH   H05 8665   4.432   0.742   0.890  0.2369  2.1334  0.3780
   35GLOH    C3 8666   4.375   0.884   0.673  0.7212 -0.0174 -0.7811
   35GLOH   H06 8667   4.459   0.816   0.665  0.6124 -0.1412 -0.8824
   35GLOH   H07 8668   4.399   0.981   0.629  0.0649  0.2764 -0.4952
   35GLOH    O3 8669   4.258   0.830   0.612 -1.3090  0.0454  0.0314
   35GLOH   H01 8670   4.283   0.743   0.576 -1.5964  0.0790 -0.2611
   36GLOH   H03 8671   4.297   0.500   2.331 -1.8322 -1.3952 -2.2982
   36GLOH    O1 8672   4.244   0.582   2.332  0.0235 -0.1962  0.1853
   36GLOH    C1 8673   4.137   0.566   2.238 -0.1227  0.1579  0.6386
   36GLOH   H02 8674   4.173   0.504   2.157 -0.7833 -3.1870  2.8151
   36GLOH   H08 8675   4.112   0.653   2.177 -1.7938 -1.3340 -0.8924
   36GLOH    C2 8676   4.017   0.490   2.290 -0.2911 -0.8050  0.3918
   36GLOH   H04 8677   4.059   0.414   2.357 -0.0819  0.4100  1.6821
   36GLOH    O2 8678   3.925   0.566   2.368 -0.4691 -0.1019  0.1614
   36GLOH   H05 8679   3.933   0.557   2.465 -0.6780  1.5156  0.3480
   36GLOH    C3 8680   3.941   0.420   2.187 -0.2554 -0.1571 -0.4776
   36GLOH   H06 8681   3.957   0.490   2.105 -0.1123  0.1668 -0.1729
   36GLOH   H07 8682   3.834   0.425   2.203 -0.3368  0.3875 -1.1551
   36GLOH    O3 8683   3.987   0.284   2.166 -0.4525  0.1050  0.5694
   36GLOH   H01 8684   3.933   0.247   2.094  0.6537 -4.1280  1.7928
   37GLOH   H03 8685   4.037   0.269   1.917  1.2408 -1.0951  0.2409
   37GLOH    O1 8686   4.099   0.336   1.883 -0.1758  0.1886  0.1275
   37GLOH    C1 8687   4.000   0.423   1.822 -0.7834 -0.5505  0.1064
   37GLOH   H02 8688   3.930   0.455   1.899 -1.5179  1.6932 -1.4634
   37GLOH   H08 8689   3.939   0.372   1.748 -1.3637  2.1228 -1.3227
   37GLOH    C2 8690   4.056   0.553   1.752 -0.2588 -0.2887 -0.0352
   37GLOH   H04 8691   4.130   0.518   1.678 -1.5685 -0.1373 -1.4432
   37GLOH    O2 8692   3.962   0.631   1.675 -0.0847  0.1822 -0.6201
   37GLOH   H05 8693   3.905   0.571   1.624  1.3501  0.4628 -2.6191
   37GLOH    C3 8694   4.123   0.644   1.855  0.2151  0.3846 -0.6053
   37GLOH   H06 8695   4.159   0.728   1.795 -0.4194 -0.0382 -1.5876
   37GLOH   H07 8696   4.211   0.606   1.907  1.8061  1.5569 -2.3644
   37GLOH    O3 8697   4.022   0.693   1.953  0.2285  0.0256 -0.1118
   37GLOH   H01 8698   3.932   0.700   1.915 -0.3574 -3.1484  0.5053
   38GLOH   H03 8699   3.605   9.167   0.854 -1.7238  0.0117 -0.1125
   38GLOH    O1 8700   3.619   9.184   0.949  0.1551  0.0366 -0.3649
   38GLOH    C1 8701   3.508   9.250   1.005 -0.1009 -0.1085  0.4503
   38GLOH   H02 8702   3.429   9.274   0.933  1.0510  0.2234 -0.7094
   38GLOH   H08 8703   3.541   9.349   1.037  1.1508 -0.0627 -0.9608
   38GLOH    C2 8704   3.448   9.188   1.132 -0.5050  0.4561 -0.6291
   38GLOH   H04 8705   3.528   9.172   1.206 -1.7750  0.3209  0.7410
   38GLOH    O2 8706   3.348   9.260   1.202  0.5941  0.4364  0.0453
   38GLOH   H05 8707   3.310   9.330   1.147 -1.6124  1.2639  2.4614
   38GLOH    C3 8708   3.410   9.037   1.101 -0.5052  0.1982 -0.3723
   38GLOH   H06 8709   3.346   9.005   1.183  1.3951 -2.6711  0.0788
   38GLOH   H07 8710   3.498   8.972   1.097  0.1220  1.0711 -0.9560
   38GLOH    O3 8711   3.330   9.027   0.984 -0.0993 -0.0378  0.1467
   38GLOH   H01 8712   3.247   9.072   1.009  1.6676  1.7689  2.9527
   39GLOH   H03 8713   4.473   8.519   2.006 -0.6265  0.3249  0.3133
   39GLOH    O1 8714   4.511   8.604   1.978  0.1549 -0.1976 -0.2356
   39GLOH    C1 8715   4.415   8.694   1.915  0.4511  0.7584 -0.4301
   39GLOH   H02 8716   4.316   8.657   1.943  0.2151 -0.2650 -2.5107
   39GLOH   H08 8717   4.415   8.694   1.806  1.4562  0.7393 -0.4374
   39GLOH    C2 8718   4.426   8.838   1.969  0.7084  0.5363 -0.0711
   39GLOH   H04 8719   4.510   8.878   1.909  0.7309 -0.4755 -0.7258
   39GLOH    O2 8720   4.308   8.908   1.930  0.7899  0.0934 -0.1122
   39GLOH   H05 8721   4.318   8.967   1.853 -2.9480  0.4294 -0.4451
   39GLOH    C3 8722   4.448   8.848   2.123  0.3673  0.0625  0.3340
   39GLOH   H06 8723   4.354   8.867   2.176  1.9955  1.6982  2.7052
   39GLOH   H07 8724   4.499   8.943   2.137 -1.1708  0.7969  1.1182
   39GLOH    O3 8725   4.524   8.744   2.179 -1.0520 -0.1429 -0.2749
   39GLOH   H01 8726   4.547   8.687   2.102 -1.1532  0.8893 -1.0764
   40GLOH   H03 8727   2.868   8.639   0.254 -1.2921 -0.5392 -0.6015
   40GLOH    O1 8728   2.928   8.562   0.250 -0.3716  0.1320 -0.0516
   40GLOH    C1 8729   2.858   8.455   0.324  0.1935  0.5508 -0.3568
   40GLOH   H02 8730   2.895   8.462   0.426 -2.1693 -1.6239  0.6990
   40GLOH   H08 8731   2.890   8.357   0.286  0.5437  0.2643  0.6606
   40GLOH    C2 8732   2.699   8.457   0.312 -0.6417  0.3021 -0.0527
   40GLOH   H04 8733   2.676   8.449   0.205 -2.5785 -0.8241  0.4331
   40GLOH    O2 8734   2.639   8.340   0.373  0.3259  0.3056 -0.2644
   40GLOH   H05 8735   2.590   8.374   0.450 -1.1210  1.8092 -1.7933
   40GLOH    C3 8736   2.650   8.596   0.368  0.2721 -0.2560  0.1328
   40GLOH   H06 8737   2.675   8.590   0.474  0.5345  0.6268  0.1280
   40GLOH   H07 8738   2.542   8.609   0.376  0.5018  0.4889  2.4636
   40GLOH    O3 8739   2.709   8.716   0.318 -0.1758 -0.1470  1.0881
   40GLOH   H01 8740   2.657   8.790   0.355 -0.9681  0.4450 -1.1069
   41GLOH   H03 8741   3.543   0.374   2.465 -0.7779 -0.2013  0.0947
   41GLOH    O1 8742   3.522   0.465   2.493 -0.1013 -0.0974  0.2790
   41GLOH    C1 8743   3.420   0.456   2.591  0.0218  0.5688  0.0989
   41GLOH   H02 8744   3.387   0.559   2.604 -0.4352  0.5829 -1.1204
   41GLOH   H08 8745   3.464   0.416   2.682 -1.2910  2.0634  1.4343
   41GLOH    C2 8746   3.299   0.373   2.555  0.3362 -0.1693 -0.4532
   41GLOH   H04 8747   3.239   0.427   2.480  1.4083  2.3846  0.4703
   41GLOH    O2 8748   3.329   0.251   2.485  0.2826 -0.0392 -0.0904
   41GLOH   H05 8749   3.277   0.251   2.403  1.9170  0.6572 -1.1362
   41GLOH    C3 8750   3.224   0.355   2.686 -0.0126 -0.0473  0.2710
   41GLOH   H06 8751   3.289   0.291   2.746 -0.3713 -1.6288 -1.0124
   41GLOH   H07 8752   3.134   0.300   2.662  0.9164 -2.6814  2.6016
   41GLOH    O3 8753   3.200   0.476   2.763 -0.2098  0.2254  0.1176
   41GLOH   H01 8754   3.150   0.535   2.704 -0.4522 -2.0244 -2.0443
   42GLOH   H03 8755   3.852   0.726   2.344 -0.5482 -0.1327  0.6076
   42GLOH    O1 8756   3.810   0.812   2.324  0.2609  0.0429 -0.3554
   42GLOH    C1 8757   3.670   0.804   2.293 -0.6878  0.0468 -0.1907
   42GLOH   H02 8758   3.617   0.900   2.295 -3.9792 -1.7152  1.4825
   42GLOH   H08 8759   3.625   0.745   2.373  0.8861  1.3241  1.7054
   42GLOH    C2 8760   3.640   0.737   2.155  0.2116  0.7562 -0.1102
   42GLOH   H04 8761   3.673   0.634   2.176  0.2983  0.9658  0.8055
   42GLOH    O2 8762   3.501   0.750   2.140  0.3250 -0.1492 -0.2036
   42GLOH   H05 8763   3.475   0.836   2.102 -0.5097 -0.7134 -0.9232
   42GLOH    C3 8764   3.713   0.799   2.035  0.1754  0.0706  0.2232
   42GLOH   H06 8765   3.814   0.828   2.066  1.2749 -3.1092 -0.2133
   42GLOH   H07 8766   3.651   0.889   2.029  0.8482  0.4326 -1.4619
   42GLOH    O3 8767   3.728   0.720   1.914  0.6054 -0.3927  0.0713
   42GLOH   H01 8768   3.646   0.671   1.893 -0.5324 -0.4414  4.0826
   43GLOH   H03 8769   3.737   1.032   0.237 -0.3162  0.7781 -0.3826
   43GLOH    O1 8770   3.658   0.988   0.200 -0.2035  0.3735 -0.1400
   43GLOH    C1 8771   3.581   0.940   0.312  1.4780  0.2834 -0.5137
   43GLOH   H02 8772   3.576   1.019   0.387 -1.0124  0.2141 -0.5702
   43GLOH   H08 8773   3.624   0.847   0.350  2.2300  0.5063 -0.8062
   43GLOH    C2 8774   3.442   0.907   0.251  0.3773  0.0730 -0.0224
   43GLOH   H04 8775   3.455   0.854   0.156 -0.7022 -1.6207  0.7477
   43GLOH    O2 8776   3.380   0.816   0.343  0.0509  0.4968 -0.2141
   43GLOH   H05 8777   3.445   0.771   0.400  0.3580  0.5622 -0.5123
   43GLOH    C3 8778   3.358   1.034   0.232 -0.0958  0.3446  0.5062
   43GLOH   H06 8779   3.266   1.000   0.183  0.7657 -2.3870  0.6722
   43GLOH   H07 8780   3.413   1.089   0.156  1.3812 -0.4894  0.9516
   43GLOH    O3 8781   3.335   1.117   0.344  0.7722  0.6716 -0.6013
   43GLOH   H01 8782   3.276   1.192   0.327 -0.7020 -0.3555 -0.1620
   44GLOH   H03 8783   4.212  -0.008   0.837 -0.1944  1.2005  2.3139
   44GLOH    O1 8784   4.164   0.063   0.790  0.6223  0.2007 -0.0859
   44GLOH    C1 8785   4.029   0.032   0.777  0.7003 -0.5529 -0.1164
   44GLOH   H02 8786   4.015  -0.075   0.767 -1.7709 -0.4067  1.4657
   44GLOH   H08 8787   3.980   0.090   0.699 -0.3556 -1.4203 -0.1087
   44GLOH    C2 8788   3.956   0.070   0.910  0.2295  0.6325 -0.3157
   44GLOH   H04 8789   3.981   0.173   0.941  2.0369 -0.7355  2.9182
   44GLOH    O2 8790   3.813   0.056   0.906  0.0704 -0.4070 -0.1297
   44GLOH   H05 8791   3.775   0.092   0.988  1.1791 -1.6946  0.9801
   44GLOH    C3 8792   4.008  -0.014   1.037  0.6789  0.3653  0.1837
   44GLOH   H06 8793   3.991  -0.120   1.020 -0.2580  0.7559 -1.3968
   44GLOH   H07 8794   3.948   0.018   1.122  1.6673  3.0865 -0.0956
   44GLOH    O3 8795   4.146   0.007   1.075 -0.3261 -0.4083  0.6275
   44GLOH   H01 8796   4.210  -0.035   1.015  1.4806  1.8686  0.8861
   45GLOH   H03 8797   4.432   8.673   2.284 -0.9335 -1.0813 -1.9927
   45GLOH    O1 8798   4.371   8.612   2.330  0.4605 -0.3739  0.9422
   45GLOH    C1 8799   4.240   8.628   2.275 -0.4256  0.0818  0.6417
   45GLOH   H02 8800   4.235   8.676   2.177 -0.2623 -0.9840  0.1023
   45GLOH   H08 8801   4.172   8.686   2.337  2.3318  1.2827  2.6780
   45GLOH    C2 8802   4.173   8.488   2.258 -0.0469  0.3564 -0.4672
   45GLOH   H04 8803   4.200   8.444   2.355 -1.4559 -1.1228 -0.7360
   45GLOH    O2 8804   4.027   8.508   2.243 -0.0820  0.3289 -0.1575
   45GLOH   H05 8805   4.001   8.470   2.157  0.7955  1.2615 -0.8398
   45GLOH    C3 8806   4.249   8.416   2.149 -0.3515  0.3882 -0.9471
   45GLOH   H06 8807   4.209   8.464   2.059 -0.3590 -0.4006 -1.3705
   45GLOH   H07 8808   4.218   8.311   2.151 -1.6306  0.7678  1.5891
   45GLOH    O3 8809   4.393   8.435   2.152 -0.5900  0.1345  0.0195
   45GLOH   H01 8810   4.419   8.496   2.223  1.0165 -2.8710  2.1492
   46GLOH   H03 8811   3.121   8.260   2.047  0.6460  0.0568  0.5190
   46GLOH    O1 8812   3.033   8.220   2.035  0.5930  0.3145  0.0352
   46GLOH    C1 8813   3.033   8.178   1.894 -0.3876 -0.1790  0.4438
   46GLOH   H02 8814   2.939   8.137   1.857 -0.9798  1.9049 -0.4807
   46GLOH   H08 8815   3.108   8.101   1.875  1.6204  1.4190  1.6186
   46GLOH    C2 8816   3.060   8.293   1.799 -0.1384 -0.0820 -0.2042
   46GLOH   H04 8817   3.153   8.340   1.834  0.7595 -2.1775  0.2984
   46GLOH    O2 8818   3.074   8.239   1.667 -0.2252  0.2671 -0.5841
   46GLOH   H05 8819   3.036   8.303   1.605  1.0757 -0.2741 -1.9716
   46GLOH    C3 8820   2.945   8.396   1.807 -0.1416 -0.4518 -0.1413
   46GLOH   H06 8821   2.927   8.427   1.910  1.9060 -2.1219  0.7412
   46GLOH   H07 8822   2.856   8.343   1.772  0.6984 -2.5727  0.8117
   46GLOH    O3 8823   2.972   8.506   1.720  0.7398 -0.5911 -0.1884
   46GLOH   H01 8824   2.904   8.574   1.737  2.2020  0.8530  0.0384
   47GLOH   H03 8825   3.428   0.719   1.831  0.5774  0.3703 -0.3844
   47GLOH    O1 8826   3.491   0.648   1.851  0.0389  0.0091  0.0480
   47GLOH    C1 8827   3.398   0.537   1.856  0.5430  0.0179 -0.3728
   47GLOH   H02 8828   3.443   0.449   1.809  0.5746  0.5817 -1.3953
   47GLOH   H08 8829   3.310   0.565   1.799  0.6456  0.8671 -0.1204
   47GLOH    C2 8830   3.353   0.506   2.002 -0.5084 -0.3389  0.1001
   47GLOH   H04 8831   3.298   0.411   1.995  0.3856 -0.7384 -1.8692
   47GLOH    O2 8832   3.464   0.494   2.093  0.4021 -0.2124  0.1004
   47GLOH   H05 8833   3.486   0.586   2.115  0.3417 -0.5565  1.6209
   47GLOH    C3 8834   3.251   0.611   2.056 -0.2387 -0.0629 -0.2770
   47GLOH   H06 8835   3.282   0.711   2.026  0.8697 -0.6372 -1.1235
   47GLOH   H07 8836   3.236   0.605   2.163  0.8728 -3.1555 -0.2314
   47GLOH    O3 8837   3.118   0.596   2.001 -0.0265  0.6510 -0.4247
   47GLOH   H01 8838   3.112   0.625   1.908 -1.8793 -1.1345 -0.9228
   48GLOH   H03 8839   3.595   8.846   2.228 -2.7079 -0.7447  3.2671
   48GLOH    O1 8840   3.548   8.930   2.212 -0.1432  0.1551 -0.2913
   48GLOH    C1 8841   3.448   8.926   2.110  0.1562  0.2977 -0.6550
   48GLOH   H02 8842   3.364   8.865   2.144  0.2265  0.9558  0.7319
   48GLOH   H08 8843   3.489   8.877   2.022 -0.2842 -0.9737 -0.1722
   48GLOH    C2 8844   3.386   9.055   2.067 -0.1589 -0.4561  1.1053
   48GLOH   H04 8845   3.464   9.124   2.028  0.8361 -0.5952  2.7834
   48GLOH    O2 8846   3.288   9.035   1.958 -0.0450  0.0798 -0.6804
   48GLOH   H05 8847   3.328   9.006   1.874  0.2480 -0.4058 -0.3732
   48GLOH    C3 8848   3.323   9.117   2.196  0.1524 -0.8024  0.3559
   48GLOH   H06 8849   3.239   9.055   2.229  0.6365 -0.9978  1.2118
   48GLOH   H07 8850   3.279   9.215   2.176 -1.9562 -1.5750  1.0387
   48GLOH    O3 8851   3.413   9.128   2.304  0.3142 -0.2789 -0.1693
   48GLOH   H01 8852   3.474   9.054   2.287  0.5559 -0.3873  1.1259
   49GLOH   H03 8853   3.154   9.738   1.897 -2.7920 -2.0548  2.4155
   49GLOH    O1 8854   3.082   9.781   1.847 -0.1611  0.7167  0.8174
   49GLOH    C1 8855   3.078   9.713   1.719 -0.0168 -0.0792  0.3409
   49GLOH   H02 8856   3.030   9.616   1.730 -1.4249  0.9737  4.2862
   49GLOH   H08 8857   3.175   9.686   1.676 -0.5260  0.5177 -1.2301
   49GLOH    C2 8858   3.004   9.797   1.615 -0.0339 -0.4178 -0.1585
   49GLOH   H04 8859   3.042   9.900   1.622  0.1017 -0.4820  0.0567
   49GLOH    O2 8860   3.007   9.753   1.483  0.4439  1.4127 -0.0182
   49GLOH   H05 8861   2.929   9.764   1.425  0.7332 -2.4025 -1.2711
   49GLOH    C3 8862   2.860   9.809   1.666  0.1601  0.1341  0.7861
   49GLOH   H06 8863   2.797   9.865   1.596 -0.9054 -4.2412 -1.9087
   49GLOH   H07 8864   2.857   9.868   1.758  0.2422 -0.2602  1.0442
   49GLOH    O3 8865   2.805   9.681   1.695  0.2891 -0.0383  0.3873
   49GLOH   H01 8866   2.821   9.664   1.789 -3.5340  0.7977  1.2647
   50GLOH   H03 8867   3.908   9.664   1.249  1.0937  2.0751 -1.1370
   50GLOH    O1 8868   3.990   9.614   1.264 -0.3192 -0.1414 -0.3301
   50GLOH    C1 8869   4.121   9.689   1.238  0.3622 -0.3981  0.0681
   50GLOH   H02 8870   4.113   9.790   1.276 -1.6202 -0.5386  0.0649
   50GLOH   H08 8871   4.134   9.696   1.130  0.2928  0.4759  0.1181
   50GLOH    C2 8872   4.240   9.622   1.313  0.5851  0.4515 -0.6011
   50GLOH   H04 8873   4.243   9.514   1.293 -1.1669  0.6808 -2.2267
   50GLOH    O2 8874   4.363   9.690   1.279 -0.0824 -0.0375 -0.4609
   50GLOH   H05 8875   4.379   9.662   1.187  2.0388 -0.3345 -0.0385
   50GLOH    C3 8876   4.215   9.635   1.463  0.3814  0.6594  0.2107
   50GLOH   H06 8877   4.220   9.742   1.481 -2.4765  0.6520  1.3162
   50GLOH   H07 8878   4.300   9.586   1.509  0.3362  0.2477 -0.1359
   50GLOH    O3 8879   4.092   9.571   1.505  0.0640 -0.0902 -0.3693
   50GLOH   H01 8880   4.025   9.582   1.435  1.3374  1.3979 -1.3825
   51GLOH   H03 8881   3.395   8.511   0.879  0.8219  0.5308 -1.2173
   51GLOH    O1 8882   3.412   8.571   0.953 -0.1866 -0.0373 -0.5087
   51GLOH    C1 8883   3.341   8.693   0.914  0.4202 -0.2889 -0.2273
   51GLOH   H02 8884   3.319   8.757   0.999 -1.5978  0.0502 -0.9710
   51GLOH   H08 8885   3.239   8.668   0.884  0.1703 -1.2402  1.3495
   51GLOH    C2 8886   3.412   8.764   0.796  0.5257  0.1839 -0.2404
   51GLOH   H04 8887   3.421   8.697   0.709 -0.3554 -0.5441  0.2153
   51GLOH    O2 8888   3.335   8.886   0.781 -0.4670 -0.1851 -0.0016
   51GLOH   H05 8889   3.362   8.954   0.846  1.0649  1.0344 -1.8488
   51GLOH    C3 8890   3.558   8.797   0.848 -0.1709 -0.4296  0.4340
   51GLOH   H06 8891   3.605   8.702   0.874  1.0940  0.3421  1.0506
   51GLOH   H07 8892   3.550   8.856   0.939  1.0724  0.5893 -0.1080
   51GLOH    O3 8893   3.643   8.865   0.751 -0.1938  0.7098  0.6310
   51GLOH   H01 8894   3.672   8.798   0.686  0.8238  0.8297  0.9525
   52GLOH   H03 8895   2.961   9.355   2.318  2.6919 -0.9430  0.7143
   52GLOH    O1 8896   2.948   9.285   2.252 -0.6485  0.3693 -0.1480
   52GLOH    C1 8897   2.978   9.166   2.321 -0.4400 -0.1895  0.4561
   52GLOH   H02 8898   2.921   9.164   2.414 -2.8546  1.7855 -0.8991
   52GLOH   H08 8899   3.083   9.162   2.347 -0.8157  1.0385  2.2098
   52GLOH    C2 8900   2.934   9.042   2.238 -0.5666  0.5541 -0.0172
   52GLOH   H04 8901   2.943   9.052   2.129  1.6490 -0.3954  0.0340
   52GLOH    O2 8902   3.020   8.932   2.290 -0.0765  0.1091  0.2080
   52GLOH   H05 8903   2.969   8.854   2.263  0.7242  0.7374 -3.4220
   52GLOH    C3 8904   2.787   9.025   2.277 -0.0699 -0.0357  0.1172
   52GLOH   H06 8905   2.731   9.119   2.271 -0.1779 -0.0394  1.0615
   52GLOH   H07 8906   2.783   8.984   2.377  0.6071 -1.9608 -0.6273
   52GLOH    O3 8907   2.721   8.933   2.192  0.0542  0.2450 -0.3075
   52GLOH   H01 8908   2.657   8.886   2.248 -0.3149  0.9402 -0.1403
   53GLOH   H03 8909   3.446   8.602   1.103 -2.4933 -1.0804 -0.3352
   53GLOH    O1 8910   3.448   8.607   1.201 -0.1464  0.1379 -0.4242
   53GLOH    C1 8911   3.491   8.739   1.248  0.4973  0.3661  0.7365
   53GLOH   H02 8912   3.428   8.811   1.196  1.4545  2.2322  2.0840
   53GLOH   H08 8913   3.592   8.764   1.215  1.7678 -1.9770  2.6614
   53GLOH    C2 8914   3.469   8.768   1.396  0.4604 -0.0280  0.1120
   53GLOH   H04 8915   3.537   8.709   1.460 -0.5610  0.3801  1.5934
   53GLOH    O2 8916   3.507   8.912   1.405 -0.2239 -0.2492  0.6456
   53GLOH   H05 8917   3.601   8.915   1.380  0.4419  1.8037  3.1432
   53GLOH    C3 8918   3.312   8.765   1.421  0.4673  0.7752  0.0905
   53GLOH   H06 8919   3.271   8.668   1.393  1.4555  0.7106 -1.1944
   53GLOH   H07 8920   3.254   8.831   1.356  0.3796  0.5208 -0.0886
   53GLOH    O3 8921   3.271   8.794   1.552 -0.0222  0.3517 -0.4019
   53GLOH   H01 8922   3.190   8.848   1.556  0.3302  0.8820 -0.4626
   54GLOH   H03 8923   3.906   8.313   1.077  0.5087  0.0543  0.3954
   54GLOH    O1 8924   3.992   8.358   1.067  0.2237  0.4818 -0.2153
   54GLOH    C1 8925   3.978   8.479   1.150  0.1856  0.3223 -0.0768
   54GLOH   H02 8926   4.027   8.564   1.104  0.5203 -0.0804 -0.4724
   54GLOH   H08 8927   4.026   8.470   1.247 -2.9326 -0.5621  1.4772
   54GLOH    C2 8928   3.836   8.537   1.177  0.1721 -0.4797 -0.5113
   54GLOH   H04 8929   3.773   8.452   1.211 -0.4559 -0.1160 -0.7528
   54GLOH    O2 8930   3.838   8.641   1.278 -0.4247  0.3521  0.3970
   54GLOH   H05 8931   3.856   8.600   1.365  2.5565 -0.9080 -0.7636
   54GLOH    C3 8932   3.765   8.586   1.049 -0.4793  0.0916 -0.4664
   54GLOH   H06 8933   3.664   8.618   1.075  0.7209  3.8223 -0.0506
   54GLOH   H07 8934   3.761   8.497   0.987 -0.8344 -0.1118 -0.1533
   54GLOH    O3 8935   3.822   8.698   0.978 -0.4415  0.7531  0.0019
   54GLOH   H01 8936   3.873   8.754   1.040  3.6157 -3.8033  1.0751
   55GLOH   H03 8937   4.193   0.278   1.757 -0.4831 -0.6156 -0.8390
   55GLOH    O1 8938   4.255   0.234   1.696  0.4283  0.3385 -0.6114
   55GLOH    C1 8939   4.375   0.263   1.765 -0.3244  0.4823  0.0525
   55GLOH   H02 8940   4.461   0.226   1.708  0.1727 -1.0553  1.7173
   55GLOH   H08 8941   4.375   0.219   1.865 -1.3948 -0.2576 -0.2701
   55GLOH    C2 8942   4.403   0.406   1.788  0.6397  0.3055  0.5288
   55GLOH   H04 8943   4.302   0.448   1.797  0.2693  0.2252 -2.6103
   55GLOH    O2 8944   4.468   0.433   1.915 -0.2728 -0.3038 -0.0556
   55GLOH   H05 8945   4.503   0.523   1.910  1.3520 -0.8375  1.1595
   55GLOH    C3 8946   4.466   0.488   1.672 -0.0384  0.1296 -0.0745
   55GLOH   H06 8947   4.469   0.425   1.582 -0.5198 -0.0461  0.0322
   55GLOH   H07 8948   4.570   0.504   1.699 -0.2341  3.3451 -1.0482
   55GLOH    O3 8949   4.405   0.621   1.647 -0.1570 -0.8018  0.1407
   55GLOH   H01 8950   4.363   0.620   1.559 -1.6702  0.9154  0.8111
   56GLOH   H03 8951   2.662   8.048   0.644  1.3735  1.4433  0.1787
   56GLOH    O1 8952   2.600   8.105   0.693 -0.5202 -0.0951 -0.3643
   56GLOH    C1 8953   2.692   8.188   0.763  0.6203  0.0668 -0.9172
   56GLOH   H02 8954   2.774   8.216   0.698  0.3011 -1.0531 -1.8246
   56GLOH   H08 8955   2.743   8.139   0.846  0.1159 -0.3144 -0.8301
   56GLOH    C2 8956   2.626   8.312   0.827  0.1992 -0.3684 -0.0457
   56GLOH   H04 8957   2.525   8.290   0.865  0.6563 -0.6118  1.0506
   56GLOH    O2 8958   2.709   8.369   0.934  0.5940 -0.0710  0.2445
   56GLOH   H05 8959   2.653   8.433   0.981  2.4256  0.3835  1.9001
   56GLOH    C3 8960   2.613   8.419   0.717 -0.1933  0.4339  0.3060
   56GLOH   H06 8961   2.714   8.448   0.687 -0.6591  1.3641 -0.3635
   56GLOH   H07 8962   2.566   8.506   0.762  0.0817 -0.5341  2.5598
   56GLOH    O3 8963   2.537   8.380   0.603 -0.4286  0.3909 -0.0537
   56GLOH   H01 8964   2.475   8.305   0.613 -0.9083  0.6700 -0.9331
   57GLOH   H03 8965   2.469   8.474   1.597  1.9864  1.2021  0.5908
   57GLOH    O1 8966   2.493   8.471   1.503 -0.3541 -0.2698 -0.0025
   57GLOH    C1 8967   2.582   8.364   1.496  0.0552  0.1264  0.0188
   57GLOH   H02 8968   2.533   8.267   1.487  0.7499 -0.2651  0.4175
   57GLOH   H08 8969   2.655   8.367   1.577 -0.2564 -2.0381  0.4218
   57GLOH    C2 8970   2.677   8.373   1.376  0.1809 -0.3578  0.1991
   57GLOH   H04 8971   2.719   8.474   1.362  1.3948 -1.1042 -1.7750
   57GLOH    O2 8972   2.784   8.280   1.395  0.3837  0.0915 -0.0160
   57GLOH   H05 8973   2.860   8.335   1.421 -0.6137  1.8899 -0.7897
   57GLOH    C3 8974   2.595   8.343   1.255 -0.7151  0.6289 -0.1419
   57GLOH   H06 8975   2.562   8.239   1.255  0.6306  0.1875  0.7021
   57GLOH   H07 8976   2.653   8.348   1.163  1.1640 -0.8907  0.9447
   57GLOH    O3 8977   2.483   8.435   1.245  0.9312 -0.2084 -0.3275
   57GLOH   H01 8978   2.458   8.463   1.335 -0.0912 -0.0711 -0.6487
   58GLOH   H03 8979   3.580   9.014   0.714 -1.7233 -0.4225  0.3192
   58GLOH    O1 8980   3.574   9.111   0.707 -0.2853 -0.2719  0.9268
   58GLOH    C1 8981   3.701   9.168   0.654 -0.7701  0.1206 -0.4879
   58GLOH   H02 8982   3.747   9.228   0.733  0.7738  0.0168 -1.2833
   58GLOH   H08 8983   3.680   9.236   0.572  1.1070 -0.1668 -1.2263
   58GLOH    C2 8984   3.811   9.067   0.602  0.2350  0.2102 -0.6203
   58GLOH   H04 8985   3.762   8.972   0.575 -0.8598  0.4252  0.5397
   58GLOH    O2 8986   3.872   9.122   0.480 -0.2366  0.1914  0.4465
   58GLOH   H05 8987   3.893   9.048   0.420 -0.7372  1.4220 -1.2966
   58GLOH    C3 8988   3.918   9.035   0.700 -0.3423  0.1312 -0.0824
   58GLOH   H06 8989   3.965   9.133   0.712 -3.3019  1.6154 -0.1841
   58GLOH   H07 8990   3.991   8.972   0.649 -0.0309  2.2235 -2.2905
   58GLOH    O3 8991   3.869   8.981   0.824 -0.3120  0.0612  0.1508
   58GLOH   H01 8992   3.781   8.943   0.809 -0.3139 -0.6954  1.9826
   59GLOH   H03 8993   3.068   9.512   0.079 -1.3662 -0.0942  0.2890
   59GLOH    O1 8994   3.053   9.570   0.155 -0.0133  0.4095  0.1871
   59GLOH    C1 8995   3.177   9.640   0.186 -1.0424 -0.3611 -0.6134
   59GLOH   H02 8996   3.161   9.748   0.196  0.8398 -0.0785 -0.3901
   59GLOH   H08 8997   3.243   9.653   0.101  0.1857 -0.7400  0.2626
   59GLOH    C2 8998   3.260   9.582   0.303 -0.2184 -0.3506 -0.2989
   59GLOH   H04 8999   3.338   9.657   0.323  0.5478 -1.4347  0.8396
   59GLOH    O2 9000   3.175   9.573   0.417 -0.2175 -0.2197 -0.0670
   59GLOH   H05 9001   3.187   9.488   0.462 -1.5003 -1.4139 -1.8999
   59GLOH    C3 9002   3.337   9.453   0.279 -0.3722  0.6506 -0.7361
   59GLOH   H06 9003   3.266   9.372   0.263  1.3302 -0.8790 -0.7702
   59GLOH   H07 9004   3.402   9.429   0.364  0.4131  2.1233 -0.9126
   59GLOH    O3 9005   3.415   9.469   0.160  0.0300 -0.3822  0.2470
   59GLOH   H01 9006   3.439   9.378   0.134 -0.4959 -0.2554 -0.7210
   60GLOH   H03 9007   3.473   0.648   0.616 -0.3857 -1.9614 -0.0865
   60GLOH    O1 9008   3.473   0.651   0.518  1.1540 -0.3861 -0.0747
   60GLOH    C1 9009   3.379   0.552   0.471 -0.3102  0.4081 -1.0935
   60GLOH   H02 9010   3.360   0.561   0.364  0.8864  0.7009 -1.2894
   60GLOH   H08 9011   3.285   0.578   0.521 -0.0968  1.1534 -1.0645
   60GLOH    C2 9012   3.421   0.419   0.524  0.4015 -0.2633  0.3765
   60GLOH   H04 9013   3.438   0.428   0.632  0.4710 -1.0504  0.4334
   60GLOH    O2 9014   3.326   0.324   0.489  0.6437  0.5574 -0.0860
   60GLOH   H05 9015   3.282   0.344   0.405  2.2110 -0.8353 -1.2863
   60GLOH    C3 9016   3.558   0.373   0.477  0.4083  0.2175  0.2477
   60GLOH   H06 9017   3.577   0.280   0.531 -0.5716  0.1721  0.5242
   60GLOH   H07 9018   3.637   0.443   0.504  0.7978 -0.5548  1.1354
   60GLOH    O3 9019   3.573   0.362   0.335 -0.1912 -0.2125  0.3066
   60GLOH   H01 9020   3.509   0.297   0.302 -0.1326  0.0161 -0.2704
   61GLOH   H03 9021   2.903   9.021   1.337 -0.4994  0.7554 -0.1435
   61GLOH    O1 9022   2.908   8.949   1.272 -0.0947  0.4302  0.2467
   61GLOH    C1 9023   2.963   9.003   1.151 -0.4176 -0.4406 -0.5634
   61GLOH   H02 9024   2.880   9.045   1.094 -1.1416 -1.0599  0.0205
   61GLOH   H08 9025   3.005   8.920   1.093 -1.6320  0.3128 -2.5820
   61GLOH    C2 9026   3.067   9.116   1.164 -0.0751  0.0898 -0.0553
   61GLOH   H04 9027   3.142   9.075   1.233  0.2076 -1.5870 -1.3350
   61GLOH    O2 9028   3.126   9.156   1.035  0.2847 -0.3380  0.1606
   61GLOH   H05 9029   3.058   9.205   0.985  1.8454  3.3984  1.4816
   61GLOH    C3 9030   2.996   9.235   1.233  0.0067 -0.2079 -0.1875
   61GLOH   H06 9031   2.914   9.269   1.170 -0.2772  2.5394  1.5690
   61GLOH   H07 9032   3.062   9.322   1.245 -0.5613  0.0633  1.1098
   61GLOH    O3 9033   2.937   9.182   1.358 -0.0844  0.3456  0.5404
   61GLOH   H01 9034   2.928   9.268   1.404  0.1333  0.6366  0.0485
   62GLOH   H03 9035   2.921   9.301   2.099 -2.0678 -0.5262  0.9726
   62GLOH    O1 9036   2.883   9.331   2.014  1.1551 -0.7682 -0.6466
   62GLOH    C1 9037   2.763   9.263   1.980  0.0891  0.4949 -0.2013
   62GLOH   H02 9038   2.682   9.331   2.003  0.9907  0.8320  2.1153
   62GLOH   H08 9039   2.746   9.172   2.037 -0.4552  0.2595 -0.7352
   62GLOH    C2 9040   2.743   9.230   1.830  0.4800  0.2108  0.3608
   62GLOH   H04 9041   2.841   9.194   1.795  1.1239  2.2656 -0.0666
   62GLOH    O2 9042   2.638   9.131   1.812 -0.1510  0.1030  0.2239
   62GLOH   H05 9043   2.609   9.127   1.719  1.3549  3.0074 -0.4437
   62GLOH    C3 9044   2.724   9.355   1.743 -0.3382  0.2030 -0.2246
   62GLOH   H06 9045   2.820   9.404   1.759  0.2737 -1.5830  1.6877
   62GLOH   H07 9046   2.652   9.427   1.782  0.4892  0.6013  0.5769
   62GLOH    O3 9047   2.705   9.334   1.599 -0.1221  0.1127  0.0257
   62GLOH   H01 9048   2.675   9.243   1.583  1.1036 -0.6265  1.6717
   63GLOH   H03 9049   5.092   0.352   1.121  1.4815  1.6207  1.7726
   63GLOH    O1 9050   5.171   0.321   1.073 -0.2348 -0.3718  0.1822
   63GLOH    C1 9051   5.124   0.208   1.001  0.1058 -0.5820  0.1903
   63GLOH   H02 9052   5.136   0.116   1.058  0.7468 -1.3719 -1.1703
   63GLOH   H08 9053   5.174   0.196   0.904  1.7630  0.2558  0.9081
   63GLOH    C2 9054   4.978   0.213   0.966  0.1877  0.2884 -0.2782
   63GLOH   H04 9055   4.979   0.290   0.888  2.3056 -0.7823 -1.3581
   63GLOH    O2 9056   4.932   0.096   0.894 -0.3324 -0.2734 -0.4803
   63GLOH   H05 9057   4.862   0.053   0.946 -0.6887 -0.8337 -1.4166
   63GLOH    C3 9058   4.885   0.259   1.083 -0.0010  0.5672  0.1705
   63GLOH   H06 9059   4.887   0.189   1.166 -3.0546  0.4028  0.1392
   63GLOH   H07 9060   4.780   0.267   1.055  0.1661  1.1732 -0.3029
   63GLOH    O3 9061   4.919   0.391   1.127  0.0318 -0.3450  0.0074
   63GLOH   H01 9062   4.856   0.453   1.086 -1.2323  0.0070  2.3446
   64GLOH   H03 9063   4.273   0.167  -0.053 -2.6960  3.6884 -3.0540
   64GLOH    O1 9064   4.361   0.208  -0.063 -0.3542 -0.1339  0.4474
   64GLOH    C1 9065   4.374   0.296   0.050 -0.1098  0.1635  0.4816
   64GLOH   H02 9066   4.460   0.360   0.033 -0.9675  1.0456 -0.6239
   64GLOH   H08 9067   4.397   0.237   0.139 -2.4264  1.4869  2.0339
   64GLOH    C2 9068   4.259   0.392   0.062  0.5138 -0.4144  0.0348
   64GLOH   H04 9069   4.169   0.334   0.038  0.2083 -0.9295  2.3244
   64GLOH    O2 9070   4.245   0.421   0.207  0.5440  0.4778 -0.2976
   64GLOH   H05 9071   4.151   0.410   0.230  0.0841  0.3011 -2.1185
   64GLOH    C3 9072   4.275   0.519  -0.024 -0.9179 -0.4373  0.2440
   64GLOH   H06 9073   4.284   0.485  -0.127  0.9193  0.6163  0.0205
   64GLOH   H07 9074   4.370   0.567   0.000 -1.5321  0.3977  1.0304
   64GLOH    O3 9075   4.167   0.615  -0.002  0.1598 -0.6152  0.4686
   64GLOH   H01 9076   4.087   0.571  -0.036 -1.8921  2.2420  1.4070
   65GLOH   H03 9077   4.002   8.242   0.803  1.1167 -0.1030 -2.4450
   65GLOH    O1 9078   3.915   8.282   0.786  0.7236 -0.0355 -0.3468
   65GLOH    C1 9079   3.933   8.382   0.684  0.3516  0.0638  0.7599
   65GLOH   H02 9080   3.839   8.393   0.630  0.2394 -2.0693  0.4691
   65GLOH   H08 9081   4.000   8.338   0.610  1.6338 -0.6508  2.3014
   65GLOH    C2 9082   3.992   8.521   0.726 -0.2536  0.0570  1.3738
   65GLOH   H04 9083   3.913   8.576   0.779  0.3423  0.0562  2.2811
   65GLOH    O2 9084   4.095   8.505   0.828 -0.6724  0.5758  0.0378
   65GLOH   H05 9085   4.052   8.494   0.914  1.8754 -2.8886  0.9677
   65GLOH    C3 9086   4.046   8.605   0.609  0.3498 -0.1904  0.1472
   65GLOH   H06 9087   4.111   8.548   0.543 -0.7002  0.1920 -1.2584
   65GLOH   H07 9088   4.103   8.689   0.648  0.9470 -0.1913 -0.7193
   65GLOH    O3 9089   3.940   8.655   0.530 -0.2312  0.0233 -0.2059
   65GLOH   H01 9090   3.963   8.644   0.436 -0.9139 -0.8165 -0.2820
   66GLOH   H03 9091   3.853   8.818   0.072 -0.4801  0.2409 -1.8222
   66GLOH    O1 9092   3.946   8.815   0.044  0.3146 -0.4209  0.7419
   66GLOH    C1 9093   4.024   8.916   0.122  0.1822  0.4917 -0.2483
   66GLOH   H02 9094   3.978   9.013   0.100  2.1091  1.1848 -1.4193
   66GLOH   H08 9095   4.126   8.922   0.085 -0.4023  1.4234 -1.7840
   66GLOH    C2 9096   4.027   8.895   0.278 -0.8174 -0.4014 -0.2101
   66GLOH   H04 9097   4.095   8.972   0.320  0.0862 -0.2550 -1.8949
   66GLOH    O2 9098   3.899   8.915   0.339 -0.0438  0.5457  0.0550
   66GLOH   H05 9099   3.838   8.851   0.299 -2.1341  1.0736  2.2909
   66GLOH    C3 9100   4.079   8.750   0.301 -0.8120 -0.2016 -0.7985
   66GLOH   H06 9101   4.130   8.746   0.397 -1.3527 -0.3493 -0.5106
   66GLOH   H07 9102   4.163   8.717   0.239 -1.3554 -0.6874 -1.2913
   66GLOH    O3 9103   3.985   8.645   0.289 -0.1711 -0.2044  0.3034
   66GLOH   H01 9104   3.982   8.608   0.199 -0.0636  1.5282 -0.4342
   67GLOH   H03 9105   4.019   9.606   1.831 -1.0116 -1.6213 -2.1767
   67GLOH    O1 9106   3.931   9.600   1.872 -0.0723 -0.6521  0.0841
   67GLOH    C1 9107   3.835   9.589   1.773  0.5424  0.0983  0.2949
   67GLOH   H02 9108   3.872   9.542   1.682 -0.8262 -1.9641  0.7553
   67GLOH   H08 9109   3.804   9.692   1.758 -1.9268 -0.5366  0.7536
   67GLOH    C2 9110   3.709   9.523   1.829  0.2288 -0.5182 -0.1288
   67GLOH   H04 9111   3.654   9.586   1.899 -0.8812 -1.2357 -0.3491
   67GLOH    O2 9112   3.624   9.491   1.719  0.2733 -0.8240 -0.0233
   67GLOH   H05 9113   3.539   9.455   1.750  0.4593 -2.7618 -1.6314
   67GLOH    C3 9114   3.759   9.403   1.904 -0.5162 -0.1715  0.3978
   67GLOH   H06 9115   3.813   9.429   1.994 -1.6112 -0.6376  1.1989
   67GLOH   H07 9116   3.837   9.364   1.838 -1.6346 -0.7146 -0.6477
   67GLOH    O3 9117   3.653   9.309   1.939 -0.7432  0.2903 -0.6941
   67GLOH   H01 9118   3.585   9.372   1.969 -0.3532  0.8389 -0.9643
   68GLOH   H03 9119   3.575  10.054   1.428  0.5589 -3.1853  2.7317
   68GLOH    O1 9120   3.534  10.002   1.357 -0.0523  0.2832  0.3810
   68GLOH    C1 9121   3.600   9.874   1.354  0.2883  0.4366  1.0458
   68GLOH   H02 9122   3.522   9.798   1.347  2.4715 -1.8407  0.6965
   68GLOH   H08 9123   3.650   9.853   1.449  0.7942 -1.1700  0.4390
   68GLOH    C2 9124   3.697   9.851   1.238  0.0218 -0.5577  0.5522
   68GLOH   H04 9125   3.781   9.917   1.262 -0.2820  0.5455 -1.3687
   68GLOH    O2 9126   3.753   9.720   1.233 -0.2607  0.0027  0.2202
   68GLOH   H05 9127   3.723   9.663   1.306  0.1699 -0.7103 -0.1624
   68GLOH    C3 9128   3.641   9.901   1.106  0.4472 -0.3226 -0.3154
   68GLOH   H06 9129   3.549   9.849   1.079  0.1695  0.1139 -0.2165
   68GLOH   H07 9130   3.716   9.870   1.034  1.1073 -1.8239  0.9716
   68GLOH    O3 9131   3.618  10.047   1.098 -0.0408  0.2790  0.3657
   68GLOH   H01 9132   3.588  10.082   1.184 -0.6834  0.4055  0.0972
   69GLOH   H03 9133   4.408   1.083   1.999 -1.2084  2.1154 -0.0515
   69GLOH    O1 9134   4.386   1.063   1.907  0.6509  0.1882 -0.1317
   69GLOH    C1 9135   4.466   0.954   1.868  0.5338 -0.8663  0.0996
   69GLOH   H02 9136   4.569   0.972   1.899 -0.7739  0.5841  3.8847
   69GLOH   H08 9137   4.465   0.934   1.761 -3.2391  1.2060 -0.3496
   69GLOH    C2 9138   4.417   0.822   1.933  0.3936  0.4295  0.4448
   69GLOH   H04 9139   4.309   0.825   1.911  0.6278  0.9006 -0.6810
   69GLOH    O2 9140   4.484   0.710   1.875  0.3084 -0.4881  0.0526
   69GLOH   H05 9141   4.446   0.693   1.787 -0.1605  1.5666 -0.1841
   69GLOH    C3 9142   4.436   0.824   2.087 -0.7843  0.3213 -0.2229
   69GLOH   H06 9143   4.544   0.837   2.101 -0.1205 -1.8314 -2.8507
   69GLOH   H07 9144   4.417   0.725   2.129 -4.8464  1.4126  0.6800
   69GLOH    O3 9145   4.364   0.924   2.163  0.0372  0.3468 -0.5266
   69GLOH   H01 9146   4.332   0.893   2.250  1.7240  3.3514  1.2617
   70GLOH   H03 9147   2.807   8.689   2.198  1.0905  0.5246 -3.4706
   70GLOH    O1 9148   2.894   8.712   2.235 -0.0624 -0.8517  0.3165
   70GLOH    C1 9149   2.983   8.604   2.283 -0.2668 -0.7934  0.9585
   70GLOH   H02 9150   2.945   8.506   2.255 -0.9134 -0.7419  1.6388
   70GLOH   H08 9151   2.978   8.604   2.392 -0.3638 -2.1334  0.9637
   70GLOH    C2 9152   3.125   8.615   2.234  0.6277  0.3741  0.4287
   70GLOH   H04 9153   3.173   8.711   2.261  0.5222  0.9297 -1.2801
   70GLOH    O2 9154   3.198   8.507   2.293  0.1257  0.2136 -0.0750
   70GLOH   H05 9155   3.218   8.529   2.385 -2.6691 -0.8230  0.8260
   70GLOH    C3 9156   3.118   8.612   2.082  0.6166 -0.4225  0.2067
   70GLOH   H06 9157   3.061   8.697   2.046  1.3243  0.3696  0.9516
   70GLOH   H07 9158   3.074   8.518   2.047  0.8916 -1.6312  2.9632
   70GLOH    O3 9159   3.251   8.611   2.027 -0.7634 -0.0143 -0.4952
   70GLOH   H01 9160   3.254   8.629   1.931 -0.2839 -1.6514 -0.8078
   71GLOH   H03 9161   3.972   9.219   1.332 -3.0678 -1.4657 -1.5807
   71GLOH    O1 9162   3.999   9.131   1.362 -0.8691 -0.3120 -0.0519
   71GLOH    C1 9163   4.023   9.032   1.262 -0.1632 -0.1267  0.1337
   71GLOH   H02 9164   4.020   8.938   1.317  0.0095 -0.0691  0.2437
   71GLOH   H08 9165   4.119   9.045   1.212 -0.6074 -0.9518 -0.9491
   71GLOH    C2 9166   3.910   9.014   1.165 -0.3817  0.2820 -0.1155
   71GLOH   H04 9167   3.909   9.106   1.106 -0.2142  1.1135  1.1647
   71GLOH    O2 9168   3.936   8.899   1.079 -0.0274  0.2957  0.0865
   71GLOH   H05 9169   3.929   8.935   0.989 -2.5308  1.4857  0.7172
   71GLOH    C3 9170   3.780   9.003   1.241 -0.0338 -0.4143  0.0611
   71GLOH   H06 9171   3.706   8.991   1.163 -1.1104 -1.0453  1.1551
   71GLOH   H07 9172   3.758   9.097   1.293  0.0968 -0.7867  0.8048
   71GLOH    O3 9173   3.777   8.890   1.338  0.5305  0.0146 -0.2879
   71GLOH   H01 9174   3.794   8.805   1.294  4.1405 -0.2644  1.4726
   72GLOH   H03 9175   3.182   8.144   1.603  1.7711  0.2293  2.1381
   72GLOH    O1 9176   3.246   8.101   1.544 -0.3801 -0.4230  0.2310
   72GLOH    C1 9177   3.363   8.178   1.524  0.1768  0.6012 -0.5725
   72GLOH   H02 9178   3.449   8.113   1.512  0.1746  0.6973 -1.1278
   72GLOH   H08 9179   3.383   8.224   1.620  0.2773 -0.0836 -0.2636
   72GLOH    C2 9180   3.339   8.274   1.407 -0.2186  0.5148 -0.1894
   72GLOH   H04 9181   3.258   8.344   1.430 -0.9666  0.1662 -1.6996
   72GLOH    O2 9182   3.466   8.348   1.393  0.0514  0.4930 -0.2892
   72GLOH   H05 9183   3.459   8.428   1.338 -1.1388  1.2022  0.8512
   72GLOH    C3 9184   3.304   8.200   1.281 -0.3877  0.1214  0.7299
   72GLOH   H06 9185   3.377   8.123   1.255  0.4326  0.8963  0.7168
   72GLOH   H07 9186   3.301   8.271   1.198  0.6416 -0.6498  0.0191
   72GLOH    O3 9187   3.179   8.135   1.309  0.4083  0.5358  0.6775
   72GLOH   H01 9188   3.190   8.104   1.401  1.1087  2.3055  1.2182
   73GLOH   H03 9189   3.606   1.327   2.001  1.0155 -1.7175 -2.0212
   73GLOH    O1 9190   3.558   1.254   2.045 -0.2272  0.4387  0.2664
   73GLOH    C1 9191   3.636   1.232   2.168  0.4602  0.4967  0.4534
   73GLOH   H02 9192   3.698   1.143   2.157  2.9550  2.6681 -4.4802
   73GLOH   H08 9193   3.571   1.207   2.252  1.0141 -1.6471  0.2890
   73GLOH    C2 9194   3.726   1.352   2.220  0.0248  0.1149 -0.1662
   73GLOH   H04 9195   3.652   1.429   2.245  0.7622  1.6762 -2.6741
   73GLOH    O2 9196   3.794   1.299   2.342  0.2643 -0.0350 -0.1482
   73GLOH   H05 9197   3.732   1.258   2.405 -0.2042  0.0374 -0.5586
   73GLOH    C3 9198   3.810   1.409   2.104 -0.5347 -0.2447  0.0332
   73GLOH   H06 9199   3.895   1.344   2.081 -2.4822 -2.8980  0.1983
   73GLOH   H07 9200   3.854   1.505   2.132  1.4160 -0.8929 -0.6773
   73GLOH    O3 9201   3.738   1.433   1.986 -0.1152  0.0754 -0.3270
   73GLOH   H01 9202   3.793   1.412   1.908  0.1982  0.9363 -0.3403
   74GLOH   H03 9203   3.047   8.249   0.575 -0.5421 -1.4953  0.2940
   74GLOH    O1 9204   3.054   8.226   0.480  0.4250  0.6790 -0.2067
   74GLOH    C1 9205   2.942   8.147   0.457  0.8878 -0.0549  0.1799
   74GLOH   H02 9206   2.926   8.142   0.349  1.5690  0.6182  0.0403
   74GLOH   H08 9207   2.853   8.198   0.493  0.2541 -0.3316 -0.9570
   74GLOH    C2 9208   2.947   8.007   0.521 -0.0001  0.4250  0.0886
   74GLOH   H04 9209   2.986   8.019   0.623 -2.3753  1.5481  0.9005
   74GLOH    O2 9210   2.805   7.971   0.528  0.0876  0.5244 -0.1696
   74GLOH   H05 9211   2.755   7.985   0.446 -1.1704 -0.9562  0.3211
   74GLOH    C3 9212   3.032   7.918   0.432 -0.6433  0.0063 -0.3711
   74GLOH   H06 9213   2.981   7.909   0.337  0.9071 -2.1262 -1.0388
   74GLOH   H07 9214   3.031   7.819   0.477  0.9400  1.3309  2.7728
   74GLOH    O3 9215   3.162   7.960   0.413  0.6772  0.1553  0.8441
   74GLOH   H01 9216   3.221   7.888   0.385 -0.8315 -0.7298 -0.0636
   75GLOH   H03 9217   3.892   0.391   1.488  1.2461  0.6973  0.6032
   75GLOH    O1 9218   3.853   0.469   1.532 -0.1185  0.1457  0.4070
   75GLOH    C1 9219   3.767   0.536   1.434 -0.1735  0.0182  0.1744
   75GLOH   H02 9220   3.728   0.469   1.357 -3.7829  0.9118  1.1069
   75GLOH   H08 9221   3.826   0.611   1.383  1.1901 -2.7906 -2.5199
   75GLOH    C2 9222   3.648   0.601   1.514 -0.2794 -0.1475 -0.4876
   75GLOH   H04 9223   3.685   0.641   1.610 -0.5607 -0.2858 -0.3210
   75GLOH    O2 9224   3.584   0.712   1.439 -0.2618  0.5641  0.2847
   75GLOH   H05 9225   3.530   0.756   1.507 -0.2923 -2.6343  2.4555
   75GLOH    C3 9226   3.541   0.494   1.553 -0.6901 -0.4790 -0.0081
   75GLOH   H06 9227   3.473   0.537   1.627 -0.1133 -0.5879  0.5899
   75GLOH   H07 9228   3.602   0.423   1.609  2.9416  0.7816 -2.1754
   75GLOH    O3 9229   3.480   0.444   1.432 -1.0060 -0.0500  0.3978
   75GLOH   H01 9230   3.428   0.518   1.397  1.6457  1.9003  0.4497
   76GLOH   H03 9231   3.970   1.072   2.108 -1.1102  0.4585  1.1351
   76GLOH    O1 9232   3.957   1.072   2.011  0.1830  0.4532  0.9607
   76GLOH    C1 9233   4.077   1.059   1.936  0.2326 -0.0836 -0.4687
   76GLOH   H02 9234   4.083   0.964   1.883 -1.3884 -0.0497 -0.7597
   76GLOH   H08 9235   4.159   1.061   2.007 -1.7732 -0.4088  1.9464
   76GLOH    C2 9236   4.113   1.166   1.827 -0.1755 -0.4066  0.0163
   76GLOH   H04 9237   4.160   1.250   1.880  0.2531  0.6825 -2.0176
   76GLOH    O2 9238   4.215   1.108   1.740 -0.3602  0.3110 -0.0113
   76GLOH   H05 9239   4.289   1.082   1.797 -1.6783 -0.9751  1.1482
   76GLOH    C3 9240   3.999   1.217   1.733  0.6855 -0.2352 -0.1539
   76GLOH   H06 9241   3.967   1.141   1.662  1.4991  1.3130 -2.2343
   76GLOH   H07 9242   4.038   1.301   1.675  0.6548  0.6730  1.1140
   76GLOH    O3 9243   3.896   1.265   1.816 -0.4398  0.1931  0.2647
   76GLOH   H01 9244   3.888   1.189   1.877 -0.3255 -0.5561 -0.6404
   77GLOH   H03 9245   4.125   0.234   2.220  0.1276 -0.7667 -1.4503
   77GLOH    O1 9246   4.216   0.232   2.255 -0.3676  0.0932 -0.0483
   77GLOH    C1 9247   4.301   0.226   2.139  0.0285  0.0390 -0.2118
   77GLOH   H02 9248   4.293   0.313   2.075 -1.2540 -0.0252 -0.1583
   77GLOH   H08 9249   4.282   0.135   2.082 -1.0485  0.9670 -1.3601
   77GLOH    C2 9250   4.447   0.227   2.181 -0.1357  0.3638 -0.1054
   77GLOH   H04 9251   4.470   0.133   2.232 -2.2472 -1.4085 -2.3020
   77GLOH    O2 9252   4.526   0.221   2.058  0.6144 -0.7697  0.3762
   77GLOH   H05 9253   4.525   0.304   2.009 -1.5626 -1.4725 -0.8375
   77GLOH    C3 9254   4.472   0.357   2.259 -0.2165 -0.4193 -0.6619
   77GLOH   H06 9255   4.456   0.445   2.198 -0.2153 -0.4010 -0.6360
   77GLOH   H07 9256   4.576   0.360   2.292 -1.0031  1.4683  1.7798
   77GLOH    O3 9257   4.399   0.388   2.374 -0.0168 -0.4206 -0.1946
   77GLOH   H01 9258   4.373   0.301   2.409  1.3773 -0.8596 -0.1871
   78GLOH   H03 9259   2.486   9.220   1.229  0.4888 -1.9923 -2.3242
   78GLOH    O1 9260   2.495   9.308   1.190 -0.4951 -1.0762 -0.5556
   78GLOH    C1 9261   2.626   9.355   1.225 -0.5506  0.2549  0.5447
   78GLOH   H02 9262   2.691   9.301   1.157  0.5487 -0.1018  1.8636
   78GLOH   H08 9263   2.667   9.338   1.324 -1.1497  0.9657  0.9212
   78GLOH    C2 9264   2.648   9.500   1.189 -0.4217  0.3762  0.9950
   78GLOH   H04 9265   2.592   9.561   1.262  0.8884 -0.1035  2.4452
   78GLOH    O2 9266   2.790   9.528   1.210 -0.3073  0.3092 -0.5438
   78GLOH   H05 9267   2.805   9.497   1.300  0.7382 -2.0425 -1.4775
   78GLOH    C3 9268   2.602   9.540   1.044 -0.0025 -0.2839 -0.0929
   78GLOH   H06 9269   2.652   9.472   0.974  0.1461  1.0555 -1.3269
   78GLOH   H07 9270   2.642   9.637   1.014 -1.3812  0.3283  0.0428
   78GLOH    O3 9271   2.462   9.517   1.029  0.1696 -0.4250  0.2462
   78GLOH   H01 9272   2.445   9.438   1.084  3.4646 -0.9790  0.5253
   79GLOH   H03 9273   4.085   9.060   1.516  0.1606 -1.0367 -0.5680
   79GLOH    O1 9274   4.110   9.050   1.610  0.6997  0.4747 -0.5404
   79GLOH    C1 9275   4.046   9.158   1.685  0.0020 -0.9758  0.3750
   79GLOH   H02 9276   3.995   9.118   1.772 -0.4245 -2.5750 -0.5968
   79GLOH   H08 9277   3.973   9.203   1.616  0.5911  1.3098  1.2057
   79GLOH    C2 9278   4.148   9.256   1.747  0.1027 -0.3853 -0.1221
   79GLOH   H04 9279   4.206   9.312   1.672 -1.7947  1.1369 -0.4805
   79GLOH    O2 9280   4.082   9.356   1.826  0.0482 -0.2101  0.1231
   79GLOH   H05 9281   4.114   9.443   1.798  0.8901  0.0773  1.8637
   79GLOH    C3 9282   4.259   9.195   1.835  0.2178 -0.0143  0.6457
   79GLOH   H06 9283   4.211   9.150   1.922 -1.0088 -2.9358 -1.4783
   79GLOH   H07 9284   4.330   9.271   1.867 -1.0482  2.1325 -1.4661
   79GLOH    O3 9285   4.329   9.092   1.763  0.0651 -0.5100 -0.1029
   79GLOH   H01 9286   4.283   9.086   1.677  2.5448 -3.0093 -1.3243
   80GLOH   H03 9287   3.144   8.292   0.368 -1.4095  1.5442 -0.7184
   80GLOH    O1 9288   3.196   8.316   0.289 -0.5186 -0.0110 -0.6350
   80GLOH    C1 9289   3.311   8.231   0.274  0.5127 -0.5394  0.4915
   80GLOH   H02 9290   3.287   8.126   0.255  1.5283 -0.2910 -2.3578
   80GLOH   H08 9291   3.360   8.228   0.371 -1.7262 -1.1448  1.6561
   80GLOH    C2 9292   3.403   8.277   0.158 -0.6404 -0.3486  1.0455
   80GLOH   H04 9293   3.444   8.374   0.188 -1.6377  0.2218  0.5833
   80GLOH    O2 9294   3.521   8.189   0.134 -0.8451  0.2945 -0.7965
   80GLOH   H05 9295   3.545   8.203   0.041 -0.3160 -2.1839 -1.0676
   80GLOH    C3 9296   3.319   8.306   0.035 -0.0121  0.6655  0.0509
   80GLOH   H06 9297   3.251   8.381   0.075 -0.5544 -0.0255  0.4285
   80GLOH   H07 9298   3.257   8.219   0.011  0.1755 -0.0129  1.9528
   80GLOH    O3 9299   3.391   8.354  -0.083 -0.2436 -0.6595  0.4516
   80GLOH   H01 9300   3.468   8.297  -0.100 -0.7832 -1.6960  1.4730
   81GLOH   H03 9301   2.597   9.554   2.602  1.5196 -0.2786 -0.4986
   81GLOH    O1 9302   2.577   9.475   2.548  0.4046 -0.2757 -0.1118
   81GLOH    C1 9303   2.696   9.434   2.483 -0.5375  0.4828  0.0500
   81GLOH   H02 9304   2.693   9.471   2.381  0.2782 -2.8117 -1.2140
   81GLOH   H08 9305   2.700   9.327   2.465  0.6765  0.3259  1.1597
   81GLOH    C2 9306   2.829   9.477   2.547  0.1739 -0.4754  0.1710
   81GLOH   H04 9307   2.854   9.404   2.626  0.9118 -1.6875 -1.1711
   81GLOH    O2 9308   2.938   9.466   2.452  0.2548 -0.1101  0.0173
   81GLOH   H05 9309   3.022   9.496   2.490  0.9406 -3.5899  1.4392
   81GLOH    C3 9310   2.812   9.621   2.600 -0.7803 -0.4268 -0.0521
   81GLOH   H06 9311   2.795   9.684   2.513  1.2660  1.3833  0.8193
   81GLOH   H07 9312   2.912   9.646   2.636  0.0827 -0.7974 -2.1107
   81GLOH    O3 9313   2.701   9.636   2.692 -0.0531  0.6842 -0.0334
   81GLOH   H01 9314   2.710   9.701   2.764 -0.8012  0.0383  0.6531
   82GLOH   H03 9315   3.085   8.143   0.833 -0.7845  1.5104  2.2440
   82GLOH    O1 9316   3.087   8.218   0.771 -0.3637  0.0295  0.4050
   82GLOH    C1 9317   3.223   8.253   0.748  0.1538  0.3971  0.4246
   82GLOH   H02 9318   3.237   8.222   0.644 -1.4629 -0.7307  0.5175
   82GLOH   H08 9319   3.301   8.206   0.807 -1.2208 -0.6478  1.4650
   82GLOH    C2 9320   3.247   8.406   0.758 -0.3257 -0.3072  0.1974
   82GLOH   H04 9321   3.222   8.442   0.859 -1.7659 -1.5727  0.3012
   82GLOH    O2 9322   3.385   8.445   0.743 -0.2472  0.4564  0.2448
   82GLOH   H05 9323   3.419   8.434   0.652  0.5862  0.1820  0.5806
   82GLOH    C3 9324   3.165   8.478   0.649  0.2336 -0.6254 -0.6220
   82GLOH   H06 9325   3.185   8.444   0.548 -1.5606 -2.2361 -0.4552
   82GLOH   H07 9326   3.199   8.582   0.651 -3.2945  0.5631  1.2282
   82GLOH    O3 9327   3.024   8.467   0.671 -0.3488  0.4011 -0.6222
   82GLOH   H01 9328   3.010   8.405   0.745  0.8186  0.9455  0.0658
   83GLOH   H03 9329   3.995   0.205   1.378 -0.6784  0.2888 -1.3701
   83GLOH    O1 9330   3.924   0.229   1.441  0.4423  0.0878 -0.0080
   83GLOH    C1 9331   3.924   0.127   1.537  0.0175  0.6561 -0.4175
   83GLOH   H02 9332   3.994   0.159   1.614  0.3996  1.7623 -1.2189
   83GLOH   H08 9333   3.949   0.029   1.495 -0.5359  0.7445 -0.9595
   83GLOH    C2 9334   3.791   0.108   1.604  0.5619  0.0135  0.8235
   83GLOH   H04 9335   3.786   0.185   1.682 -0.0124 -0.1784  0.9768
   83GLOH    O2 9336   3.671   0.123   1.528 -0.9387 -0.2530  0.2383
   83GLOH   H05 9337   3.694   0.196   1.469  0.0455  0.4660  1.4823
   83GLOH    C3 9338   3.793  -0.034   1.658 -0.1613  0.2624  0.4428
   83GLOH   H06 9339   3.828  -0.104   1.582  1.1064  1.7387 -0.3694
   83GLOH   H07 9340   3.692  -0.066   1.684  0.8580 -2.5423  1.2007
   83GLOH    O3 9341   3.882  -0.043   1.764 -0.1569 -0.0953  0.2833
   83GLOH   H01 9342   3.975  -0.040   1.736 -0.4962  0.1587 -0.8081
   84GLOH   H03 9343   3.999   0.230   0.230  0.6820 -0.3210 -2.5019
   84GLOH    O1 9344   4.016   0.326   0.238  0.0571 -0.3908  0.0745
   84GLOH    C1 9345   3.961   0.364   0.364  0.5748  0.4379  0.1004
   84GLOH   H02 9346   3.859   0.326   0.369 -0.3444  2.5565 -1.4328
   84GLOH   H08 9347   3.950   0.472   0.377 -1.1172  0.1355  1.3905
   84GLOH    C2 9348   4.032   0.316   0.492  0.4361  0.6454  0.1804
   84GLOH   H04 9349   4.033   0.206   0.489 -0.5479  0.6441 -0.3774
   84GLOH    O2 9350   4.159   0.367   0.489 -0.2511 -0.0426  0.3412
   84GLOH   H05 9351   4.218   0.291   0.474  0.6625  0.2506  2.3515
   84GLOH    C3 9352   3.954   0.346   0.616  0.0264  0.8000 -0.3440
   84GLOH   H06 9353   3.938   0.454   0.619 -2.5361  0.4035  1.3276
   84GLOH   H07 9354   4.008   0.328   0.709 -0.5946 -2.1966 -0.5386
   84GLOH    O3 9355   3.828   0.279   0.618  0.0791 -0.6304 -0.5346
   84GLOH   H01 9356   3.764   0.333   0.668  1.9864  0.0575  1.1677
   85GLOH   H03 9357   4.306   9.725   0.489 -0.1235  0.5816  1.7367
   85GLOH    O1 9358   4.347   9.662   0.550 -0.0791 -0.8959  0.2230
   85GLOH    C1 9359   4.242   9.634   0.644  0.2479 -0.2027 -0.3661
   85GLOH   H02 9360   4.266   9.547   0.705 -0.3323 -0.2456 -0.1907
   85GLOH   H08 9361   4.151   9.613   0.587 -0.0459  1.6366 -0.6062
   85GLOH    C2 9362   4.216   9.743   0.739 -0.6073  0.1705  0.6959
   85GLOH   H04 9363   4.162   9.827   0.693  1.0144  0.5577 -0.5258
   85GLOH    O2 9364   4.132   9.686   0.843  0.0373 -0.2101  0.1366
   85GLOH   H05 9365   4.057   9.642   0.800  0.0700 -1.9728  1.8301
   85GLOH    C3 9366   4.344   9.798   0.813 -0.2849  0.8340  0.9132
   85GLOH   H06 9367   4.424   9.812   0.740 -0.1714 -0.3624  0.7996
   85GLOH   H07 9368   4.375   9.716   0.877 -1.7286 -1.1608 -0.8932
   85GLOH    O3 9369   4.331   9.918   0.894  0.3755  0.0165 -0.0432
   85GLOH   H01 9370   4.413   9.970   0.889  0.8361 -0.3908  2.6656
   86GLOH   H03 9371   2.925   8.948   1.580  0.1800 -0.2222 -0.3740
   86GLOH    O1 9372   2.833   8.935   1.552  0.0262 -0.3814  0.2036
   86GLOH    C1 9373   2.810   8.799   1.524 -0.5123 -1.0389  0.5185
   86GLOH   H02 9374   2.905   8.748   1.510 -0.0854 -0.0399 -0.2527
   86GLOH   H08 9375   2.752   8.791   1.431 -1.3404  0.2169  0.9176
   86GLOH    C2 9376   2.743   8.713   1.633  0.2215  0.2209  0.0000
   86GLOH   H04 9377   2.724   8.613   1.592  2.8193  0.6821 -2.5013
   86GLOH    O2 9378   2.819   8.711   1.757 -0.0582  0.2301 -0.0560
   86GLOH   H05 9379   2.795   8.787   1.813  3.6246  1.3554  0.1414
   86GLOH    C3 9380   2.604   8.765   1.668  0.2920 -0.0297 -0.3312
   86GLOH   H06 9381   2.605   8.874   1.678 -3.1477 -0.1424  2.6898
   86GLOH   H07 9382   2.577   8.722   1.765  1.1631 -3.3264 -1.5211
   86GLOH    O3 9383   2.503   8.730   1.568 -0.6546  0.1377  0.6359
   86GLOH   H01 9384   2.529   8.645   1.529  2.1826 -1.0716  4.8713
   87GLOH   H03 9385   3.290  10.005   0.439  0.7362  1.4149  1.1401
   87GLOH    O1 9386   3.383   9.983   0.419 -0.0647 -0.2685 -0.8136
   87GLOH    C1 9387   3.437   9.911   0.525  0.1959  0.0409 -0.3232
   87GLOH   H02 9388   3.534   9.869   0.495  0.9892  2.6767 -1.5774
   87GLOH   H08 9389   3.372   9.825   0.544  0.6133  0.1801  1.8717
   87GLOH    C2 9390   3.450   9.985   0.663  0.1421  0.1721 -0.1691
   87GLOH   H04 9391   3.501  10.079   0.638 -0.2759  0.3849 -0.2192
   87GLOH    O2 9392   3.323  10.013   0.727  0.2183  0.0247 -0.3383
   87GLOH   H05 9393   3.265  10.069   0.672 -2.2909 -0.4849  1.7259
   87GLOH    C3 9394   3.541   9.916   0.763 -0.0663  0.1450  0.2516
   87GLOH   H06 9395   3.502   9.815   0.756 -2.2132  0.9528  0.2676
   87GLOH   H07 9396   3.527   9.956   0.863  0.8324  0.3615  0.2976
   87GLOH    O3 9397   3.684   9.924   0.726 -0.2084  0.1828  0.1636
   87GLOH   H01 9398   3.730   9.982   0.789 -0.7941 -0.5099  1.2523
   88GLOH   H03 9399   3.801   9.870   2.169  1.5530 -0.2876 -0.9877
   88GLOH    O1 9400   3.847   9.884   2.253 -0.1451  0.2747 -0.1326
   88GLOH    C1 9401   3.978   9.825   2.242  0.3542 -0.0222  0.2871
   88GLOH   H02 9402   4.039   9.835   2.332  0.7091  0.8780 -0.0419
   88GLOH   H08 9403   4.027   9.872   2.157  1.2107  0.7049  1.1700
   88GLOH    C2 9404   3.966   9.675   2.205  0.3306 -0.3991  0.5808
   88GLOH   H04 9405   3.905   9.663   2.114  3.7724  1.2513 -2.1117
   88GLOH    O2 9406   4.093   9.616   2.157  0.3253 -0.0560 -0.1890
   88GLOH   H05 9407   4.084   9.526   2.122 -1.1961 -0.4740  1.2378
   88GLOH    C3 9408   3.898   9.595   2.312  0.0145 -0.2539  0.0416
   88GLOH   H06 9409   3.966   9.575   2.394 -0.4440 -1.6156  0.1068
   88GLOH   H07 9410   3.872   9.499   2.266  1.7740 -0.0341 -1.4563
   88GLOH    O3 9411   3.779   9.646   2.375 -0.1574 -0.0313  0.1073
   88GLOH   H01 9412   3.739   9.715   2.318 -0.7680 -1.3313 -1.0585
   89GLOH   H03 9413   4.022   8.465   1.942  0.4435  2.0497  2.3352
   89GLOH    O1 9414   3.976   8.409   2.007 -0.0704 -0.1546  0.1499
   89GLOH    C1 9415   3.841   8.365   1.971  0.0757 -0.1301  0.1862
   89GLOH   H02 9416   3.772   8.446   1.946 -1.2726 -1.9478 -2.1705
   89GLOH   H08 9417   3.792   8.320   2.057  1.1679 -1.7060 -0.0041
   89GLOH    C2 9418   3.841   8.252   1.864 -0.5211  0.3624  0.4333
   89GLOH   H04 9419   3.903   8.166   1.894  0.0368  0.0680 -1.4947
   89GLOH    O2 9420   3.702   8.205   1.848  0.0284  0.1844 -0.1050
   89GLOH   H05 9421   3.663   8.245   1.768  0.9490  0.8094 -0.2491
   89GLOH    C3 9422   3.898   8.304   1.736 -0.3812  0.2126 -0.0221
   89GLOH   H06 9423   3.891   8.230   1.657 -0.1562 -0.9010  0.9981
   89GLOH   H07 9424   4.003   8.323   1.758 -0.7613  1.0449  1.1148
   89GLOH    O3 9425   3.834   8.419   1.678  0.4272  0.3302  0.1857
   89GLOH   H01 9426   3.739   8.399   1.669  0.5067 -1.1711  2.2918
   90GLOH   H03 9427   3.514   0.560   0.838  2.4522  1.1452  1.4994
   90GLOH    O1 9428   3.495   0.645   0.793 -0.2007 -0.2048 -0.0424
   90GLOH    C1 9429   3.532   0.752   0.883  0.2045  0.0223 -0.6347
   90GLOH   H02 9430   3.630   0.728   0.926 -0.4507  0.7145  1.2969
   90GLOH   H08 9431   3.468   0.759   0.970  0.8678  0.3721 -0.1653
   90GLOH    C2 9432   3.543   0.893   0.816  0.8721  0.0394 -0.0849
   90GLOH   H04 9433   3.441   0.910   0.779  0.3461 -0.1500  1.2462
   90GLOH    O2 9434   3.575   0.997   0.914  0.6643 -0.8787  0.2483
   90GLOH   H05 9435   3.609   1.071   0.861  0.5870 -1.4420 -0.5972
   90GLOH    C3 9436   3.650   0.905   0.704  0.3100  0.0507  0.1841
   90GLOH   H06 9437   3.631   0.828   0.629  0.9326  1.0735 -1.0576
   90GLOH   H07 9438   3.743   0.885   0.756  0.1257  1.6443  1.1562
   90GLOH    O3 9439   3.649   1.035   0.643  0.4811  0.0227 -0.5635
   90GLOH   H01 9440   3.718   1.036   0.575  1.6780 -1.3543  0.6023
   91GLOH   H03 9441   3.911   0.653   0.779 -1.6762  0.1144  0.6067
   91GLOH    O1 9442   3.871   0.599   0.850 -0.2679 -0.8060  0.7255
   91GLOH    C1 9443   3.911   0.653   0.979 -0.7363 -0.2646  0.0125
   91GLOH   H02 9444   3.846   0.734   1.013  0.3671  0.1955  1.0468
   91GLOH   H08 9445   4.008   0.702   0.970 -1.3670  0.8524 -0.8958
   91GLOH    C2 9446   3.905   0.535   1.086  0.1568 -0.7595  0.7475
   91GLOH   H04 9447   3.948   0.580   1.177 -1.3676  2.0394  0.1410
   91GLOH    O2 9448   3.768   0.489   1.110 -0.2296 -0.1110 -0.9436
   91GLOH   H05 9449   3.701   0.560   1.101  0.1522  0.5230  1.0472
   91GLOH    C3 9450   3.997   0.417   1.039  0.0246  0.6513  0.6295
   91GLOH   H06 9451   3.999   0.398   0.932 -0.2908  0.3984  0.6706
   91GLOH   H07 9452   3.971   0.326   1.092  1.3473 -1.4154 -2.1324
   91GLOH    O3 9453   4.133   0.446   1.067 -0.2303  0.5737  0.3193
   91GLOH   H01 9454   4.186   0.387   1.011 -1.7510 -0.9149  0.4123
   92GLOH   H03 9455   3.383   8.584   2.127 -0.7128  1.8588  2.0827
   92GLOH    O1 9456   3.456   8.547   2.179 -0.5042 -0.2146  0.3588
   92GLOH    C1 9457   3.488   8.423   2.105 -0.5723 -0.8325  0.3931
   92GLOH   H02 9458   3.590   8.393   2.130 -1.2923 -0.0269  4.7711
   92GLOH   H08 9459   3.474   8.439   1.998 -1.0674  1.6449  0.8016
   92GLOH    C2 9460   3.392   8.304   2.130  0.2225 -0.2508 -0.0647
   92GLOH   H04 9461   3.384   8.279   2.237 -2.1333  0.1583 -0.1162
   92GLOH    O2 9462   3.260   8.337   2.088 -0.3245  0.1610 -0.2792
   92GLOH   H05 9463   3.223   8.403   2.150  1.1503 -0.4384  1.2588
   92GLOH    C3 9464   3.439   8.177   2.065 -0.4796 -0.8796  0.0575
   92GLOH   H06 9465   3.408   8.177   1.960 -0.1012  1.5107 -0.0827
   92GLOH   H07 9466   3.377   8.099   2.110 -1.9519  0.4991  0.4887
   92GLOH    O3 9467   3.582   8.152   2.081  0.5996 -0.4923  0.3408
   92GLOH   H01 9468   3.627   8.148   1.995  1.2096 -1.0330  0.6809
   93GLOH   H03 9469   2.999   0.597   1.636  0.7992 -0.4762 -0.5327
   93GLOH    O1 9470   2.994   0.673   1.575  0.1504  0.1087  0.2339
   93GLOH    C1 9471   3.069   0.642   1.459 -0.1723 -0.9020 -0.2847
   93GLOH   H02 9472   3.033   0.710   1.382 -0.5005 -2.0297 -1.1423
   93GLOH   H08 9473   3.054   0.541   1.421 -2.0642 -0.1390 -1.6403
   93GLOH    C2 9474   3.217   0.662   1.490 -0.6694 -0.3355 -0.0135
   93GLOH   H04 9475   3.228   0.596   1.577 -2.7059 -1.6844 -0.7266
   93GLOH    O2 9476   3.304   0.615   1.383 -0.5543  0.4361 -0.5475
   93GLOH   H05 9477   3.279   0.664   1.303  0.2887  1.1651 -0.3797
   93GLOH    C3 9478   3.242   0.816   1.506 -0.4426 -0.2974  0.5442
   93GLOH   H06 9479   3.158   0.843   1.569 -1.6002 -2.9316  0.2242
   93GLOH   H07 9480   3.217   0.867   1.413 -0.7841  0.6487  1.1549
   93GLOH    O3 9481   3.374   0.863   1.543 -0.3938 -0.0395 -0.1402
   93GLOH   H01 9482   3.411   0.936   1.489 -2.4641  1.2313  0.1028
   94GLOH   H03 9483   3.638   1.057   2.527 -3.4831 -1.8257 -0.7897
   94GLOH    O1 9484   3.604   1.142   2.492 -0.3746 -0.0285  0.2910
   94GLOH    C1 9485   3.485   1.188   2.554  0.1894 -0.2284  0.7952
   94GLOH   H02 9486   3.484   1.175   2.662 -2.0110  4.0833  1.4098
   94GLOH   H08 9487   3.404   1.124   2.519  0.4683 -0.4958  0.6302
   94GLOH    C2 9488   3.455   1.334   2.521  0.7621 -0.0290 -0.0566
   94GLOH   H04 9489   3.458   1.343   2.412  0.2313 -0.8254 -0.1422
   94GLOH    O2 9490   3.329   1.382   2.559  0.4552  0.0215 -0.1404
   94GLOH   H05 9491   3.273   1.347   2.487 -0.2415  0.7649  0.0304
   94GLOH    C3 9492   3.566   1.427   2.584 -0.4321 -0.1187 -0.3631
   94GLOH   H06 9493   3.519   1.525   2.584 -1.1508 -0.4507  0.9482
   94GLOH   H07 9494   3.652   1.429   2.517  1.0499  0.8608  1.5326
   94GLOH    O3 9495   3.597   1.394   2.724 -0.1017  0.0623  0.0290
   94GLOH   H01 9496   3.674   1.335   2.728 -0.6576 -0.8188 -1.6174
   95GLOH   H03 9497   3.302   0.140   1.629 -0.6053  0.3158  0.4472
   95GLOH    O1 9498   3.285   0.093   1.712 -0.4008 -0.6243 -0.0380
   95GLOH    C1 9499   3.380  -0.015   1.724  0.0810  0.2815  0.4819
   95GLOH   H02 9500   3.459   0.004   1.651 -0.0642 -1.0934 -0.0552
   95GLOH   H08 9501   3.319  -0.098   1.689 -1.7989  2.1654 -0.8063
   95GLOH    C2 9502   3.441  -0.041   1.864  0.3972  0.2787 -0.0961
   95GLOH   H04 9503   3.358  -0.036   1.937 -1.5404 -0.5568 -2.1664
   95GLOH    O2 9504   3.498  -0.175   1.870 -0.5345 -0.1971 -0.1477
   95GLOH   H05 9505   3.511  -0.222   1.786  1.4760 -0.2576  0.1848
   95GLOH    C3 9506   3.538   0.078   1.897  0.5047  0.4107 -0.0743
   95GLOH   H06 9507   3.612   0.089   1.817 -0.5591 -0.6734 -1.2354
   95GLOH   H07 9508   3.597   0.047   1.982  0.1130 -1.2733 -0.3814
   95GLOH    O3 9509   3.470   0.196   1.899 -0.2526 -0.3220 -0.4210
   95GLOH   H01 9510   3.404   0.195   1.828 -0.9643 -2.0323  0.2486
   96GLOH   H03 9511   2.905   9.533   0.197  0.6439 -0.8353 -1.5134
   96GLOH    O1 9512   2.836   9.475   0.235  0.0831  1.0064  0.3716
   96GLOH    C1 9513   2.773   9.530   0.346  1.3318 -0.5369  0.0048
   96GLOH   H02 9514   2.705   9.461   0.397 -3.7322  2.6924 -1.9600
   96GLOH   H08 9515   2.707   9.609   0.309 -0.6383 -1.9204  0.4354
   96GLOH    C2 9516   2.869   9.594   0.450  0.3212  0.3391 -0.5301
   96GLOH   H04 9517   2.943   9.516   0.475 -0.0495 -0.4624 -1.9122
   96GLOH    O2 9518   2.935   9.707   0.398 -0.2706 -0.4913  0.4610
   96GLOH   H05 9519   3.026   9.681   0.376 -0.3153  0.2973 -0.6978
   96GLOH    C3 9520   2.795   9.629   0.579 -0.4590 -0.3024 -0.2334
   96GLOH   H06 9521   2.701   9.662   0.535  0.7473  0.8668 -2.0340
   96GLOH   H07 9522   2.842   9.716   0.625 -0.5772 -0.3940  0.0613
   96GLOH    O3 9523   2.767   9.518   0.666 -0.4104  0.8625  0.1867
   96GLOH   H01 9524   2.849   9.496   0.712  0.1782 -0.8037 -1.5710
   97GLOH   H03 9525   2.786   9.991   2.101 -1.2158 -0.5928 -0.8571
   97GLOH    O1 9526   2.821   9.905   2.132 -0.0312  0.0917 -0.2216
   97GLOH    C1 9527   2.822   9.814   2.018 -0.3177 -0.5062 -0.8416
   97GLOH   H02 9528   2.904   9.853   1.957  0.5321 -0.0039  0.6064
   97GLOH   H08 9529   2.735   9.816   1.952 -2.0420 -0.5157  1.3873
   97GLOH    C2 9530   2.852   9.667   2.047 -0.3099  0.5949 -0.8136
   97GLOH   H04 9531   2.766   9.629   2.104  2.4348 -2.3609  1.5839
   97GLOH    O2 9532   2.867   9.587   1.930 -0.2271 -0.1174  0.2272
   97GLOH   H05 9533   2.891   9.497   1.959 -1.6952 -1.1429 -1.6503
   97GLOH    C3 9534   2.983   9.659   2.136 -0.2976 -0.1262 -0.3526
   97GLOH   H06 9535   3.059   9.697   2.068  0.0715  0.7535  0.5401
   97GLOH   H07 9536   3.012   9.558   2.167  0.9768  0.5229  0.6076
   97GLOH    O3 9537   2.974   9.743   2.253 -0.1530 -0.3240 -0.2680
   97GLOH   H01 9538   2.924   9.817   2.214  2.3602  0.8621 -1.3540
   98GLOH   H03 9539   3.890   0.945   2.282 -1.7887  1.4876 -1.6211
   98GLOH    O1 9540   3.955   1.017   2.266  0.0243  0.1187 -0.6145
   98GLOH    C1 9541   4.088   0.956   2.259  0.1164  0.4137 -0.5177
   98GLOH   H02 9542   4.163   1.031   2.236 -0.4823  1.9528  2.3271
   98GLOH   H08 9543   4.083   0.885   2.176 -2.0572 -0.6652  0.4743
   98GLOH    C2 9544   4.137   0.879   2.382  0.2399 -0.2749  0.0855
   98GLOH   H04 9545   4.067   0.797   2.406  2.0687 -2.2648 -1.2501
   98GLOH    O2 9546   4.271   0.830   2.371 -0.1768 -0.4615 -0.1483
   98GLOH   H05 9547   4.275   0.733   2.381 -2.7148 -0.4933  0.9936
   98GLOH    C3 9548   4.128   0.975   2.503  0.1605 -0.0785 -0.6350
   98GLOH   H06 9549   4.196   1.058   2.488  0.8480 -0.4651  0.2771
   98GLOH   H07 9550   4.164   0.920   2.591  0.9973  0.1808 -0.8075
   98GLOH    O3 9551   3.993   1.028   2.532 -0.0139  0.3952  0.1504
   98GLOH   H01 9552   3.949   1.019   2.446 -0.0368  2.1459 -0.0208
   99GLOH   H03 9553   3.755   0.247   2.545 -0.2142  1.2625  1.1970
   99GLOH    O1 9554   3.825   0.299   2.589  0.6917  0.8721  0.2278
   99GLOH    C1 9555   3.921   0.220   2.655 -0.4337  0.3681 -0.5315
   99GLOH   H02 9556   3.870   0.134   2.700 -0.5797  0.9408  0.4181
   99GLOH   H08 9557   3.967   0.280   2.733  0.6325 -1.0162 -0.0632
   99GLOH    C2 9558   4.036   0.167   2.561  0.2041  0.9609  0.0747
   99GLOH   H04 9559   4.092   0.255   2.526  0.0460  1.0766  0.1107
   99GLOH    O2 9560   4.119   0.067   2.629  0.5395 -0.0649 -0.1671
   99GLOH   H05 9561   4.062  -0.005   2.659 -1.3159  1.4155 -0.0445
   99GLOH    C3 9562   3.971   0.086   2.447 -0.6031  0.0539  0.6557
   99GLOH   H06 9563   4.058   0.046   2.396 -0.9264  0.0535  0.0996
   99GLOH   H07 9564   3.924   0.149   2.372  2.7371  3.0274  0.9455
   99GLOH    O3 9565   3.885  -0.022   2.486  0.0012 -0.4794 -0.3706
   99GLOH   H01 9566   3.859  -0.069   2.405 -0.1042 -2.1649  0.6369
  100GLOH   H03 9567   3.253   8.465   0.314  1.8556 -0.6637 -0.7216
  100GLOH    O1 9568   3.289   8.554   0.331  0.2917 -0.2435  0.5178
  100GLOH    C1 9569   3.280   8.652   0.224  0.0808 -0.2323 -0.3603
  100GLOH   H02 9570   3.200   8.632   0.152 -0.2702  0.0179 -0.0359
  100GLOH   H08 9571   3.371   8.670   0.166 -0.3838  0.4527 -0.8796
  100GLOH    C2 9572   3.250   8.797   0.274 -0.7003  0.7928 -0.0739
  100GLOH   H04 9573   3.310   8.812   0.365  0.4406 -1.3603 -0.4535
  100GLOH    O2 9574   3.307   8.880   0.177  0.4176 -0.2783  0.1555
  100GLOH   H05 9575   3.303   8.834   0.091 -1.2347  0.3132 -0.1096
  100GLOH    C3 9576   3.103   8.816   0.300 -0.9482  0.4720  0.6199
  100GLOH   H06 9577   3.058   8.723   0.337 -0.3420 -1.1321 -2.5354
  100GLOH   H07 9578   3.066   8.826   0.198  1.7189  2.4887 -0.1947
  100GLOH    O3 9579   3.060   8.931   0.380 -0.4059 -0.0239  0.5090
  100GLOH   H01 9580   3.089   8.912   0.471  0.1023  0.4352  0.4476
  101GLOH   H03 9581   3.794   9.582  -0.194  0.0691  0.1905 -0.1770
  101GLOH    O1 9582   3.802   9.507  -0.132 -0.0513  0.1155 -0.2536
  101GLOH    C1 9583   3.777   9.554   0.007 -0.1619 -0.8688 -0.5285
  101GLOH   H02 9584   3.846   9.503   0.074 -1.5961 -0.8161  1.0337
  101GLOH   H08 9585   3.677   9.521   0.034 -0.7516  1.1214 -0.2181
  101GLOH    C2 9586   3.794   9.700   0.043 -0.3621 -0.8523 -0.2449
  101GLOH   H04 9587   3.734   9.757  -0.030  0.8378 -0.3536 -0.8502
  101GLOH    O2 9588   3.752   9.723   0.179 -0.4382 -0.2777  0.0601
  101GLOH   H05 9589   3.729   9.817   0.189  1.5818  0.1369  0.8874
  101GLOH    C3 9590   3.936   9.743   0.014  0.1239  0.2925 -0.3446
  101GLOH   H06 9591   3.951   9.713  -0.090  0.0783  1.1800 -0.6115
  101GLOH   H07 9592   4.004   9.693   0.083  0.4246  3.0490  1.4626
  101GLOH    O3 9593   3.962   9.884   0.019 -0.0524 -0.2149 -0.4964
  101GLOH   H01 9594   3.920   9.913  -0.064  0.2318 -0.9090 -0.8832
  102GLOH   H03 9595   2.423   9.053   1.359  1.1761 -0.2452  1.4356
  102GLOH    O1 9596   2.476   9.087   1.285  0.0468 -0.0667  0.6888
  102GLOH    C1 9597   2.571   8.979   1.245 -0.3316 -0.6904 -0.1260
  102GLOH   H02 9598   2.546   8.888   1.299 -1.5138 -0.7334 -0.7227
  102GLOH   H08 9599   2.673   9.001   1.277  0.1467 -1.6844 -0.9305
  102GLOH    C2 9600   2.575   8.940   1.097  0.2724 -0.5037  0.2051
  102GLOH   H04 9601   2.612   9.024   1.035  1.2844 -2.3802 -1.8292
  102GLOH    O2 9602   2.660   8.824   1.071 -0.0565  0.0904  0.3458
  102GLOH   H05 9603   2.687   8.825   0.978  0.3775  0.9554  0.4699
  102GLOH    C3 9604   2.436   8.915   1.040 -0.0792 -0.1210  0.2428
  102GLOH   H06 9605   2.363   8.989   1.073 -0.3888  0.1980 -1.0982
  102GLOH   H07 9606   2.396   8.820   1.074 -0.6778 -0.4194 -1.2308
  102GLOH    O3 9607   2.430   8.921   0.899 -0.2282  0.0090  0.5107
  102GLOH   H01 9608   2.424   9.011   0.861 -1.9082 -1.0806 -1.9172
  103GLOH   H03 9609   3.914   8.508   1.581  2.4171 -0.8135  0.3007
  103GLOH    O1 9610   3.941   8.569   1.510  0.0491 -0.1506 -0.0454
  103GLOH    C1 9611   3.994   8.690   1.571 -0.0029  0.0045 -0.3202
  103GLOH   H02 9612   3.928   8.727   1.650 -0.4440  0.5255 -0.9262
  103GLOH   H08 9613   3.993   8.773   1.500 -1.6728 -1.2381 -1.8079
  103GLOH    C2 9614   4.140   8.675   1.620  0.2749 -0.1603 -0.0640
  103GLOH   H04 9615   4.200   8.664   1.529 -1.8826 -1.5517 -1.3699
  103GLOH    O2 9616   4.176   8.792   1.696  0.1575 -0.0125  0.3554
  103GLOH   H05 9617   4.153   8.878   1.658 -2.8076 -0.3785  1.1269
  103GLOH    C3 9618   4.158   8.555   1.718  0.0892  0.7972  0.2651
  103GLOH   H06 9619   4.264   8.545   1.739 -0.1671  0.0644  1.2046
  103GLOH   H07 9620   4.122   8.468   1.663  0.5260  1.0935 -0.5105
  103GLOH    O3 9621   4.084   8.560   1.838 -0.5230  0.3202 -0.3438
  103GLOH   H01 9622   4.092   8.651   1.870  0.2665 -0.2674  1.1692
  104GLOH   H03 9623   3.833   1.184   0.311 -0.7991 -0.8685  0.1235
  104GLOH    O1 9624   3.899   1.146   0.250 -0.1712 -0.1297  0.3354
  104GLOH    C1 9625   4.022   1.163   0.312  0.4807  0.7006 -0.0894
  104GLOH   H02 9626   4.018   1.254   0.371 -5.3941 -1.9718  4.1002
  104GLOH   H08 9627   4.097   1.171   0.233 -1.2230  1.9479 -1.6000
  104GLOH    C2 9628   4.068   1.053   0.420  0.1409 -0.4460 -0.4771
  104GLOH   H04 9629   4.077   0.953   0.376 -0.2187 -0.6805 -0.0193
  104GLOH    O2 9630   4.186   1.077   0.497 -0.1618  0.3282  0.3721
  104GLOH   H05 9631   4.228   1.000   0.539  0.3134  0.2689 -0.2151
  104GLOH    C3 9632   3.954   1.043   0.526 -0.0235  0.1082  0.4417
  104GLOH   H06 9633   3.937   1.141   0.570  0.7920  0.0317  0.9474
  104GLOH   H07 9634   3.992   0.987   0.612  0.9462 -1.4005 -0.9510
  104GLOH    O3 9635   3.834   0.982   0.474 -0.2742 -0.1141 -0.2995
  104GLOH   H01 9636   3.866   0.909   0.418 -1.2541 -0.8082  0.0293
  105GLOH   H03 9637   2.581   8.903   2.446 -1.1707  0.1614  0.2361
  105GLOH    O1 9638   2.616   8.822   2.403  0.1737  0.7000  0.2841
  105GLOH    C1 9639   2.712   8.779   2.500  0.0050  0.4230 -0.6240
  105GLOH   H02 9640   2.815   8.775   2.463  1.1713  3.5198  2.0598
  105GLOH   H08 9641   2.692   8.679   2.538 -0.3021  1.7972  3.0621
  105GLOH    C2 9642   2.710   8.855   2.637 -0.3418  0.1478 -0.5544
  105GLOH   H04 9643   2.624   8.816   2.694 -0.2693 -1.0135 -1.2162
  105GLOH    O2 9644   2.831   8.838   2.712 -0.5924  0.3349  1.1465
  105GLOH   H05 9645   2.842   8.904   2.783  1.3376  0.4449  0.7805
  105GLOH    C3 9646   2.693   9.007   2.622  0.0865 -0.3664 -0.0341
  105GLOH   H06 9647   2.788   9.057   2.601 -0.3027 -0.1493 -1.3113
  105GLOH   H07 9648   2.667   9.048   2.719 -0.5741 -0.1201 -0.3122
  105GLOH    O3 9649   2.596   9.038   2.523 -0.1056  0.2164  0.6133
  105GLOH   H01 9650   2.537   9.110   2.553 -0.8877 -0.6635  1.1948
  106GLOH   H03 9651   3.696   9.626   1.076 -0.5867  1.2414  0.5347
  106GLOH    O1 9652   3.675   9.637   0.982  1.0835 -0.3029 -0.0393
  106GLOH    C1 9653   3.791   9.658   0.901  0.3279 -0.0992  0.5941
  106GLOH   H02 9654   3.878   9.693   0.956  0.1234  1.7669 -0.2437
  106GLOH   H08 9655   3.776   9.731   0.821 -0.2378 -0.1551  0.6477
  106GLOH    C2 9656   3.829   9.522   0.827  0.3535 -0.1796 -0.2592
  106GLOH   H04 9657   3.742   9.477   0.778  0.2827  0.2522 -0.5283
  106GLOH    O2 9658   3.933   9.558   0.731  0.0578 -0.1626  0.6024
  106GLOH   H05 9659   3.884   9.611   0.666 -0.5853  0.9195  1.9614
  106GLOH    C3 9660   3.892   9.423   0.924  0.0328 -0.4146 -0.0270
  106GLOH   H06 9661   3.977   9.468   0.975  0.6764 -1.5796 -0.0489
  106GLOH   H07 9662   3.917   9.332   0.869 -0.4706  1.1013 -2.8572
  106GLOH    O3 9663   3.801   9.381   1.031 -0.7892 -0.0396  0.1492
  106GLOH   H01 9664   3.731   9.327   0.991  0.8780 -1.2539 -1.2118
  107GLOH   H03 9665   3.778   8.983   1.483 -0.9275  0.9404 -0.8639
  107GLOH    O1 9666   3.777   9.057   1.546 -0.3468  0.2396 -0.0153
  107GLOH    C1 9667   3.771   9.002   1.683  0.9895  0.0764  0.0629
  107GLOH   H02 9668   3.771   9.087   1.750  0.7798  1.1988 -1.3244
  107GLOH   H08 9669   3.860   8.943   1.706 -0.3524 -1.6760  0.8707
  107GLOH    C2 9670   3.643   8.923   1.716 -0.6050  0.1277 -0.1781
  107GLOH   H04 9671   3.637   8.838   1.645  2.3080  0.9146 -1.4618
  107GLOH    O2 9672   3.657   8.852   1.842  0.0966 -0.0213 -0.3026
  107GLOH   H05 9673   3.683   8.923   1.904  0.0568  2.5921 -3.1295
  107GLOH    C3 9674   3.517   9.019   1.718 -0.5560  0.3480 -0.5784
  107GLOH   H06 9675   3.532   9.083   1.631  3.9031 -0.2203 -0.3216
  107GLOH   H07 9676   3.529   9.087   1.803 -0.0568 -2.0019  1.2759
  107GLOH    O3 9677   3.387   8.961   1.735 -0.4248 -0.4905  0.1996
  107GLOH   H01 9678   3.360   8.899   1.665 -1.2929  0.4731 -0.3192
  108GLOH   H03 9679   3.976   8.844   2.312 -0.9313 -0.7926 -0.6970
  108GLOH    O1 9680   3.988   8.885   2.224  0.3512 -0.1836 -0.2433
  108GLOH    C1 9681   3.980   9.033   2.232  0.5474 -0.2858  0.1132
  108GLOH   H02 9682   4.073   9.074   2.192  0.1972  0.9196  0.5392
  108GLOH   H08 9683   3.981   9.064   2.336 -3.6494  1.4346 -0.2894
  108GLOH    C2 9684   3.850   9.083   2.181  0.1330  0.3409 -0.1133
  108GLOH   H04 9685   3.764   9.041   2.235 -0.3588  1.3330 -0.1074
  108GLOH    O2 9686   3.838   9.227   2.190  0.2343 -0.3414 -0.5554
  108GLOH   H05 9687   3.799   9.236   2.279 -0.3575 -1.9703 -0.6187
  108GLOH    C3 9688   3.826   9.036   2.033  0.7400 -0.3850  0.1168
  108GLOH   H06 9689   3.848   8.930   2.024  0.0919 -0.5297  0.2215
  108GLOH   H07 9690   3.895   9.096   1.973  0.8149  1.5730  2.0937
  108GLOH    O3 9691   3.692   9.056   1.986  0.6428  0.1054  0.6294
  108GLOH   H01 9692   3.686   9.153   1.980  1.3492  0.0114 -2.5650
  109GLOH   H03 9693   4.503   0.200   1.422 -0.2850 -1.9099 -2.7242
  109GLOH    O1 9694   4.417   0.244   1.411  0.0732 -0.3277  0.2559
  109GLOH    C1 9695   4.322   0.154   1.356 -0.0147  0.2482  0.5089
  109GLOH   H02 9696   4.286   0.091   1.437 -0.1659 -0.6379 -0.2387
  109GLOH   H08 9697   4.361   0.094   1.273  0.6439  0.9709  0.2845
  109GLOH    C2 9698   4.210   0.237   1.296  0.6525 -0.0728 -0.4881
  109GLOH   H04 9699   4.258   0.272   1.203 -0.4193 -0.3663 -1.1516
  109GLOH    O2 9700   4.094   0.155   1.278 -0.0620 -0.2055 -0.3174
  109GLOH   H05 9701   4.123   0.102   1.202 -3.0046 -2.3830  0.0139
  109GLOH    C3 9702   4.170   0.357   1.384 -0.0401  0.4154  0.4827
  109GLOH   H06 9703   4.139   0.324   1.483 -1.9863  0.8413  0.0195
  109GLOH   H07 9704   4.075   0.399   1.352 -1.2804 -0.3257  3.0377
  109GLOH    O3 9705   4.273   0.445   1.402  0.6734  0.2455  0.1507
  109GLOH   H01 9706   4.345   0.380   1.415  0.3590  0.1097  1.2604
  110GLOH   H03 9707   3.359   1.245   1.005 -1.9498 -0.0262  1.1293
  110GLOH    O1 9708   3.408   1.257   1.088 -0.2509 -0.4786  0.2145
  110GLOH    C1 9709   3.334   1.194   1.191  0.0044  0.2183 -0.5324
  110GLOH   H02 9710   3.227   1.195   1.168 -0.6572 -1.5151  2.2045
  110GLOH   H08 9711   3.346   1.249   1.284  1.4983 -0.5642 -0.2475
  110GLOH    C2 9712   3.375   1.046   1.205 -0.0809  0.7245  0.5298
  110GLOH   H04 9713   3.305   1.000   1.276  0.7403  1.8342  2.0788
  110GLOH    O2 9714   3.354   0.980   1.075 -0.5111  0.2747  0.3022
  110GLOH   H05 9715   3.432   1.001   1.021 -0.2277  0.1863  0.6709
  110GLOH    C3 9716   3.517   1.034   1.268 -0.6692 -0.0278 -0.7379
  110GLOH   H06 9717   3.593   1.100   1.226 -0.3820  1.0545  1.3926
  110GLOH   H07 9718   3.546   0.931   1.246  0.8677 -0.0958  1.4067
  110GLOH    O3 9719   3.517   1.056   1.412  0.3148 -0.4246 -0.1988
  110GLOH   H01 9720   3.608   1.058   1.447  0.9423 -2.5737 -1.6381
  111GLOH   H03 9721   3.648   0.498   0.319 -1.9896  2.3001  3.6812
  111GLOH    O1 9722   3.696   0.573   0.278 -0.3169 -0.3584  0.5479
  111GLOH    C1 9723   3.655   0.625   0.151 -0.1843  0.4758 -0.3356
  111GLOH   H02 9724   3.677   0.732   0.160 -2.8638  1.1316 -0.9788
  111GLOH   H08 9725   3.547   0.615   0.146 -0.0517 -2.1548  1.0299
  111GLOH    C2 9726   3.717   0.561   0.029  0.5387  1.0141 -0.0073
  111GLOH   H04 9727   3.683   0.457   0.017  0.9899  1.2895 -4.0214
  111GLOH    O2 9728   3.653   0.633  -0.076  0.9051  0.1833  0.3178
  111GLOH   H05 9729   3.598   0.571  -0.128 -0.9515  1.7566  0.3223
  111GLOH    C3 9730   3.871   0.568   0.039  0.8961 -0.0413  0.3350
  111GLOH   H06 9731   3.902   0.515   0.129 -0.3907 -0.5489  0.4948
  111GLOH   H07 9732   3.886   0.676   0.046 -1.0744  0.2409  0.5723
  111GLOH    O3 9733   3.939   0.519  -0.077 -0.2117 -0.3374 -0.6892
  111GLOH   H01 9734   3.890   0.441  -0.107  0.4602 -0.9826 -0.1352
  112GLOH   H03 9735   3.344   8.486   2.558 -2.4972  0.8748  2.8038
  112GLOH    O1 9736   3.320   8.571   2.516  0.2643  0.4238  0.1189
  112GLOH    C1 9737   3.446   8.604   2.464 -0.5505 -0.7258 -0.0170
  112GLOH   H02 9738   3.440   8.664   2.372 -0.5738 -0.2340  0.3017
  112GLOH   H08 9739   3.503   8.516   2.436 -1.4821 -1.2653 -0.2276
  112GLOH    C2 9740   3.531   8.680   2.568  0.1183 -0.2247  0.2322
  112GLOH   H04 9741   3.541   8.604   2.647 -0.2034 -3.7224 -2.9651
  112GLOH    O2 9742   3.660   8.711   2.515  0.5525 -0.0643  0.1778
  112GLOH   H05 9743   3.656   8.697   2.419 -0.6354  0.5298  0.1280
  112GLOH    C3 9744   3.455   8.797   2.624 -0.6552 -0.2857 -0.1587
  112GLOH   H06 9745   3.452   8.867   2.541  0.7672  0.5553  0.4801
  112GLOH   H07 9746   3.520   8.837   2.702 -2.7041  3.0003 -0.0180
  112GLOH    O3 9747   3.323   8.768   2.671  0.1357  0.0720 -0.1094
  112GLOH   H01 9748   3.282   8.703   2.611 -0.6485  1.7017 -1.3588
  113GLOH   H03 9749   2.912   8.772   1.247  0.4951 -0.2983  5.6424
  113GLOH    O1 9750   2.913   8.675   1.234  0.0322  0.3135 -0.1913
  113GLOH    C1 9751   2.926   8.623   1.098  1.0208 -0.0342 -0.7875
  113GLOH   H02 9752   2.991   8.686   1.038  1.0594  0.4781 -0.2099
  113GLOH   H08 9753   2.833   8.623   1.041 -0.3546 -2.1008  1.3288
  113GLOH    C2 9754   2.968   8.474   1.082  0.1355 -0.2194 -0.2714
  113GLOH   H04 9755   2.896   8.411   1.136 -0.2669 -0.2473 -0.8310
  113GLOH    O2 9756   2.964   8.439   0.935  0.1844  0.3392 -0.2731
  113GLOH   H05 9757   2.879   8.392   0.928  0.2797  0.4523 -2.4035
  113GLOH    C3 9758   3.107   8.460   1.139  0.4168  0.2296  0.2377
  113GLOH   H06 9759   3.181   8.519   1.086 -2.2464  1.3679 -2.3410
  113GLOH   H07 9760   3.148   8.360   1.121 -0.1886  0.3946 -2.1504
  113GLOH    O3 9761   3.098   8.504   1.273  0.5028 -0.0412 -0.1049
  113GLOH   H01 9762   3.032   8.573   1.291  1.2780  0.0914  2.4675
  114GLOH   H03 9763   3.071   9.699   2.392  1.5369  0.9213 -0.4126
  114GLOH    O1 9764   3.108   9.675   2.479 -0.1537  0.1525  0.1132
  114GLOH    C1 9765   3.111   9.792   2.557  0.5360 -0.3212  0.2446
  114GLOH   H02 9766   3.154   9.768   2.654 -0.6534 -3.7439 -0.0042
  114GLOH   H08 9767   3.010   9.834   2.563  0.7829  0.3720 -0.2874
  114GLOH    C2 9768   3.187   9.912   2.487 -0.1010 -0.1963 -0.3462
  114GLOH   H04 9769   3.113   9.959   2.421 -1.3180 -1.6593 -0.0359
  114GLOH    O2 9770   3.224  10.011   2.588  0.7213 -0.4828 -0.4358
  114GLOH   H05 9771   3.253  10.096   2.550  2.2054 -0.3576  0.9500
  114GLOH    C3 9772   3.310   9.878   2.405 -0.5358  0.4390  0.6295
  114GLOH   H06 9773   3.377   9.808   2.456  1.1237  0.1006 -1.8982
  114GLOH   H07 9774   3.375   9.964   2.392  1.5481 -1.0758  0.6061
  114GLOH    O3 9775   3.278   9.816   2.280 -0.3422 -0.3989  0.6193
  114GLOH   H01 9776   3.219   9.887   2.248 -0.6917 -0.3252  1.4272
  115GLOH   H03 9777   3.242   0.202   0.533 -0.5739 -0.2363  0.3825
  115GLOH    O1 9778   3.180   0.133   0.565 -0.2205 -0.8070 -0.1607
  115GLOH    C1 9779   3.043   0.184   0.583 -0.9690 -0.3145 -0.3198
  115GLOH   H02 9780   3.026   0.250   0.498  1.2216 -0.4844 -0.9136
  115GLOH   H08 9781   3.038   0.260   0.661  2.2126 -0.2980 -0.0666
  115GLOH    C2 9782   2.928   0.086   0.608 -0.5575 -0.4872 -0.1358
  115GLOH   H04 9783   2.839   0.151   0.613 -0.5751 -0.4436 -0.9632
  115GLOH    O2 9784   2.911  -0.011   0.503  0.1665 -1.1787  0.4697
  115GLOH   H05 9785   2.827   0.013   0.461  0.3687 -0.8662  0.2460
  115GLOH    C3 9786   2.948   0.024   0.749  0.3448 -0.0290  0.8298
  115GLOH   H06 9787   3.054  -0.000   0.746  0.6323  1.0489  1.7933
  115GLOH   H07 9788   2.887  -0.065   0.769  0.5852 -0.6912 -1.2820
  115GLOH    O3 9789   2.914   0.127   0.845  0.3225  0.4209  0.5489
  115GLOH   H01 9790   2.962   0.114   0.929  2.0990  1.3875 -0.2850
  116GLOH   H03 9791   3.358   0.525   0.960  1.1450  1.1346 -1.7091
  116GLOH    O1 9792   3.428   0.458   0.943  0.4145 -0.2326  0.5226
  116GLOH    C1 9793   3.449   0.382   1.059 -0.3394  0.3542 -0.1460
  116GLOH   H02 9794   3.446   0.443   1.149 -1.1371  1.3265 -0.8078
  116GLOH   H08 9795   3.544   0.330   1.052 -1.1683 -0.9952 -2.0364
  116GLOH    C2 9796   3.340   0.271   1.071 -0.0586 -0.6098  0.0673
  116GLOH   H04 9797   3.360   0.223   1.168 -0.5589  2.7369  1.9008
  116GLOH    O2 9798   3.207   0.330   1.091 -0.6223 -0.3207 -0.0786
  116GLOH   H05 9799   3.223   0.415   1.046  0.3265  1.2759  3.1260
  116GLOH    C3 9800   3.346   0.178   0.956  0.9110  0.1841 -0.2598
  116GLOH   H06 9801   3.448   0.164   0.920  1.0963 -0.8533  0.6285
  116GLOH   H07 9802   3.291   0.229   0.877 -0.4915 -0.4811  0.2727
  116GLOH    O3 9803   3.268   0.054   0.980  0.0163  0.6400  0.2655
  116GLOH   H01 9804   3.273   0.005   0.895  1.3060 -1.5912  1.5713
  117GLOH   H03 9805   3.332   9.532   1.713 -0.1925 -0.0925  0.0121
  117GLOH    O1 9806   3.366   9.493   1.795 -0.5238 -0.2055  0.0986
  117GLOH    C1 9807   3.290   9.385   1.841 -0.1308 -0.3017 -0.2588
  117GLOH   H02 9808   3.201   9.419   1.893 -1.1444  0.4683 -2.4559
  117GLOH   H08 9809   3.349   9.325   1.911  0.5695  1.3218  0.5578
  117GLOH    C2 9810   3.246   9.289   1.728  0.3358 -0.3331  0.9141
  117GLOH   H04 9811   3.337   9.250   1.679 -0.5647  0.1998 -1.2392
  117GLOH    O2 9812   3.156   9.188   1.781 -0.0140  0.3944  0.5592
  117GLOH   H05 9813   3.205   9.143   1.851  2.1938 -0.6789 -1.6270
  117GLOH    C3 9814   3.175   9.372   1.624 -0.3125  0.1605 -0.2672
  117GLOH   H06 9815   3.088   9.412   1.674  0.5624  0.8376  0.7323
  117GLOH   H07 9816   3.145   9.307   1.542  0.4455 -1.0736  0.4165
  117GLOH    O3 9817   3.269   9.470   1.563  0.4495  0.2188  0.0227
  117GLOH   H01 9818   3.287   9.439   1.472  2.2833 -1.8336  1.0321
  118GLOH   H03 9819   3.986  -0.025   0.273 -0.6250  0.7913  3.9210
  118GLOH    O1 9820   4.029   0.061   0.261 -0.2251  0.1740  0.1493
  118GLOH    C1 9821   4.167   0.035   0.242 -0.2121  0.9296  1.1466
  118GLOH   H02 9822   4.206   0.117   0.182 -0.6903  0.8578  0.7398
  118GLOH   H08 9823   4.184  -0.058   0.188 -0.0942  0.7493  1.4927
  118GLOH    C2 9824   4.272   0.038   0.358 -0.0048  0.6216  0.0706
  118GLOH   H04 9825   4.358  -0.008   0.308  1.6299  1.0745  2.3923
  118GLOH    O2 9826   4.315   0.169   0.409  0.0619  0.2315 -0.5355
  118GLOH   H05 9827   4.403   0.157   0.448 -0.3666 -2.1709 -0.2257
  118GLOH    C3 9828   4.228  -0.055   0.471  0.1223  0.3076 -0.4336
  118GLOH   H06 9829   4.134  -0.026   0.518  0.3058  0.5843 -0.2369
  118GLOH   H07 9830   4.305  -0.044   0.548 -1.6688 -0.7683  1.5702
  118GLOH    O3 9831   4.204  -0.190   0.424 -0.2399 -0.5191  0.1513
  118GLOH   H01 9832   4.108  -0.190   0.405 -0.6464 -0.2180  2.0825
  119GLOH   H03 9833   3.887   1.153   0.895  0.7075 -0.3371 -0.9811
  119GLOH    O1 9834   3.962   1.098   0.925  0.0533 -0.2381  0.8827
  119GLOH    C1 9835   3.916   0.995   1.011  0.7649  0.0549  0.1320
  119GLOH   H02 9836   3.992   0.921   1.037  0.5625 -0.3091 -0.2926
  119GLOH   H08 9837   3.835   0.944   0.959 -0.0644 -0.2084  1.6657
  119GLOH    C2 9838   3.854   1.043   1.143 -0.4981 -0.0177  0.3907
  119GLOH   H04 9839   3.767   1.109   1.127 -0.0354  0.8298  1.2877
  119GLOH    O2 9840   3.819   0.921   1.213 -0.2117  0.4023  0.0359
  119GLOH   H05 9841   3.896   0.882   1.258 -2.2539 -3.5915  0.3281
  119GLOH    C3 9842   3.962   1.130   1.217 -0.9060 -0.1274 -0.6305
  119GLOH   H06 9843   3.964   1.227   1.166 -1.4484 -0.6528 -1.6602
  119GLOH   H07 9844   4.054   1.079   1.191 -1.0160 -0.6295 -0.0585
  119GLOH    O3 9845   3.950   1.147   1.361  0.1943  0.1182  0.0814
  119GLOH   H01 9846   4.022   1.100   1.407  0.4466  2.2370  1.9365
  120GLOH   H03 9847   4.884   0.650   0.758  0.2363 -2.3152 -0.0613
  120GLOH    O1 9848   4.791   0.651   0.731  0.1042 -0.0965  0.3367
  120GLOH    C1 9849   4.781   0.566   0.614 -0.0635  0.0141 -0.3558
  120GLOH   H02 9850   4.817   0.628   0.532 -0.8537  0.9964  0.0335
  120GLOH   H08 9851   4.676   0.548   0.591 -0.5479  0.5547  1.3628
  120GLOH    C2 9852   4.863   0.436   0.619 -0.3098  0.1975 -0.1814
  120GLOH   H04 9853   4.846   0.380   0.713 -0.1248  0.0134 -0.2572
  120GLOH    O2 9854   4.828   0.349   0.510  0.3077 -0.1320  0.1147
  120GLOH   H05 9855   4.884   0.271   0.524 -0.4939 -0.6518  0.4482
  120GLOH    C3 9856   5.010   0.462   0.612  0.6257 -0.0659 -0.1588
  120GLOH   H06 9857   5.030   0.519   0.522 -1.0569  2.1881  0.8285
  120GLOH   H07 9858   5.070   0.372   0.604  1.7970  0.5871  1.0927
  120GLOH    O3 9859   5.048   0.544   0.722  0.6091  0.4015  0.2015
  120GLOH   H01 9860   5.131   0.504   0.754  1.4260  0.8210 -1.3367
  121ACOH    H4 9861   3.309   1.430   2.275  2.3371 -1.5741  1.5144
  121ACOH    O2 9862   3.365   1.504   2.245  0.2342 -0.5208  0.0474
  121ACOH    C2 9863   3.335   1.518   2.115  0.0012  0.2344  0.2324
  121ACOH    O1 9864   3.297   1.428   2.042  0.2756 -0.4692 -0.0835
  121ACOH    C1 9865   3.405   1.632   2.068 -0.3293  0.4956 -0.3642
  121ACOH    H1 9866   3.512   1.626   2.090 -0.4620 -0.8591 -0.0661
  121ACOH    H2 9867   3.356   1.715   2.119  0.2176  0.3926  0.3379
  121ACOH    H3 9868   3.401   1.640   1.959 -0.0286  1.1181 -0.3329
  122ACOH    H4 9869   4.647   0.648   0.801 -1.1973 -1.8020 -0.3939
  122ACOH    O2 9870   4.592   0.663   0.880  0.6259 -0.4466  0.6613
  122ACOH    C2 9871   4.640   0.586   0.977 -0.0706 -0.2058  0.2367
  122ACOH    O1 9872   4.727   0.500   0.960  0.1623  0.2142  0.9211
  122ACOH    C1 9873   4.551   0.580   1.095 -0.2024  0.0154 -0.2833
  122ACOH    H1 9874   4.476   0.504   1.072  0.9762 -0.3129 -3.2587
  122ACOH    H2 9875   4.508   0.676   1.123  0.3409 -0.2462  1.5456
  122ACOH    H3 9876   4.608   0.548   1.182 -0.8305  0.8623  0.4527
  123ACOH    H4 9877   2.911   8.212   2.115 -0.5854 -0.0604 -0.1803
  123ACOH    O2 9878   2.837   8.193   2.176 -0.2252 -0.2714  0.1902
  123ACOH    C2 9879   2.726   8.229   2.113 -0.3370 -0.9015 -0.4579
  123ACOH    O1 9880   2.700   8.246   1.994  0.1556  0.3049 -0.4076
  123ACOH    C1 9881   2.613   8.236   2.214 -0.0347  0.8007  0.3456
  123ACOH    H1 9882   2.600   8.142   2.268 -1.1354  0.6477 -0.1671
  123ACOH    H2 9883   2.517   8.259   2.167 -0.1540 -0.2649  0.0470
  123ACOH    H3 9884   2.642   8.305   2.293  0.5834  0.3240  0.5292
  124ACOH    H4 9885   2.659   8.188   0.315  0.6185  0.6667 -0.9982
  124ACOH    O2 9886   2.693   8.097   0.304 -0.3622  0.1628  0.0770
  124ACOH    C2 9887   2.725   8.082   0.172  0.2132  1.0225 -0.1562
  124ACOH    O1 9888   2.762   8.171   0.101  0.2041  0.7493 -0.8299
  124ACOH    C1 9889   2.718   7.936   0.132  0.3165  0.6200  0.4683
  124ACOH    H1 9890   2.625   7.892   0.170  0.7104  0.3630  1.1407
  124ACOH    H2 9891   2.802   7.875   0.167 -0.4106 -0.0022  1.1692
  124ACOH    H3 9892   2.709   7.931   0.024 -0.9063  1.1034  0.5382
  125ACOH    H4 9893   3.771   8.219   0.798 -0.3304  0.1772 -1.5687
  125ACOH    O2 9894   3.684   8.187   0.827  0.1463 -0.0905 -0.4257
  125ACOH    C2 9895   3.680   8.197   0.968  0.3272  0.0406  0.2168
  125ACOH    O1 9896   3.772   8.242   1.038  0.2867 -0.1750  0.2630
  125ACOH    C1 9897   3.556   8.148   1.037  0.3349  0.0406  0.7209
  125ACOH    H1 9898   3.556   8.042   1.065 -0.4238 -0.0473  0.3986
  125ACOH    H2 9899   3.469   8.186   0.983 -0.8300  1.6376  3.6245
  125ACOH    H3 9900   3.547   8.204   1.130  0.7675 -1.4226  1.6748
  126ACOH    H4 9901   5.327   0.365   1.041 -0.2493 -0.2372 -0.6888
  126ACOH    O2 9902   5.418   0.392   1.020 -0.0875  0.1774  0.4781
  126ACOH    C2 9903   5.443   0.381   0.891  0.0434 -0.8650 -0.0492
  126ACOH    O1 9904   5.349   0.382   0.811 -0.5423 -0.0523 -0.3077
  126ACOH    C1 9905   5.589   0.372   0.861 -0.2221  0.7760 -0.2345
  126ACOH    H1 9906   5.613   0.469   0.818  1.0870  1.3512  1.7811
  126ACOH    H2 9907   5.601   0.284   0.797 -2.6021  0.5689 -0.4514
  126ACOH    H3 9908   5.635   0.359   0.958  1.0733  0.2976 -0.9036
  127ACOH    H4 9909   3.145   1.305   0.113  0.1368 -0.0931  0.1998
  127ACOH    O2 9910   3.064   1.252   0.125  0.1373 -0.2750 -0.5725
  127ACOH    C2 9911   3.075   1.158   0.034 -0.0427 -0.2841 -0.0410
  127ACOH    O1 9912   3.160   1.141  -0.054 -0.2571  0.0176  0.4812
  127ACOH    C1 9913   2.964   1.059   0.062  0.0072  0.0298  0.1709
  127ACOH    H1 9914   2.871   1.112   0.044  0.3697  0.7447  0.3622
  127ACOH    H2 9915   2.971   1.026   0.166 -1.9271  1.3005  0.7315
  127ACOH    H3 9916   2.975   0.977  -0.008 -1.4805 -0.6937  0.7558
  128ACOH    H4 9917   2.617   8.642   2.094  2.6091  1.5184  0.7602
  128ACOH    O2 9918   2.560   8.716   2.117 -0.1285 -0.2492 -0.1100
  128ACOH    C2 9919   2.465   8.744   2.030 -0.2356  0.6804 -1.0804
  128ACOH    O1 9920   2.421   8.686   1.934  0.5708  0.1783  0.5031
  128ACOH    C1 9921   2.418   8.886   2.057 -0.2156  0.5564  0.4714
  128ACOH    H1 9922   2.502   8.947   2.024  1.3363 -0.3292  2.6949
  128ACOH    H2 9923   2.386   8.912   2.158  0.2123  2.6560  0.0890
  128ACOH    H3 9924   2.332   8.900   1.991  1.3848  0.0242 -1.7654
  129ACOH    H4 9925   4.279   1.175   0.725  1.3247 -0.5285 -0.1199
  129ACOH    O2 9926   4.330   1.245   0.683 -0.0271  0.3727 -0.2984
  129ACOH    C2 9927   4.247   1.328   0.614  0.2231 -0.5314 -0.1635
  129ACOH    O1 9928   4.133   1.356   0.651 -0.3402 -0.2455 -0.1176
  129ACOH    C1 9929   4.313   1.381   0.490  0.5179  0.1495  0.5407
  129ACOH    H1 9930   4.386   1.304   0.468  1.4830  0.1555  3.5001
  129ACOH    H2 9931   4.367   1.475   0.498 -1.0967  0.9277  2.9186
  129ACOH    H3 9932   4.237   1.393   0.413  0.0859 -0.4398  0.8644
  130ACOH    H4 9933   2.819   0.236   0.819 -0.4098 -1.2525 -1.3916
  130ACOH    O2 9934   2.775   0.316   0.786  0.7680  0.0128 -0.0059
  130ACOH    C2 9935   2.786   0.406   0.888  0.2544 -0.0047  0.1809
  130ACOH    O1 9936   2.872   0.406   0.978 -0.3401  0.3699 -0.5046
  130ACOH    C1 9937   2.698   0.521   0.893 -0.3575  0.0359  0.7902
  130ACOH    H1 9938   2.701   0.566   0.992 -0.1721  1.1424  0.2933
  130ACOH    H2 9939   2.600   0.476   0.877  0.5524 -1.8029  0.2397
  130ACOH    H3 9940   2.720   0.599   0.820  0.1488  0.4172  1.3559
  131ACOH    H4 9941   2.810   9.840   0.182  0.1020 -1.1069  1.7072
  131ACOH    O2 9942   2.716   9.821   0.166 -0.0811  1.0550 -0.0807
  131ACOH    C2 9943   2.649   9.923   0.233  0.5559  0.1198 -0.1431
  131ACOH    O1 9944   2.695   9.992   0.325 -0.2439 -0.1040  0.0466
  131ACOH    C1 9945   2.508   9.901   0.206 -0.2024  0.3227 -0.3742
  131ACOH    H1 9946   2.486   9.803   0.164 -2.2244  0.5392  0.1382
  131ACOH    H2 9947   2.466   9.984   0.149 -0.9276  0.5251  0.4518
  131ACOH    H3 9948   2.464   9.904   0.305  3.0175 -0.0214  1.1253
  132ACOH    H4 9949   4.935   0.090   0.731 -3.3097 -0.7652  0.6919
  132ACOH    O2 9950   4.910   0.123   0.643  0.1640  0.1885  0.0052
  132ACOH    C2 9951   4.832   0.023   0.595  0.0066  0.4261 -0.1760
  132ACOH    O1 9952   4.775  -0.060   0.665 -0.7480  0.4138 -0.0984
  132ACOH    C1 9953   4.830   0.040   0.446  0.6701  0.7422 -0.2297
  132ACOH    H1 9954   4.849  -0.058   0.404 -0.5872  0.3698  0.0570
  132ACOH    H2 9955   4.909   0.106   0.408  0.1252  1.6819  0.2559
  132ACOH    H3 9956   4.732   0.078   0.418  0.1609 -0.4557 -0.0913
  133ACOH    H4 9957   3.589  -0.016   2.513 -1.5027  0.7896 -0.4236
  133ACOH    O2 9958   3.609  -0.009   2.418 -0.2886  0.1414 -0.2259
  133ACOH    C2 9959   3.619   0.119   2.372 -0.8352  0.2896  0.3545
  133ACOH    O1 9960   3.613   0.209   2.451  0.1985  0.6292 -0.7564
  133ACOH    C1 9961   3.602   0.129   2.230  0.1906 -0.8746  0.1121
  133ACOH    H1 9962   3.694   0.146   2.175  0.2976  1.9636  1.0903
  133ACOH    H2 9963   3.539   0.213   2.201  1.1538 -0.1732  0.0628
  133ACOH    H3 9964   3.552   0.038   2.195  1.2278 -1.5748  0.4301
  134ACOH    H4 9965   4.446   9.550   0.574 -0.1069 -0.0085  1.6973
  134ACOH    O2 9966   4.511   9.478   0.576 -0.2423 -0.1734  0.2521
  134ACOH    C2 9967   4.592   9.495   0.687 -1.0139 -0.3947  0.6426
  134ACOH    O1 9968   4.581   9.558   0.791 -0.5291 -0.3241  0.4203
  134ACOH    C1 9969   4.722   9.423   0.656  0.2642  0.0663  0.1566
  134ACOH    H1 9970   4.766   9.481   0.575 -1.8153 -1.1448 -1.8939
  134ACOH    H2 9971   4.715   9.320   0.624 -0.1546 -0.4103  1.7116
  134ACOH    H3 9972   4.790   9.434   0.741 -0.6850 -0.4541  1.0002
  135SOL     OW 9973   3.029   0.617   0.444  0.0545 -0.2212 -0.0490
  135SOL    HW1 9974   3.074   0.671   0.372  1.7132 -0.5115  0.7426
  135SOL    HW2 9975   2.978   0.678   0.504 -0.2368  0.1710 -0.6891
  136SOL     OW 9976   3.394   1.116   1.822  0.0321  0.0443  0.0171
  136SOL    HW1 9977   3.411   1.146   1.728  0.1752  1.0688  0.3619
  136SOL    HW2 9978   3.445   1.174   1.885 -0.3737 -0.3895  0.7505
  137SOL     OW 9979   2.869   9.799   1.274 -0.6430 -0.0343  0.5727
  137SOL    HW1 9980   2.819   9.721   1.236  1.0962 -1.2077  0.6539
  137SOL    HW2 9981   2.933   9.834   1.205 -0.8794  0.8514  0.7977
  138SOL     OW 9982   2.942   8.177   1.213  0.7814 -0.1774 -0.0277
  138SOL    HW1 9983   3.033   8.179   1.254  1.0208  2.3488 -0.5720
  138SOL    HW2 9984   2.875   8.208   1.281  0.5289 -0.6683 -0.0564
  139SOL     OW 9985   3.593   8.354   1.641 -0.4800 -0.0946 -0.1903
  139SOL    HW1 9986   3.560   8.340   1.547 -1.6954  2.5284 -0.2124
  139SOL    HW2 9987   3.549   8.436   1.679  2.7066  0.9220  1.4124
  140SOL     OW 9988   3.658   1.376   1.084  0.3372 -0.1229 -0.2817
  140SOL    HW1 9989   3.695   1.371   1.177 -0.1871  1.1284 -0.0006
  140SOL    HW2 9990   3.559   1.362   1.088  0.6338 -2.8147 -0.9576
  141SOL     OW 9991   3.265   9.454   1.054 -0.1422 -0.0096  0.0117
  141SOL    HW1 9992   3.313   9.506   0.983 -0.2748  1.0838  0.6987
  141SOL    HW2 9993   3.170   9.485   1.060 -0.1345 -0.0926  0.6534
  142SOL     OW 9994   3.198   9.740   0.885  0.1701  0.3780 -0.3136
  142SOL    HW1 9995   3.162   9.725   0.792  1.4444 -1.5665 -0.5086
  142SOL    HW2 9996   3.291   9.703   0.891 -0.0493  0.1452  1.8608
  143SOL     OW 9997   3.865   0.721   0.413 -0.2900 -0.0212 -0.2763
  143SOL    HW1 9998   3.947   0.716   0.356 -0.0534  2.0788 -0.1556
  143SOL    HW2 9999   3.791   0.670   0.370  1.2597 -2.5921 -0.0226
  144SOL     OW10000   2.928   0.214   2.576 -0.5612  0.1713 -0.0223
  144SOL    HW110001   2.830   0.223   2.559 -0.5682 -0.9441 -0.6289
  144SOL    HW210002   2.945   0.216   2.675 -0.8874  3.2032  0.0131
  145SOL     OW10003   2.996   0.437   2.445 -0.1474  0.2613 -0.2782
  145SOL    HW110004   3.000   0.345   2.484  2.3533  0.6434  0.4299
  145SOL    HW210005   3.001   0.505   2.519  2.6848  0.9815 -1.0843
  146SOL     OW10006   3.325   0.231   1.487 -0.6362  0.8331  0.6047
  146SOL    HW110007   3.388   0.307   1.470 -1.4353  1.8631  2.1507
  146SOL    HW210008   3.240   0.248   1.438 -0.4446  0.4241  0.1268
  147SOL     OW10009   3.119   0.980   2.194  0.5787 -0.3578 -0.8956
  147SOL    HW110010   3.041   0.928   2.159 -0.0956  0.5556 -0.7958
  147SOL    HW210011   3.121   0.975   2.294  0.2094  0.2109 -0.8546
  148SOL     OW10012   3.294   9.950   1.230  0.6809  0.3775 -0.0422
  148SOL    HW110013   3.272   9.983   1.139  0.1229  2.4697  0.8202
  148SOL    HW210014   3.383   9.985   1.258 -0.4221  2.2372  1.3357
  149SOL     OW10015   3.395   0.991   2.130 -0.3571  0.5336 -0.4777
  149SOL    HW110016   3.296   0.979   2.141 -0.3956 -0.4648 -1.7335
  149SOL    HW210017   3.416   1.089   2.127 -1.0329  0.7790  1.9617
  150SOL     OW10018   3.235   0.928   0.591 -0.3338  0.4270 -0.3570
  150SOL    HW110019   3.260   0.905   0.497 -1.2706  0.8731 -0.7145
  150SOL    HW210020   3.256   1.025   0.608  1.1481 -0.0031  0.3318
  151SOL     OW10021   3.003   0.824   1.836  0.1409 -0.2113  0.4506
  151SOL    HW110022   3.101   0.842   1.830  0.1278  0.1137  1.1470
  151SOL    HW210023   2.968   0.798   1.746  0.6030  1.0506 -0.1072
  152SOL     OW10024   3.735   0.060   0.498 -0.8851  0.4575  0.3172
  152SOL    HW110025   3.759   0.156   0.500 -0.9732  0.5416 -1.6731
  152SOL    HW210026   3.715   0.028   0.591 -0.8768  2.3489  0.9784
  153SOL     OW10027   4.625   0.106   1.464 -0.2181  0.0589  0.0446
  153SOL    HW110028   4.604   0.077   1.558 -0.5522  0.6887  0.1640
  153SOL    HW210029   4.656   0.027   1.412  1.3444 -0.0269  1.0793
  154SOL     OW10030   3.947   9.358   1.273  0.4281  0.4143  0.0256
  154SOL    HW110031   3.967   9.456   1.278  0.5211  0.3876  0.1764
  154SOL    HW210032   3.899   9.339   1.187  1.5188  0.4060 -0.5882
  155SOL     OW10033   3.765   1.059   1.527  0.0206  0.7547 -0.0738
  155SOL    HW110034   3.834   1.064   1.454  2.1151  0.0796  1.8016
  155SOL    HW210035   3.784   0.980   1.585 -1.3795  1.5047  1.4313
  156SOL     OW10036   3.467   9.632   2.670  0.0265  0.2492  0.6751
  156SOL    HW110037   3.494   9.578   2.590  1.3711 -0.3360  1.5035
  156SOL    HW210038   3.468   9.574   2.751 -1.9326  0.6919  1.0298
  157SOL     OW10039   3.794   9.724   0.586  0.5253 -0.1776  0.0785
  157SOL    HW110040   3.721   9.685   0.531  0.3755 -1.7308  1.3128
  157SOL    HW210041   3.763   9.809   0.628  0.2546  0.4105 -1.3096
  158SOL     OW10042   3.031   9.861   1.060 -0.0328 -0.4560  0.5569
  158SOL    HW110043   3.100   9.824   0.998 -0.2237  0.7563 -0.3859
  158SOL    HW210044   3.053   9.956   1.083 -0.5012 -0.5750  1.5553
  159SOL     OW10045   3.042   0.649   2.639 -0.3597 -0.2267 -0.2402
  159SOL    HW110046   2.951   0.674   2.672  0.1842 -0.1597  1.2829
  159SOL    HW210047   3.090   0.732   2.608 -0.6777 -0.2104 -0.6945
  160SOL     OW10048   3.764   9.279   2.438 -0.0410  0.5207  0.0530
  160SOL    HW110049   3.780   9.207   2.506 -1.1577  0.4942  0.3092
  160SOL    HW210050   3.776   9.368   2.480  1.8791  0.4819 -0.4054
  161SOL     OW10051   3.240   0.752   0.786 -0.7516 -0.2893 -0.2587
  161SOL    HW110052   3.227   0.828   0.722  1.1048  1.3670  1.2909
  161SOL    HW210053   3.331   0.713   0.773  0.1553  0.9067  2.2225
  162SOL     OW10054   3.746   9.854   2.035 -0.0645  0.1914 -0.2951
  162SOL    HW110055   3.655   9.813   2.044  0.7627 -1.3830  1.1182
  162SOL    HW210056   3.786   9.830   1.947 -0.6444  0.1505 -0.5488
  163SOL     OW10057   4.576   0.272   0.490 -0.7815  0.1561  0.3211
  163SOL    HW110058   4.672   0.292   0.469 -0.1186 -1.1878  1.9332
  163SOL    HW210059   4.517   0.328   0.432  0.9669  0.6573 -1.0353
  164SOL     OW10060   3.301   9.785   1.460 -0.3210 -0.1370  0.4475
  164SOL    HW110061   3.327   9.849   1.388  1.1642 -0.0829  1.0154
  164SOL    HW210062   3.201   9.773   1.461 -0.6190  2.2492  0.4239
  165SOL     OW10063   3.454   9.571   0.869 -0.5565 -0.1759 -0.3806
  165SOL    HW110064   3.532   9.607   0.920 -1.3803  0.1861  0.6361
  165SOL    HW210065   3.481   9.555   0.774 -0.0054  2.5705 -0.7264
  166SOL     OW10066   3.646   0.715   1.179 -0.0837  0.5118 -0.2074
  166SOL    HW110067   3.686   0.807   1.175 -1.2478  1.0267 -0.2445
  166SOL    HW210068   3.625   0.693   1.274 -1.0328  0.8260 -0.3414
  167SOL     OW10069   3.013   0.397   2.159 -0.0512 -0.3703  0.0887
  167SOL    HW110070   2.987   0.425   2.252  3.0124 -0.0183  0.8713
  167SOL    HW210071   3.040   0.478   2.107 -0.4158 -0.7477 -0.6911
  168SOL     OW10072   3.919   8.795   2.463 -0.0932  0.2052 -0.2989
  168SOL    HW110073   3.918   8.792   2.563 -1.4552  0.5722 -0.2998
  168SOL    HW210074   3.897   8.705   2.427  0.8298 -0.0335 -0.2712
  169SOL     OW10075   3.078   0.038   1.878  0.1705 -0.0493  0.0737
  169SOL    HW110076   3.084  -0.061   1.864 -0.2486 -0.2149  1.0589
  169SOL    HW210077   3.154   0.082   1.830  0.5875 -0.8807 -0.0519
  170SOL     OW10078   3.041   0.138   1.379  0.5721  0.1467 -0.3219
  170SOL    HW110079   3.116   0.080   1.411  0.3542 -0.7743 -1.4353
  170SOL    HW210080   2.965   0.134   1.444  0.2888 -1.3772 -0.7313
  171SOL     OW10081   3.281   1.393   0.111 -0.0286  0.6184  0.6422
  171SOL    HW110082   3.319   1.411   0.020  3.0273  0.6476  1.9015
  171SOL    HW210083   3.327   1.449   0.179 -1.1427 -0.6117  2.4619
  172SOL     OW10084   3.026   0.127   1.095  0.1474  0.4503 -0.4420
  172SOL    HW110085   3.097   0.195   1.078  0.2155  0.8711  1.3824
  172SOL    HW210086   3.004   0.126   1.193  0.4602 -2.4737 -0.3615
  173SOL     OW10087   2.431   9.142   0.757  0.0156 -0.1898  0.6915
  173SOL    HW110088   2.365   9.213   0.779 -0.4335 -0.9226  1.7198
  173SOL    HW210089   2.448   9.142   0.658  2.1118  3.1715  0.9532
  174SOL     OW10090   3.052   1.274   2.085 -0.1134 -0.1235 -0.4076
  174SOL    HW110091   3.126   1.338   2.065  0.2537 -0.9073 -1.6072
  174SOL    HW210092   3.073   1.185   2.045 -1.3349 -0.5703 -0.0784
  175SOL     OW10093   2.930   9.308   0.938  0.3912 -0.0651  0.2920
  175SOL    HW110094   2.962   9.388   0.887  0.1211  0.2923  0.6850
  175SOL    HW210095   2.849   9.270   0.892 -0.3247  0.7236  0.8817
  176SOL     OW10096   3.394   9.573   1.275 -0.2649  0.1627 -0.3550
  176SOL    HW110097   3.329   9.638   1.314 -0.1710 -0.3351  0.6350
  176SOL    HW210098   3.344   9.504   1.223 -0.4212  0.5773 -0.7632
  177SOL     OW10099   3.295   9.137   1.424 -0.0680  0.3359  0.5686
  177SOL    HW110100   3.324   9.192   1.345 -2.0786 -0.4015 -0.7220
  177SOL    HW210101   3.373   9.082   1.456  0.8034  0.7235 -0.8284
  178SOL     OW10102   2.990   9.533   0.801  0.7591 -0.4440  0.1352
  178SOL    HW110103   3.047   9.593   0.745 -0.8515 -0.2739 -1.3480
  178SOL    HW210104   3.001   9.558   0.898  1.3190  1.2044 -0.3388
  179SOL     OW10105   3.728   1.213   0.859 -0.0917 -0.2511 -0.1909
  179SOL    HW110106   3.750   1.267   0.777 -0.0191 -0.2639 -0.1802
  179SOL    HW210107   3.704   1.275   0.934 -0.9527 -0.2708 -0.4528
  180SOL     OW10108   3.708   8.816   0.139 -0.5853  0.2202 -0.4249
  180SOL    HW110109   3.647   8.886   0.176  0.5674  0.2411  1.5081
  180SOL    HW210110   3.660   8.728   0.136 -0.8669  0.3344  0.6165
  181SOL     OW10111   3.153  -0.002   2.147 -0.3871  0.2884  0.0572
  181SOL    HW110112   3.151   0.095   2.173  2.0145  0.7049 -1.1740
  181SOL    HW210113   3.111  -0.012   2.056 -2.2874 -0.1264  0.9499
  182SOL     OW10114   3.368   9.127   2.568 -0.2200 -0.2498  0.1156
  182SOL    HW110115   3.301   9.053   2.571  1.1095 -1.5363 -0.8747
  182SOL    HW210116   3.381   9.156   2.473 -0.7040  1.2591  0.4884
  183SOL     OW10117   3.514   9.715   1.639 -0.5031  1.1336  0.1609
  183SOL    HW110118   3.465   9.736   1.554 -0.3413 -1.5464 -0.6668
  183SOL    HW210119   3.582   9.644   1.620 -0.0171  0.9844  2.4097
  184SOL     OW10120   3.202   0.864   2.591 -0.0975 -0.0534 -0.3238
  184SOL    HW110121   3.188   0.962   2.600  0.0658 -0.1336  0.9131
  184SOL    HW210122   3.269   0.846   2.519  1.0334  0.8285  0.4966
  185SOL     OW10123   2.746   8.895   1.933 -0.0540  0.1248  0.2099
  185SOL    HW110124   2.709   8.978   1.891  1.2827  0.7506  0.2414
  185SOL    HW210125   2.755   8.909   2.031  0.3701  0.0220  0.1857
  186SOL     OW10126   3.147   0.389   0.299  1.0927 -0.3564 -0.4315
  186SOL    HW110127   3.105   0.456   0.361  2.5453 -0.0890  0.2849
  186SOL    HW210128   3.171   0.433   0.213  3.0097  0.3251  0.4271
  187SOL     OW10129   3.551   1.580   0.795 -0.3292 -0.0354  0.1807
  187SOL    HW110130   3.492   1.628   0.861 -0.8885  0.7881 -0.8997
  187SOL    HW210131   3.641   1.566   0.836 -0.4052  1.2182  0.8340
  188SOL     OW10132   2.709   9.174   0.774 -0.2588  0.0820  0.5361
  188SOL    HW110133   2.719   9.139   0.681 -0.9728 -0.0029  0.4828
  188SOL    HW210134   2.612   9.172   0.799 -0.1378  0.6730  1.0588
  189SOL     OW10135   3.514   9.752   2.125  0.3911 -0.1879 -0.6836
  189SOL    HW110136   3.479   9.782   2.036  2.4754  0.7125 -1.2414
  189SOL    HW210137   3.448   9.775   2.197 -0.4411  0.8546 -1.7652
  190SOL     OW10138   4.483   0.457   0.324 -0.5156  1.4726  0.0844
  190SOL    HW110139   4.408   0.428   0.264 -0.8266 -1.3312  1.7255
  190SOL    HW210140   4.454   0.537   0.376 -2.0445  1.0196 -0.0225
  191SOL     OW10141   3.639   0.942   2.647  0.7029  0.1146  0.0196
  191SOL    HW110142   3.638   0.846   2.621  0.1258  0.2510 -0.4635
  191SOL    HW210143   3.648   0.950   2.746  3.0968 -0.4151 -0.1294
  192SOL     OW10144   3.633   9.542   1.396 -0.0598 -0.0287  0.3589
  192SOL    HW110145   3.548   9.557   1.346 -1.7171  1.8488  3.5782
  192SOL    HW210146   3.634   9.451   1.435 -0.6018 -0.0282  0.3705
  193SOL     OW10147   3.936   8.547   0.024 -0.3455 -0.3525  0.5515
  193SOL    HW110148   3.924   8.505  -0.066 -1.1304  0.3944  0.2936
  193SOL    HW210149   3.928   8.647   0.015  1.3276 -0.1481  1.1723
  194SOL     OW10150   3.103   9.005   1.584 -0.2464  0.6263  0.0431
  194SOL    HW110151   3.118   9.058   1.668  0.5615 -0.0248  0.3217
  194SOL    HW210152   3.150   9.050   1.508 -1.2769  1.4097 -0.1395
  195SOL     OW10153   2.924   0.371   1.299  0.3755  0.8861  0.1908
  195SOL    HW110154   2.909   0.395   1.203 -0.2010  0.6074  0.2073
  195SOL    HW210155   2.977   0.287   1.304 -1.3466 -0.2274  0.0902
  196SOL     OW10156   2.355   8.783   0.395 -0.7373 -0.3186  0.4949
  196SOL    HW110157   2.346   8.694   0.440  0.1853  0.3069  1.9732
  196SOL    HW210158   2.269   8.833   0.401 -1.3546 -1.2493 -0.6297
  197SOL     OW10159   3.505   8.601   1.739  0.4229  0.1236  0.3076
  197SOL    HW110160   3.406   8.617   1.745  0.5481  0.4082  2.0005
  197SOL    HW210161   3.554   8.684   1.764  1.0961 -0.0949 -0.2674
  198SOL     OW10162   3.848   0.858   1.690 -0.3044  0.5435 -0.4804
  198SOL    HW110163   3.899   0.773   1.679 -1.1454  0.1316 -1.2466
  198SOL    HW210164   3.793   0.853   1.774 -0.3972  0.3088 -0.5545
  199SOL     OW10165   3.710   0.376   0.837 -0.0759 -0.4402  0.0257
  199SOL    HW110166   3.783   0.445   0.839 -0.0189 -0.5369  2.3847
  199SOL    HW210167   3.635   0.406   0.896 -0.4536 -1.9727  0.3258
  200SOL     OW10168   3.783   1.360   1.335  0.1293 -0.2000 -0.1069
  200SOL    HW110169   3.727   1.340   1.415  0.1563  0.6254  0.1289
  200SOL    HW210170   3.857   1.293   1.327 -1.4279 -1.8528 -0.9483
  201SOL     OW10171   2.519   9.414   0.590  0.6717 -0.4465  0.1272
  201SOL    HW110172   2.613   9.441   0.609  0.6978 -0.0150 -0.5796
  201SOL    HW210173   2.462   9.432   0.670  0.8784  0.8181 -0.0099
  202SOL     OW10174   2.967   0.298   1.915 -0.2566 -0.3017  0.0436
  202SOL    HW110175   3.011   0.214   1.883  0.3236  0.0331 -0.0436
  202SOL    HW210176   2.987   0.311   2.012  0.4557  0.2361 -0.1711
  203SOL     OW10177   4.277   9.957   2.323 -0.1759  0.3170  0.5958
  203SOL    HW110178   4.290   9.925   2.417 -1.4405 -0.2569  0.5804
  203SOL    HW210179   4.261  10.056   2.325 -3.1513 -0.1090  1.2989
  204SOL     OW10180   3.708   1.308   1.598  0.3586 -0.1177 -0.5282
  204SOL    HW110181   3.734   1.216   1.568 -1.2226 -0.2917 -1.3814
  204SOL    HW210182   3.744   1.323   1.690  3.7563 -0.2201 -1.7658
  205SOL     OW10183   4.083   8.800   1.995  0.0573  0.2030  0.0417
  205SOL    HW110184   4.167   8.838   1.956  1.8463 -2.5447  1.0500
  205SOL    HW210185   4.068   8.839   2.086  0.8929 -0.1478  0.3368
  206SOL     OW10186   4.050   9.353   2.077  0.5569 -0.1706  0.1583
  206SOL    HW110187   3.977   9.291   2.108 -0.3837  1.3276  1.0128
  206SOL    HW210188   4.042   9.365   1.978  0.2649 -0.8016  0.0972
  207SOL     OW10189   3.103   0.789   0.255 -0.0765 -0.8530  0.0468
  207SOL    HW110190   3.203   0.787   0.254 -0.0247  0.8235  0.2216
  207SOL    HW210191   3.068   0.746   0.172  0.7646 -2.1820  0.3670
  208SOL     OW10192   3.034   8.699   2.607  0.6151  0.1023 -0.3210
  208SOL    HW110193   2.965   8.757   2.650  1.1131  1.3512 -1.1983
  208SOL    HW210194   3.038   8.611   2.656 -1.3186  0.1499 -0.0367
  209SOL     OW10195   3.674   8.685   2.255  0.2294  0.0966 -0.5358
  209SOL    HW110196   3.592   8.629   2.244  0.7260 -0.6189 -0.6322
  209SOL    HW210197   3.733   8.675   2.175  0.4572  0.5324 -0.4272
  210SOL     OW10198   3.031   9.573   1.096 -0.0251  0.3015  0.0027
  210SOL    HW110199   2.948   9.528   1.128  0.8895 -1.4446 -0.0536
  210SOL    HW210200   3.023   9.672   1.113 -2.5737  0.3259 -1.0588
  211SOL     OW10201   2.959   0.447   1.696  0.3596 -0.0108 -0.0137
  211SOL    HW110202   2.876   0.426   1.643 -0.3652 -0.0963  1.1388
  211SOL    HW210203   2.955   0.401   1.784  1.0254  1.0637  0.5872
  212SOL     OW10204   2.968   0.845   0.642  0.5651 -0.7426  0.1027
  212SOL    HW110205   2.935   0.833   0.736 -0.1337  0.2838 -0.0097
  212SOL    HW210206   3.052   0.900   0.643  0.3189 -0.3683  0.0863
  213SOL     OW10207   3.146   9.432   2.670  0.1009 -0.5937  0.2865
  213SOL    HW110208   3.126   9.334   2.668 -1.8934 -0.2435  1.8987
  213SOL    HW210209   3.241   9.446   2.696  1.3130 -2.1603 -2.9747
  214SOL     OW10210   4.280   0.297   0.908 -0.5401 -0.1674 -0.9110
  214SOL    HW110211   4.234   0.219   0.865 -1.0617 -0.2582 -0.1838
  214SOL    HW210212   4.345   0.336   0.843  0.4707 -1.8347 -0.9318
  215SOL     OW10213   2.321   9.613   1.541 -0.6447  0.0331  0.5360
  215SOL    HW110214   2.276   9.637   1.455 -0.0696 -0.6441  0.0384
  215SOL    HW210215   2.419   9.635   1.535 -0.2448 -1.7477  0.3264
  216SOL     OW10216   3.376   0.837   2.369  0.7916  0.0514 -0.6178
  216SOL    HW110217   3.393   0.890   2.286  3.1501 -1.0197 -0.8366
  216SOL    HW210218   3.440   0.760   2.374 -1.1774 -1.5511  0.7832
  217SOL     OW10219   2.302   9.158   1.718 -0.8762 -0.6486  0.6144
  217SOL    HW110220   2.363   9.170   1.797  1.2765  0.3177 -1.1391
  217SOL    HW210221   2.282   9.247   1.678 -0.8652 -1.2414 -0.7270
  218SOL     OW10222   2.551   8.595   1.040 -0.0469 -0.1014 -0.3142
  218SOL    HW110223   2.595   8.683   1.059 -0.7291  0.4768 -1.2973
  218SOL    HW210224   2.513   8.557   1.124 -0.6768  1.0810 -0.0479
  219SOL     OW10225   2.628   9.086   1.550 -0.2025  0.6689  0.1468
  219SOL    HW110226   2.545   9.042   1.514 -1.0934  0.6894  2.1302
  219SOL    HW210227   2.698   9.016   1.564 -0.7759  0.2301  0.9127
  220SOL     OW10228   3.154   1.052   0.925 -0.0676  0.3696  0.3780
  220SOL    HW110229   3.177   1.146   0.899  3.3144 -1.5728 -4.4234
  220SOL    HW210230   3.224   1.017   0.988  2.4756 -0.9080 -2.9973
  221SOL     OW10231   4.003   0.737   0.644 -0.2800  0.3104  0.0545
  221SOL    HW110232   3.952   0.736   0.558 -0.4538  1.1934  0.1425
  221SOL    HW210233   4.093   0.776   0.628 -0.1989  0.1898  0.2171
  222SOL     OW10234   3.266   9.667   1.985 -0.0327 -0.3662 -1.0766
  222SOL    HW110235   3.334   9.613   1.936  0.6578 -0.2384 -0.2694
  222SOL    HW210236   3.263   9.639   2.081 -0.9216 -0.1787 -1.0394
  223SOL     OW10237   3.937   9.832   0.377 -0.4526 -0.4266  0.2100
  223SOL    HW110238   3.905   9.776   0.301  1.7065 -2.1260  0.4931
  223SOL    HW210239   3.878   9.819   0.456 -1.3626 -0.4212 -0.4585
  224SOL     OW10240   3.874   0.187   1.947  0.0533 -0.1482  0.0614
  224SOL    HW110241   3.837   0.097   1.922  0.1490  0.1653 -1.2668
  224SOL    HW210242   3.809   0.258   1.920  0.7782  0.2902 -0.5703
  225SOL     OW10243   2.389   8.957   1.499 -0.0282 -0.2496  0.4479
  225SOL    HW110244   2.336   9.008   1.566  2.5964  1.9416  0.9822
  225SOL    HW210245   2.426   8.874   1.540 -0.6555 -0.2978  0.9091
  226SOL     OW10246   2.378   8.685   0.813  0.5633  0.2671  0.5639
  226SOL    HW110247   2.394   8.782   0.831  0.6938  0.4156 -0.3277
  226SOL    HW210248   2.435   8.630   0.874  1.6962  0.7706 -0.0248
  227SOL     OW10249   3.655   9.295   1.517  0.3214  0.0438 -0.5762
  227SOL    HW110250   3.726   9.226   1.531  0.0395  0.0886  1.2089
  227SOL    HW210251   3.630   9.335   1.605 -0.2578  1.6936 -1.4691
  228SOL     OW10252   3.792   1.236   2.701  0.2075 -0.3912 -0.3224
  228SOL    HW110253   3.774   1.170   2.628 -0.8035  0.3972 -0.7980
  228SOL    HW210254   3.823   1.188   2.783 -3.0843 -1.7492  0.2038
  229SOL     OW10255   2.476   9.249   2.643 -0.0946  0.0244 -0.1016
  229SOL    HW110256   2.513   9.331   2.597  0.0655  0.1477  0.2452
  229SOL    HW210257   2.510   9.246   2.737 -1.2135  0.2982  0.3093
  230SOL     OW10258   4.555   0.032   0.821  0.4635 -0.6207 -0.4103
  230SOL    HW110259   4.614  -0.031   0.770  0.3766 -1.2070  0.2109
  230SOL    HW210260   4.563   0.123   0.781  2.4425 -0.5046  0.1841
  231SOL     OW10261   3.271   0.274   2.232 -0.0366 -0.0700  0.7428
  231SOL    HW110262   3.185   0.321   2.214  1.0083  1.9156  0.7093
  231SOL    HW210263   3.340   0.305   2.167  0.7296 -1.5833  0.8061
  232SOL     OW10264   3.140   0.559   0.953 -0.5769  0.2866  0.2553
  232SOL    HW110265   3.153   0.616   0.871 -0.7823 -1.2244 -0.8393
  232SOL    HW210266   3.048   0.520   0.953 -0.2929 -0.3889  0.7792
  233SOL     OW10267   2.750   0.138   2.042 -0.1620  0.3176  0.3128
  233SOL    HW110268   2.828   0.189   2.005 -1.5407  1.3423 -1.2539
  233SOL    HW210269   2.703   0.194   2.110 -0.5255  0.3687  0.0212
  234SOL     OW10270   3.098   8.084   1.008 -0.4741 -0.0447 -0.2309
  234SOL    HW110271   3.025   8.123   1.064 -1.2393 -1.8942  0.1160
  234SOL    HW210272   3.149   8.017   1.063  0.6214  0.2453 -0.8812
  235SOL     OW10273   3.636   0.271   1.294  0.3380 -0.0281 -0.1220
  235SOL    HW110274   3.705   0.318   1.239  0.4829 -0.1023 -0.0053
  235SOL    HW210275   3.573   0.338   1.334  0.7814  0.0981  0.3677
  236SOL     OW10276   2.294   9.450   0.812  0.2645  0.8920 -0.6383
  236SOL    HW110277   2.338   9.466   0.901 -0.6185 -0.4363  0.0609
  236SOL    HW210278   2.260   9.536   0.776 -0.1066  1.3330  0.7227
  237SOL     OW10279   4.157   8.227   0.888  0.0661 -0.0591  0.0221
  237SOL    HW110280   4.223   8.291   0.850  2.8393 -2.3193  0.8306
  237SOL    HW210281   4.096   8.275   0.950  1.0885  2.0524 -0.5511
  238SOL     OW10282   3.268   1.296   0.852 -0.3674 -0.5019  0.9696
  238SOL    HW110283   3.340   1.247   0.803 -1.1616  0.0352 -0.7784
  238SOL    HW210284   3.206   1.340   0.786 -1.0741  0.8126  2.4646
  239SOL     OW10285   2.979   8.414   1.482 -0.0435 -0.2664 -0.4033
  239SOL    HW110286   3.020   8.444   1.396 -1.0106  0.8157 -0.4940
  239SOL    HW210287   2.998   8.481   1.554 -2.0835  0.5214 -0.5695
  240SOL     OW10288   3.832   1.341   0.652  0.2036 -0.0100 -0.2795
  240SOL    HW110289   3.791   1.432   0.648 -0.4894 -0.3555 -1.1217
  240SOL    HW210290   3.930   1.347   0.632  0.0069  0.4493 -1.1109
  241SOL     OW10291   3.678   0.364   1.922 -0.0333  0.0809 -0.0566
  241SOL    HW110292   3.645   0.458   1.934  0.1434  0.1071  0.2114
  241SOL    HW210293   3.599   0.302   1.918 -0.1331  0.1904  0.1856
  242SOL     OW10294   3.221   8.643   1.772 -0.3719  0.1886  0.6576
  242SOL    HW110295   3.256   8.706   1.702  0.0637 -1.9969 -1.1512
  242SOL    HW210296   3.131   8.610   1.745  0.2905 -1.5703  0.5334
  243SOL     OW10297   3.834   8.680   2.050 -0.2168 -0.1032  0.2454
  243SOL    HW110298   3.774   8.661   1.973  0.1813  0.5479 -0.2294
  243SOL    HW210299   3.926   8.700   2.017 -0.0552  0.2321  0.8833
  244SOL     OW10300   4.173   9.596   1.748 -0.3181  0.1577 -0.7728
  244SOL    HW110301   4.256   9.650   1.763 -0.3915  0.5021 -1.5549
  244SOL    HW210302   4.144   9.606   1.653 -0.7084 -0.7390 -0.7561
  245SOL     OW10303   2.328   8.558   0.564  0.2236  0.1502  0.1705
  245SOL    HW110304   2.316   8.585   0.659  1.1473 -1.1575  0.6723
  245SOL    HW210305   2.414   8.507   0.554  0.9925  1.7795 -1.6996
  246SOL     OW10306   2.941   0.857   0.931  1.0393  0.3003  0.4392
  246SOL    HW110307   2.972   0.952   0.928  1.3050  0.1920 -0.2755
  246SOL    HW210308   3.020   0.796   0.935  0.8626  0.1508  2.6219
  247SOL     OW10309   3.646   9.588   0.383  0.3232  0.2496 -0.0899
  247SOL    HW110310   3.662   9.648   0.304  2.0634 -0.2838 -0.1541
  247SOL    HW210311   3.682   9.497   0.363 -1.7178 -0.6552  0.2642
  248SOL     OW10312   4.012   0.949   0.122 -0.1207  0.3991 -0.0520
  248SOL    HW110313   3.982   1.026   0.178 -1.2530  0.4632 -0.7386
  248SOL    HW210314   4.009   0.975   0.025  0.7376 -0.0811 -0.2077
  249SOL     OW10315   3.148   8.961   2.504 -0.1706 -0.5583 -0.3652
  249SOL    HW110316   3.094   8.954   2.420  0.0999 -0.0577 -0.5822
  249SOL    HW210317   3.137   8.877   2.558 -1.1464 -0.4613 -0.4115
  250SOL     OW10318   3.793   1.591   0.922 -0.2480 -0.2324 -0.2318
  250SOL    HW110319   3.756   1.525   0.988  1.3697 -1.5429 -0.6095
  250SOL    HW210320   3.881   1.625   0.955  0.7449 -1.1696 -1.8702
  251SOL     OW10321   4.107   0.702   0.229 -0.3163 -0.0521 -0.1595
  251SOL    HW110322   4.160   0.654   0.159  0.2985 -0.3612  0.5034
  251SOL    HW210323   4.085   0.794   0.197  0.5118  0.0310 -0.5105
  252SOL     OW10324   3.106   9.726   0.623 -0.4384 -0.7659  0.3073
  252SOL    HW110325   3.068   9.814   0.594 -0.5028 -0.1563  2.1539
  252SOL    HW210326   3.129   9.671   0.542  1.6257  1.7800 -0.9355
  253SOL     OW10327   3.174   1.324   2.331 -0.2596 -0.0567 -0.0819
  253SOL    HW110328   3.129   1.288   2.249 -0.1613 -0.8154  0.1929
  253SOL    HW210329   3.106   1.358   2.395 -0.3123  0.9878 -0.6869
  254SOL     OW10330   2.884   9.460   1.450 -0.5886 -0.0813  0.4572
  254SOL    HW110331   2.905   9.548   1.494 -0.1492 -1.2582  2.6674
  254SOL    HW210332   2.821   9.408   1.507 -2.1945 -0.5116 -1.6720
  255SOL     OW10333   2.733   8.537   2.054 -0.3933  0.5909 -0.1136
  255SOL    HW110334   2.803   8.590   2.005  0.3352  0.5528  0.8853
  255SOL    HW210335   2.705   8.459   1.998  1.8960 -0.6053  0.3612
  256SOL     OW10336   4.269   9.826   2.099  0.1493  0.1228  0.1030
  256SOL    HW110337   4.274   9.878   2.184  0.5225 -1.1885  0.9026
  256SOL    HW210338   4.220   9.741   2.115 -1.5093  0.7491 -1.4631
  257SOL     OW10339   3.302   0.855   1.795  0.0650  0.0748 -0.5785
  257SOL    HW110340   3.312   0.852   1.695  0.7694 -0.7725 -0.4833
  257SOL    HW210341   3.304   0.950   1.825  1.6367  0.2517 -1.1988
  258SOL     OW10342   2.206   9.389   1.614 -0.1170  0.5608  0.3838
  258SOL    HW110343   2.226   9.486   1.600  0.1812  0.5378  0.6384
  258SOL    HW210344   2.108   9.373   1.605 -0.1100  0.8044 -0.1335
  259SOL     OW10345   2.579   9.610   1.542  0.2103  0.1935  0.2258
  259SOL    HW110346   2.593   9.519   1.581 -0.7258  0.1961  0.5749
  259SOL    HW210347   2.653   9.670   1.572  0.4810 -0.2764  0.5195
  260SOL     OW10348   3.449   1.236   1.581 -0.9982 -0.0318  0.0994
  260SOL    HW110349   3.540   1.274   1.599 -2.2212  2.6445  1.0323
  260SOL    HW210350   3.455   1.167   1.509  1.7395  0.1650  0.0744
  261SOL     OW10351   4.271   0.605   0.475  0.0699  0.1298 -0.5324
  261SOL    HW110352   4.245   0.628   0.381 -0.2767  0.1604 -0.4322
  261SOL    HW210353   4.247   0.510   0.495 -1.3298  0.5749  0.0212
  262SOL     OW10354   3.239   0.725   1.148 -0.4700  0.4290 -0.2918
  262SOL    HW110355   3.183   0.658   1.100  0.7339 -0.3098 -0.6980
  262SOL    HW210356   3.272   0.794   1.084  0.8401 -0.3523 -0.4632
  263SOL     OW10357   4.128   9.982   1.699  0.0938 -0.6074  0.0262
  263SOL    HW110358   4.196   9.931   1.751 -0.8169  0.5569  2.4121
  263SOL    HW210359   4.157  10.077   1.690 -0.5566 -0.4182 -0.1378
  264SOL     OW10360   4.218   0.689   1.142  0.3551  0.5105  0.6250
  264SOL    HW110361   4.289   0.698   1.071  0.1655  1.4495  0.5477
  264SOL    HW210362   4.172   0.600   1.132  0.2986  0.6539 -0.4600
  265SOL     OW10363   3.495   9.473   0.619  0.3835 -0.0879  0.2050
  265SOL    HW110364   3.445   9.390   0.597  1.4040 -0.4938 -0.6469
  265SOL    HW210365   3.514   9.524   0.534  2.4324 -0.5446  0.3683
  266SOL     OW10366   2.986   8.469   0.017  0.3329  0.5866  0.4848
  266SOL    HW110367   2.962   8.495   0.111 -0.9411  1.9126 -0.1990
  266SOL    HW210368   2.933   8.389  -0.010 -0.1357  0.8987  0.4863
  267SOL     OW10369   4.521   0.344   0.747 -0.5524 -0.2399 -0.2233
  267SOL    HW110370   4.540   0.304   0.657 -2.7321 -0.7820 -0.4591
  267SOL    HW210371   4.608   0.367   0.792  0.5770 -0.5132 -2.2006
  268SOL     OW10372   2.929   0.808   2.077 -0.4024  0.2658  0.2162
  268SOL    HW110373   2.958   0.714   2.096 -0.7018  0.2742  0.7152
  268SOL    HW210374   2.942   0.828   1.980 -1.7897 -0.8080 -0.2044
  269SOL     OW10375   3.791   9.048   2.582 -0.6221  0.3618 -0.3842
  269SOL    HW110376   3.848   8.989   2.524  0.5181 -0.3272  1.4003
  269SOL    HW210377   3.701   9.006   2.595 -0.1492 -0.5165  0.0747
  270SOL     OW10378   2.760   0.370   1.532 -0.1477 -0.0476  0.7292
  270SOL    HW110379   2.831   0.399   1.466 -0.2073  0.6386  0.9586
  270SOL    HW210380   2.671   0.370   1.487 -0.1549  0.1949  0.7399
  271SOL     OW10381   3.391   1.172   0.645 -0.0968 -0.0310 -0.3270
  271SOL    HW110382   3.480   1.125   0.646 -0.7731 -1.3682 -1.2159
  271SOL    HW210383   3.385   1.230   0.564 -0.3266 -0.5285 -0.6682
  272SOL     OW10384   2.395   8.499   1.727  0.0201 -0.7297  0.2923
  272SOL    HW110385   2.394   8.581   1.784 -0.5927 -0.2853 -0.3482
  272SOL    HW210386   2.307   8.452   1.736 -0.9473  0.5459 -1.9833
  10.00000  10.00000   2.71263
