chitosan Film  in water:acetic acid 2%
38571
    1CHTO  H203    1   5.387   6.122   3.615  0.3982  1.1168 -0.8507
    1CHTO   O82    2   5.382   6.099   3.524  0.2894 -0.2235 -0.5080
    1CHTO  C123    3   5.508   6.045   3.481  0.3482 -0.0376  0.3526
    1CHTO  H227    4   5.586   6.098   3.538  0.6137 -0.8101  0.7198
    1CHTO   O77    5   5.511   5.903   3.521 -0.3725  0.2292  0.5806
    1CHTO  C118    6   5.634   5.829   3.492  0.1874 -0.7341 -0.2370
    1CHTO  H222    7   5.720   5.882   3.536  0.9293 -2.0426 -0.0775
    1CHTO  C125    8   5.630   5.678   3.552 -0.4972 -0.1546  0.2476
    1CHTO   O84    9   5.688   5.671   3.684 -0.1608  0.6092 -0.1977
    1CHTO  H205   10   5.643   5.721   3.750 -3.1466 -1.6462 -0.4271
    1CHTO  C114   11   5.666   5.831   3.339  0.1470  0.5347  0.0457
    1CHTO  H218   12   5.579   5.781   3.295 -0.6116  1.4289  0.5146
    1CHTO  C116   13   5.667   5.975   3.282  0.0596  0.1181 -0.0283
    1CHTO  H220   14   5.762   6.015   3.325  0.2855  0.5827 -0.9484
    1CHTO   O79   15   5.677   5.970   3.141  0.0556  0.6967  0.0189
    1CHTO  H201   16   5.596   5.969   3.094  0.5619  2.0475 -0.9232
    1CHTO  C120   17   5.542   6.065   3.328 -0.3895  0.1889 -0.4132
    1CHTO  H224   18   5.452   6.034   3.270 -0.6627 -2.5676  1.3917
    1CHTO   N21   19   5.572   6.209   3.300 -0.2206  0.5714 -0.2022
    1CHTO  H211   20   5.486   6.257   3.255 -0.6710 -0.1814 -0.1592
    1CHTO  H212   21   5.657   6.231   3.238 -0.4050  0.2568 -0.5671
    1CHTO   O75   22   5.796   5.764   3.333  0.8921  0.2218 -0.2024
    1CHTO  C112   23   5.819   5.689   3.193 -0.1433 -0.4867  0.1505
    1CHTO  H216   24   5.765   5.743   3.114 -1.9531  0.4366  1.9940
    1CHTO   O73   25   5.767   5.561   3.211  0.4660 -0.5890 -0.2181
    1CHTO  C113   26   5.780   5.466   3.106 -0.4792 -0.5069  0.3942
    1CHTO  H217   27   5.739   5.505   3.010 -1.4544  1.1170  1.4530
    1CHTO  C124   28   5.711   5.334   3.145  0.4154  0.3945  0.0799
    1CHTO   O83   29   5.767   5.283   3.267 -0.1924  0.3581  0.0435
    1CHTO  H204   30   5.737   5.342   3.334 -0.9606  0.4071 -0.3403
    1CHTO  C109   31   5.926   5.442   3.068 -0.3749 -0.1508  0.4078
    1CHTO  H213   32   5.979   5.396   3.153  1.0550  0.0248 -0.3657
    1CHTO  C110   33   5.994   5.580   3.031 -0.5525  0.8759  0.2503
    1CHTO  H214   34   5.958   5.614   2.934  0.7415  2.6782  0.3842
    1CHTO   O78   35   6.133   5.556   3.025  0.0773  0.6075  0.3377
    1CHTO  H200   36   6.169   5.527   3.107  1.9439 -0.0252 -0.6633
    1CHTO  C111   37   5.968   5.680   3.149  0.7819 -0.0788 -0.3729
    1CHTO  H215   38   6.019   5.644   3.239 -1.2156 -0.6502  0.5668
    1CHTO   N19   39   6.021   5.818   3.126  0.5752 -0.0567  0.1619
    1CHTO  H207   40   5.977   5.865   3.039  1.1959  0.3679  0.0733
    1CHTO  H208   41   5.995   5.871   3.216  1.5855 -0.0085  0.4352
    1CHTO   O74   42   5.944   5.351   2.957  0.7083 -0.1046  0.2544
    1CHTO  C115   43   6.027   5.216   2.993 -0.2892  0.3392 -0.0394
    1CHTO  H219   44   6.094   5.236   3.077 -3.4238 -0.9465  2.9066
    1CHTO   O76   45   5.932   5.102   3.047  0.1570 -0.2496  0.2720
    1CHTO  C122   46   5.847   5.051   2.948  0.0810 -0.1999 -0.6157
    1CHTO  H226   47   5.803   5.134   2.892  0.4321 -0.1633 -0.8431
    1CHTO  C126   48   5.725   4.967   3.003 -0.1536  0.1014  0.1480
    1CHTO   O85   49   5.766   4.850   3.073  0.7735  0.0992  0.0420
    1CHTO  H206   50   5.808   4.785   3.020 -2.8988 -3.1655  0.8641
    1CHTO  C121   51   5.932   4.972   2.838 -0.3006 -0.2172 -0.0642
    1CHTO  H225   52   5.920   4.862   2.835 -0.8511 -0.1553 -0.1872
    1CHTO   O81   53   5.892   5.001   2.707  0.1808  0.6223 -0.4020
    1CHTO  H202   54   5.809   4.964   2.684 -0.3754  0.8342  1.1823
    1CHTO  C119   55   6.079   5.014   2.845 -0.3801 -0.0949  0.1415
    1CHTO  H223   56   6.125   4.959   2.927  1.3029  0.8041 -0.1617
    1CHTO  C117   57   6.107   5.170   2.870  0.0678 -0.4553  0.5172
    1CHTO  H221   58   6.074   5.243   2.796  1.5232  1.2819  1.5613
    1CHTO   N20   59   6.254   5.194   2.887  0.1142  0.2583  0.5783
    1CHTO  H209   60   6.282   5.297   2.899  0.8710  0.0172  0.8652
    1CHTO  H210   61   6.307   5.150   2.804  2.6229  0.2662  2.1309
    1CHTO   O80   62   6.170   4.956   2.699 -0.0643 -0.2411 -0.4245
    1CHTO  C103   63   6.194   4.809   2.677  0.0468  0.0484 -0.1262
    1CHTO  H190   64   6.191   4.755   2.772 -0.6783 -0.7036 -0.5798
    1CHTO  C101   65   6.108   4.741   2.576  0.1909  0.1126  0.4574
    1CHTO  H188   66   6.105   4.803   2.486 -0.8091 -0.3561  0.1624
    1CHTO   O68   67   5.960   4.715   2.626  0.1395 -0.0430  0.0945
    1CHTO  H168   68   5.962   4.758   2.709 -0.3553  0.5565 -0.2014
    1CHTO   C99   69   6.173   4.611   2.514  1.3205 -0.4442 -0.0934
    1CHTO  H186   70   6.177   4.534   2.594 -0.5847 -0.4129  0.0546
    1CHTO   N17   71   6.096   4.551   2.397 -0.5125 -0.0209 -0.8819
    1CHTO  H174   72   5.996   4.516   2.418  0.0480 -1.2665 -0.2469
    1CHTO  H175   73   6.155   4.464   2.369 -1.0080 -0.5185 -0.4066
    1CHTO   C97   74   6.320   4.636   2.468 -0.7256 -1.1904  0.4686
    1CHTO  H184   75   6.326   4.714   2.391  2.2779 -1.6452  0.1930
    1CHTO   O64   76   6.381   4.672   2.590 -0.3326 -0.7440  0.1632
    1CHTO  C104   77   6.345   4.807   2.634 -0.2176  0.0505 -0.0465
    1CHTO  H191   78   6.362   4.883   2.557  0.4133  2.2122  2.1457
    1CHTO  C108   79   6.432   4.851   2.748  0.1106 -0.1604  0.8867
    1CHTO   O71   80   6.569   4.846   2.721  0.2239  0.5067  0.0073
    1CHTO  H171   81   6.601   4.760   2.743 -0.2038  0.6838  1.3738
    1CHTO   O62   82   6.397   4.522   2.431  0.2757  0.1365  0.5663
    1CHTO   C91   83   6.534   4.540   2.391 -0.6233  0.2571 -0.1824
    1CHTO  H178   84   6.558   4.642   2.420 -1.6268  0.7515 -1.0882
    1CHTO   C92   85   6.532   4.566   2.233  0.2162  0.1906 -0.2091
    1CHTO  H179   86   6.441   4.616   2.197  0.2212  1.5788  1.6824
    1CHTO   O66   87   6.643   4.649   2.193 -0.5914 -0.3483  0.1994
    1CHTO  H166   88   6.630   4.734   2.232 -0.5637  0.1946 -0.9624
    1CHTO   C93   89   6.546   4.430   2.152 -0.5203  0.0677  0.1187
    1CHTO  H180   90   6.566   4.453   2.046  1.3280 -1.1291  0.1746
    1CHTO   N16   91   6.418   4.360   2.154 -0.1073 -0.1984  0.2132
    1CHTO  H172   92   6.361   4.389   2.241  0.1300  0.8082  0.0324
    1CHTO  H173   93   6.364   4.383   2.063 -0.4962  0.9878  0.7419
    1CHTO   C94   94   6.665   4.341   2.207  0.0569  0.1133 -0.1199
    1CHTO  H181   95   6.631   4.242   2.239  0.5336 -0.5079 -1.4960
    1CHTO   O61   96   6.724   4.406   2.321  0.9586  0.0198 -0.1316
    1CHTO   C95   97   6.638   4.439   2.432 -0.2093  0.0790 -0.3816
    1CHTO  H182   98   6.588   4.351   2.471 -2.0766  0.5867 -1.5883
    1CHTO  C106   99   6.728   4.501   2.550  0.1735  0.3217 -0.0361
    1CHTO   O69  100   6.643   4.502   2.673  0.0053  0.2639 -0.0016
    1CHTO  H169  101   6.691   4.528   2.750  0.5379 -0.4322 -0.0842
    1CHTO   O63  102   6.777   4.327   2.110  0.1240  0.0413  0.2427
    1CHTO   C96  103   6.877   4.199   2.140 -0.9122 -0.3908  0.0230
    1CHTO  H183  104   6.821   4.116   2.184  0.0083 -1.9598 -1.6923
    1CHTO   C98  105   6.997   4.229   2.232  0.1522 -0.0133 -0.0126
    1CHTO  H185  106   6.970   4.266   2.332  1.6609 -0.7464  0.6742
    1CHTO   O67  107   7.064   4.104   2.255 -0.1258  0.0866 -0.1780
    1CHTO  H167  108   7.058   4.042   2.185  0.7892 -1.0909  0.7520
    1CHTO  C102  109   7.107   4.328   2.166 -0.1836  0.2656  0.1273
    1CHTO  H189  110   7.202   4.296   2.212 -0.6435 -3.0499 -1.0780
    1CHTO   N18  111   7.095   4.473   2.196 -0.3553  0.0567 -0.0549
    1CHTO  H176  112   7.191   4.518   2.181  0.1821 -1.1961 -0.4535
    1CHTO  H177  113   7.025   4.523   2.130 -2.4437 -0.1378  1.9225
    1CHTO  C105  114   7.121   4.301   2.014  0.4728  0.0596 -0.1596
    1CHTO  H192  115   7.057   4.371   1.960  0.0772 -0.6789 -0.6579
    1CHTO   O65  116   7.070   4.170   1.982 -0.4761 -0.2118  0.3628
    1CHTO  C100  117   6.926   4.150   1.997 -0.1007 -0.0052 -0.8058
    1CHTO  H187  118   6.875   4.208   1.918 -0.8373  0.5115  0.0350
    1CHTO  C107  119   6.896   4.000   1.981 -0.1864  0.2185  0.6851
    1CHTO   O70  120   6.754   3.960   1.975 -0.3356 -0.5315  0.0150
    1CHTO  H170  121   6.704   4.008   2.039 -0.2428 -1.6531  0.9352
    1CHTO   O57  122   7.263   4.330   1.970  0.4155  0.0114  0.1591
    1CHTO   C85  123   7.375   4.234   1.970 -0.2078 -0.6581  0.3808
    1CHTO  H157  124   7.407   4.252   1.866 -1.4137  0.4165  0.1825
    1CHTO   C83  125   7.343   4.083   1.976  0.5026 -0.4094  0.1993
    1CHTO  H155  126   7.265   4.046   1.909  0.3246  1.2978 -0.5589
    1CHTO   O56  127   7.294   4.065   2.111 -0.5872  0.8755  0.1399
    1CHTO  H135  128   7.358   4.018   2.160  1.2380  0.5253 -2.4799
    1CHTO   C81  129   7.477   4.003   1.950 -0.3680 -0.2614 -0.4850
    1CHTO  H153  130   7.509   4.034   1.851 -2.1867  0.0218 -1.0011
    1CHTO   N14  131   7.463   3.859   1.947  0.3710  0.0374 -0.7870
    1CHTO  H141  132   7.541   3.814   1.888 -0.4154 -1.3754 -0.7791
    1CHTO  H142  133   7.466   3.812   2.044  1.0225 -0.1445 -0.8898
    1CHTO   C79  134   7.587   4.048   2.050  0.1533 -0.3620  0.1358
    1CHTO  H151  135   7.681   4.003   2.020  0.2392  1.2365 -2.0879
    1CHTO   O52  136   7.616   4.189   2.038  0.0674  0.2539 -0.2930
    1CHTO   C86  137   7.487   4.269   2.072 -0.4479 -0.3840 -0.2007
    1CHTO  H158  138   7.460   4.247   2.177 -1.3421  2.7306  0.2614
    1CHTO   C90  139   7.532   4.412   2.076  0.4937  0.1972  0.7619
    1CHTO   O60  140   7.613   4.432   2.192 -0.0899 -0.0583 -0.2739
    1CHTO  H138  141   7.654   4.517   2.188 -3.7120  1.8789  1.1325
    1CHTO   O50  142   7.566   4.012   2.189  0.0804  0.1023 -0.5566
    1CHTO   C73  143   7.608   3.968   2.321  0.0716 -0.4468 -0.1358
    1CHTO  H145  144   7.677   3.882   2.317 -1.2783 -1.5486 -0.0826
    1CHTO   C74  145   7.497   3.914   2.420 -0.5825  0.2019 -0.4690
    1CHTO  H146  146   7.446   3.833   2.365  0.4210 -0.0037 -1.1278
    1CHTO   O54  147   7.565   3.847   2.533  0.3078 -0.0171  0.5065
    1CHTO  H133  148   7.499   3.823   2.596  0.9410 -0.9675  0.8182
    1CHTO   C75  149   7.398   4.032   2.454 -0.1494  0.0334 -0.7181
    1CHTO  H147  150   7.351   4.069   2.361  1.0642  0.8758 -1.0116
    1CHTO   N13  151   7.287   3.995   2.540  0.3339  0.2569  0.1082
    1CHTO  H139  152   7.220   3.924   2.493 -0.0438  0.0476  0.9509
    1CHTO  H140  153   7.334   3.949   2.626 -0.1218  0.3824  0.4311
    1CHTO   C76  154   7.482   4.163   2.511 -0.7536 -0.6591 -0.1163
    1CHTO  H148  155   7.524   4.134   2.608  0.8623  0.1982 -0.5494
    1CHTO   O49  156   7.591   4.194   2.423 -0.4997 -0.5294 -0.1117
    1CHTO   C77  157   7.681   4.087   2.394 -0.3575  0.2376 -0.1291
    1CHTO  H149  158   7.722   4.052   2.489 -0.2857 -0.1310 -0.2957
    1CHTO   C88  159   7.805   4.133   2.315  0.0862  0.0402  0.4988
    1CHTO   O58  160   7.889   4.249   2.354 -0.4661  0.0665  0.3155
    1CHTO  H136  161   7.954   4.261   2.288  0.2670 -0.2004  0.9817
    1CHTO   O51  162   7.380   4.296   2.512 -0.2127  0.5686 -0.0994
    1CHTO   C78  163   7.392   4.409   2.640  0.2724 -0.0486 -0.2341
    1CHTO  H150  164   7.497   4.439   2.661  0.4855 -1.4639  0.8034
    1CHTO   C80  165   7.342   4.347   2.775 -0.1890 -0.3828 -0.1813
    1CHTO  H152  166   7.239   4.308   2.763 -1.3505  2.6457 -0.3517
    1CHTO   O55  167   7.419   4.227   2.797 -0.0123  0.3785 -0.7086
    1CHTO  H134  168   7.390   4.183   2.874  0.9395 -1.7779 -1.5527
    1CHTO   C84  169   7.337   4.452   2.890 -0.0363  0.0383  0.7250
    1CHTO  H156  170   7.437   4.494   2.905  0.1460 -0.4554  0.8773
    1CHTO   N15  171   7.284   4.391   3.017  0.5337  0.2997  0.4309
    1CHTO  H143  172   7.277   4.468   3.091 -0.9342 -0.6529  1.3105
    1CHTO  H144  173   7.342   4.309   3.055 -1.4493 -1.6233 -0.5583
    1CHTO   C87  174   7.240   4.565   2.844  0.9257  0.2356  0.1808
    1CHTO  H159  175   7.145   4.515   2.827  1.3531 -0.9317  1.1959
    1CHTO   O53  176   7.284   4.621   2.711 -0.1700 -0.0301 -0.4975
    1CHTO   C82  177   7.305   4.533   2.601  0.7517  0.2373 -0.0593
    1CHTO  H154  178   7.209   4.500   2.561  0.8746 -1.5169  1.0620
    1CHTO   C89  179   7.375   4.615   2.484 -0.4474  0.0230 -0.7328
    1CHTO   O59  180   7.308   4.728   2.441 -0.1753 -0.4303  0.5046
    1CHTO  H137  181   7.222   4.705   2.411  0.4529 -1.9377 -0.2596
    1CHTO   O45  182   7.239   4.701   2.961  0.1381 -0.0938 -0.4296
    1CHTO   C67  183   7.103   4.748   2.983 -0.7853 -0.2237 -0.4642
    1CHTO  H124  184   7.037   4.669   2.945  1.5000 -2.6415  0.3993
    1CHTO   C65  185   7.074   4.781   3.135  0.2999  0.4684  0.3743
    1CHTO  H122  186   7.109   4.691   3.184 -0.0407 -0.0087 -0.2535
    1CHTO   O44  187   6.939   4.798   3.164 -0.5644 -0.2342  0.0353
    1CHTO  H102  188   6.891   4.724   3.132 -0.0290 -0.7668  0.4648
    1CHTO   C63  189   7.178   4.895   3.178  0.1784 -0.0499  0.4360
    1CHTO  H120  190   7.277   4.854   3.160  0.0678  0.0016 -0.3086
    1CHTO   N11  191   7.183   4.934   3.322 -1.1636  0.1634  0.1210
    1CHTO  H108  192   7.252   4.870   3.374 -0.4265  1.1590  0.3940
    1CHTO  H109  193   7.091   4.917   3.375 -1.8643  1.7691 -0.5496
    1CHTO   C61  194   7.146   5.027   3.095  0.1517  0.1095 -0.4788
    1CHTO  H118  195   7.231   5.096   3.104  1.0281 -0.9328 -0.6314
    1CHTO   O40  196   7.138   5.002   2.953 -0.2871  0.4482  0.1568
    1CHTO   C68  197   7.071   4.881   2.897  0.1977 -0.1491  0.3030
    1CHTO  H125  198   7.111   4.864   2.795 -0.9019 -0.1854 -0.1248
    1CHTO   C72  199   6.917   4.914   2.884 -0.2081 -0.2067 -0.2497
    1CHTO   O48  200   6.865   5.023   2.807 -0.0816 -0.6512 -0.1742
    1CHTO  H105  201   6.773   5.025   2.827 -0.1561 -1.9024 -0.3633
    1CHTO   O38  202   7.022   5.094   3.137 -0.0207 -0.0932  0.0610
    1CHTO   C55  203   7.023   5.238   3.154 -0.0441 -0.5193  0.5767
    1CHTO  H112  204   7.085   5.281   3.074 -1.9770 -0.1974 -0.8097
    1CHTO   C56  205   7.069   5.291   3.307  0.5474  0.7126  0.8756
    1CHTO  H113  206   7.006   5.236   3.378 -0.9864  1.6679  0.2721
    1CHTO   O42  207   7.203   5.255   3.332  0.0689  0.1651  0.0212
    1CHTO  H100  208   7.208   5.210   3.414  1.3815  1.1521  0.5028
    1CHTO   C57  209   7.049   5.449   3.334 -0.0934  0.3849  1.1291
    1CHTO  H114  210   7.135   5.493   3.283  0.7816 -1.6670  0.7816
    1CHTO   N10  211   7.058   5.495   3.476  0.0317  0.3130 -0.2671
    1CHTO  H106  212   7.155   5.533   3.507 -0.2661 -0.2836  1.4562
    1CHTO  H107  213   6.980   5.561   3.511  0.7735  0.1182  1.7953
    1CHTO   C58  214   6.915   5.495   3.269 -0.0368 -0.6710 -0.2841
    1CHTO  H115  215   6.831   5.462   3.333  2.0386 -1.9768  1.8561
    1CHTO   O37  216   6.882   5.446   3.136  0.1477  0.1278 -0.4183
    1CHTO   C59  217   6.878   5.300   3.128  0.0982  0.3693 -0.5728
    1CHTO  H116  218   6.810   5.255   3.201 -0.3050  0.3275 -0.9691
    1CHTO   C70  219   6.820   5.262   2.991 -0.4613  0.2331 -0.1155
    1CHTO   O46  220   6.686   5.314   2.965 -0.1736  0.4176  0.0339
    1CHTO  H103  221   6.614   5.253   2.960 -1.2711  1.4722  2.3823
    1CHTO   O39  222   6.906   5.670   3.256  0.6944  0.2931  0.3260
    1CHTO   C60  223   6.781   5.726   3.241  0.2123 -0.3588 -0.1995
    1CHTO  H117  224   6.710   5.650   3.209  0.4620 -1.1740  1.1418
    1CHTO   C62  225   6.735   5.797   3.373 -0.0935  0.0001  0.1933
    1CHTO  H119  226   6.697   5.715   3.438  0.1058 -0.1942  0.0617
    1CHTO   O43  227   6.854   5.868   3.426 -0.1820  0.4470  0.2382
    1CHTO  H101  228   6.905   5.815   3.484 -0.3040 -0.2530 -0.2995
    1CHTO   C66  229   6.609   5.890   3.353 -0.2532 -0.2864  0.2078
    1CHTO  H123  230   6.524   5.830   3.322 -0.4079 -0.7746  1.5459
    1CHTO   N12  231   6.551   5.940   3.483  0.6485 -0.1963 -0.2167
    1CHTO  H110  232   6.572   6.044   3.504  2.2494 -0.3197 -1.1354
    1CHTO  H111  233   6.450   5.904   3.498  0.6299  0.2158  0.6264
    1CHTO   C69  234   6.649   5.998   3.246 -0.6618  0.6592 -0.0450
    1CHTO  H126  235   6.745   6.052   3.261  0.9792 -1.6926 -1.6371
    1CHTO   O41  236   6.677   5.912   3.107 -0.5206 -0.8295  0.3117
    1CHTO   C64  237   6.804   5.824   3.115  0.3207 -0.0888  0.0240
    1CHTO  H121  238   6.890   5.894   3.122  0.5274 -0.1604 -1.6181
    1CHTO   C71  239   6.816   5.746   2.981 -0.1637  0.4825  0.5114
    1CHTO   O47  240   6.826   5.842   2.871  0.3582  0.2365 -0.0784
    1CHTO  H104  241   6.899   5.894   2.896 -1.2306  2.2272  0.5899
    1CHTO   O34  242   6.530   6.101   3.220  0.1411  0.2139  0.0143
    1CHTO   C49  243   6.539   6.244   3.180  0.1941 -0.4077 -0.0206
    1CHTO   H91  244   6.569   6.315   3.257 -0.2856  0.1350 -0.3232
    1CHTO   C47  245   6.390   6.284   3.146  0.1096  0.1794 -0.4107
    1CHTO   H89  246   6.374   6.390   3.119  0.5552  0.2566 -0.3665
    1CHTO   O33  247   6.310   6.250   3.266 -0.3199 -0.3276  0.4347
    1CHTO   H70  248   6.325   6.326   3.318 -0.6324  1.6846 -2.2779
    1CHTO   C45  249   6.336   6.199   3.024  0.0718  0.0465  0.2822
    1CHTO   H87  250   6.342   6.092   3.047 -1.0898 -0.5808 -2.2047
    1CHTO    N8  251   6.192   6.228   2.995  0.2518 -0.2411  0.2361
    1CHTO   H75  252   6.156   6.301   3.065 -1.3671  1.0546 -1.8560
    1CHTO   H76  253   6.138   6.136   3.011  0.1938 -0.6519 -2.1342
    1CHTO   C43  254   6.430   6.221   2.898  0.1846 -0.1762 -0.3167
    1CHTO   H85  255   6.389   6.163   2.815  1.3923 -0.9202 -0.4108
    1CHTO   O29  256   6.564   6.189   2.926 -0.1152  0.4759 -0.1217
    1CHTO   C50  257   6.613   6.250   3.041  0.0627 -0.1109 -0.3045
    1CHTO   H92  258   6.707   6.197   3.064 -0.5729 -0.1491  2.3788
    1CHTO   C54  259   6.665   6.397   3.018  0.0834  0.1237 -0.2120
    1CHTO   O36  260   6.755   6.408   2.912 -0.1016  0.2815  0.3347
    1CHTO   H72  261   6.819   6.339   2.912  0.1393  0.4908 -1.2032
    1CHTO   O27  262   6.415   6.359   2.862  0.4055  0.5647  0.1168
    1CHTO   C37  263   6.394   6.419   2.736 -0.4057  0.3074 -0.5380
    1CHTO   H79  264   6.319   6.364   2.677  1.3027 -2.2389 -0.4752
    1CHTO   C38  265   6.364   6.568   2.772 -0.4181 -0.7437  0.4713
    1CHTO   H80  266   6.443   6.604   2.839 -0.5164  1.9650 -0.7834
    1CHTO   O31  267   6.234   6.553   2.839  0.6764  0.3039  0.6012
    1CHTO   H68  268   6.201   6.632   2.876 -0.5582  0.1870 -0.2603
    1CHTO   C39  269   6.356   6.664   2.650  0.3931 -0.8674  0.4702
    1CHTO   H81  270   6.269   6.635   2.590 -0.0379  1.1669  0.0684
    1CHTO    N7  271   6.341   6.806   2.698  0.0686  0.1480 -0.0343
    1CHTO   H73  272   6.382   6.875   2.625 -0.6882 -0.6264 -1.2260
    1CHTO   H74  273   6.391   6.822   2.792  1.2311  0.6131 -0.7146
    1CHTO   C40  274   6.486   6.645   2.561  0.1806  0.7061 -0.8188
    1CHTO   H82  275   6.571   6.685   2.618  0.0397 -1.8036  1.2233
    1CHTO   O26  276   6.509   6.510   2.525  0.3473 -0.0266 -0.2837
    1CHTO   C41  277   6.526   6.430   2.644 -0.2745 -0.5150  0.6370
    1CHTO   H83  278   6.609   6.467   2.706  1.2220 -1.5781 -0.7083
    1CHTO   C52  279   6.553   6.290   2.594  0.1861  0.7320  0.1978
    1CHTO   O35  280   6.677   6.268   2.544 -0.5158 -0.1502 -0.1768
    1CHTO   H71  281   6.678   6.293   2.454  0.5968 -1.7460 -0.6383
    1CHTO   O28  282   6.480   6.731   2.442 -0.1529 -0.2860 -0.1341
    1CHTO   C42  283   6.583   6.753   2.341 -0.0268  0.2554  0.1791
    1CHTO   H84  284   6.668   6.695   2.377  0.1292  1.7099  2.2698
    1CHTO   C44  285   6.632   6.904   2.332  0.4018 -0.1678  0.4889
    1CHTO   H86  286   6.547   6.968   2.310 -1.2688 -2.4001  0.2481
    1CHTO   O32  287   6.674   6.955   2.457  0.5135 -0.0127 -0.1056
    1CHTO   H69  288   6.679   7.048   2.444  0.2982  0.0225  0.0608
    1CHTO   C48  289   6.748   6.914   2.224  0.4985  0.1778 -0.5988
    1CHTO   H90  290   6.835   6.865   2.267  0.0292  0.8621  1.1618
    1CHTO    N9  291   6.783   7.050   2.199 -0.1030  0.1497 -0.0400
    1CHTO   H77  292   6.702   7.095   2.145 -0.1936 -0.0426 -0.0645
    1CHTO   H78  293   6.876   7.050   2.144 -0.3408  0.2242 -0.4411
    1CHTO   C51  294   6.717   6.832   2.089 -0.0099  0.2262  0.5679
    1CHTO   H93  295   6.665   6.892   2.014  2.3228 -1.1644 -2.2595
    1CHTO   O30  296   6.658   6.706   2.108  0.3396 -0.2073  0.0461
    1CHTO   C46  297   6.547   6.708   2.195 -0.4548 -0.6512  0.5009
    1CHTO   H88  298   6.482   6.784   2.152  0.2318 -1.2173 -1.5676
    1CHTO   C53  299   6.482   6.569   2.185 -0.1793  0.1203  0.4038
    1CHTO   O72  300   6.556   6.476   2.272  0.1964  0.7422  0.0074
    1CHTO  H199  301   6.504   6.444   2.344  1.2973 -1.3485 -0.0908
    1CHTO   O22  302   6.836   6.799   2.025 -0.1080 -0.7299 -0.0484
    1CHTO   C31  303   6.858   6.764   1.882  0.0990  0.1686 -0.5473
    1CHTO   H59  304   6.761   6.724   1.846 -0.0916 -0.1420  0.3127
    1CHTO   C29  305   6.897   6.879   1.786  0.0868 -0.0373 -0.7934
    1CHTO   H57  306   6.984   6.930   1.829  0.7102 -1.4538 -0.3384
    1CHTO   O21  307   6.788   6.969   1.799 -0.6793 -0.0959  0.1480
    1CHTO   H37  308   6.774   6.978   1.891  1.7113  1.1203  0.4384
    1CHTO   C27  309   6.931   6.823   1.642  0.2379 -0.4506 -0.3263
    1CHTO   H55  310   6.838   6.782   1.597 -1.0653  0.0126  1.8778
    1CHTO    N5  311   6.983   6.926   1.555  0.0659  0.3314 -0.2841
    1CHTO   H43  312   6.972   7.022   1.601  0.8617  0.8053 -1.0507
    1CHTO   H44  313   7.090   6.913   1.541 -0.1021 -0.6764 -0.6911
    1CHTO   C25  314   7.032   6.700   1.651  0.0477  0.0601  0.1133
    1CHTO   H53  315   7.129   6.729   1.695  0.4657 -0.7914 -0.2334
    1CHTO   O17  316   6.979   6.602   1.741  0.0851 -0.2468  0.6046
    1CHTO   C32  317   6.960   6.647   1.872 -0.7954 -0.1250 -0.1090
    1CHTO   H60  318   7.055   6.684   1.909 -2.3094  1.5699  2.2412
    1CHTO   C36  319   6.924   6.516   1.952  0.2034  0.4447 -0.5225
    1CHTO   O25  320   6.804   6.458   1.901  0.4825  0.1687  0.3387
    1CHTO   H40  321   6.734   6.510   1.935  1.0155  0.3791  1.1275
    1CHTO   O15  322   7.079   6.634   1.505  0.1456 -0.4829  0.1797
    1CHTO   C19  323   7.041   6.622   1.362 -0.1539 -0.0938 -0.4388
    1CHTO   H47  324   6.992   6.720   1.344  0.3639  0.1948 -0.2774
    1CHTO   C20  325   7.155   6.606   1.254  0.1877  0.9241 -0.3059
    1CHTO   H48  326   7.210   6.512   1.268  1.6905  1.8320  0.0110
    1CHTO   O19  327   7.248   6.711   1.289 -0.3794  0.3430 -0.0336
    1CHTO   H35  328   7.305   6.734   1.219  2.3852 -1.1925  1.6110
    1CHTO   C21  329   7.098   6.624   1.108 -0.2892  0.0595 -0.8698
    1CHTO   H49  330   7.056   6.723   1.092 -1.1228 -0.1565 -0.0714
    1CHTO    N4  331   7.203   6.608   1.001 -0.4022 -0.4751 -0.5137
    1CHTO   H41  332   7.165   6.572   0.907 -0.0405  0.9999 -1.2412
    1CHTO   H42  333   7.254   6.703   0.993  0.5681 -0.9632 -0.1224
    1CHTO   C22  334   6.987   6.516   1.088 -0.2909  0.1418 -0.1700
    1CHTO   H50  335   7.024   6.414   1.088  0.1111  0.2586  2.3626
    1CHTO   O14  336   6.891   6.516   1.200 -0.0867 -0.4461  0.3396
    1CHTO   C23  337   6.932   6.513   1.334  0.4323 -0.4195 -0.3130
    1CHTO   H51  338   6.966   6.411   1.357  1.3805 -0.2622 -1.0173
    1CHTO   C34  339   6.807   6.533   1.423  0.4739 -0.3367 -0.2082
    1CHTO   O23  340   6.730   6.415   1.426  0.3497  0.1014  0.5119
    1CHTO   H38  341   6.787   6.342   1.411  0.3128  0.1906 -0.0749
    1CHTO   O16  342   6.898   6.537   0.972 -0.0113 -0.2367  0.5291
    1CHTO   C24  343   6.863   6.393   0.882  0.7527  0.1931 -0.1035
    1CHTO   H52  344   6.911   6.306   0.928 -1.4849 -0.4387  1.1254
    1CHTO   C26  345   6.909   6.401   0.741 -1.0384 -0.5194 -0.2426
    1CHTO   H54  346   6.861   6.491   0.698 -2.2887 -1.1914 -0.2916
    1CHTO   O20  347   7.048   6.427   0.737 -0.5144  0.0576 -0.0201
    1CHTO   H36  348   7.063   6.517   0.762  0.5738 -0.0153 -0.3712
    1CHTO   C30  349   6.864   6.280   0.650  0.1643  0.2580 -0.5680
    1CHTO   H58  350   6.919   6.189   0.679 -0.4263 -0.3920 -1.4538
    1CHTO    N6  351   6.893   6.297   0.510  0.4634 -0.2790  0.2122
    1CHTO   H45  352   6.998   6.313   0.489 -0.2340  1.8840 -1.9289
    1CHTO   H46  353   6.839   6.386   0.480  0.7031  0.1429  1.0215
    1CHTO   C33  354   6.715   6.253   0.677  0.1555  1.3517  0.4702
    1CHTO   H61  355   6.652   6.333   0.636  0.5448  0.8125 -1.2048
    1CHTO   O18  356   6.698   6.237   0.819 -0.0166  0.5783 -0.4005
    1CHTO   C28  357   6.713   6.361   0.887  0.4560  0.3834 -0.0605
    1CHTO   H56  358   6.658   6.449   0.853  0.6204  0.3375 -0.4462
    1CHTO   C35  359   6.664   6.337   1.029 -0.2717 -0.3396  0.8078
    1CHTO   O24  360   6.621   6.458   1.097 -0.4253  0.1573  0.2106
    1CHTO   H39  361   6.694   6.516   1.099  0.4279 -0.8749 -0.2620
    1CHTO    O9  362   6.671   6.137   0.607 -0.3646  0.5405 -0.5458
    1CHTO   C13  363   6.523   6.148   0.559 -0.5602 -0.1213 -0.2186
    1CHTO   H26  364   6.518   6.246   0.508 -0.4656 -0.1163 -0.2188
    1CHTO   C11  365   6.429   6.141   0.690 -0.2086  0.1830 -0.4363
    1CHTO   H24  366   6.446   6.234   0.747  1.8979  0.0657 -0.8164
    1CHTO    O8  367   6.476   6.039   0.778 -0.1631  0.0320 -0.4238
    1CHTO    H3  368   6.561   6.058   0.812 -0.0336 -0.8427 -0.2511
    1CHTO    C9  369   6.280   6.123   0.645  0.3512 -0.1117  0.4032
    1CHTO   H22  370   6.266   6.183   0.554  0.1194 -1.8348 -0.7186
    1CHTO    N2  371   6.174   6.165   0.736 -0.4781  0.4176 -0.0458
    1CHTO   H10  372   6.183   6.118   0.833  0.2950 -0.1840 -0.4042
    1CHTO   H11  373   6.177   6.273   0.740 -2.2104  0.4734  0.2436
    1CHTO    C7  374   6.273   5.977   0.585 -0.1423  0.0719  0.2562
    1CHTO   H20  375   6.194   5.995   0.509  1.2960  2.0451 -0.8291
    1CHTO    O4  376   6.401   5.943   0.522  0.0892  0.6111 -0.2909
    1CHTO   C14  377   6.496   6.030   0.455 -0.3672 -0.0121 -0.5541
    1CHTO   H27  378   6.457   6.072   0.360  0.6228  0.8643 -0.5837
    1CHTO   C18  379   6.620   5.945   0.413  0.2037  0.4620  0.4265
    1CHTO   O13  380   6.704   6.006   0.317 -0.4425 -0.0038 -0.2993
    1CHTO    H7  381   6.732   6.093   0.335  0.4782 -0.3553 -0.0125
    1CHTO    O2  382   6.237   5.867   0.694  0.6997  0.1167  0.1006
    1CHTO    C1  383   6.205   5.742   0.632  0.2159  0.5034  0.2907
    1CHTO   H14  384   6.240   5.737   0.527 -0.1916  0.5645  0.1529
    1CHTO    C2  385   6.051   5.701   0.643  0.2367 -0.8047 -0.1429
    1CHTO   H15  386   6.016   5.696   0.747 -1.2872  0.0049 -0.5996
    1CHTO    O6  387   5.973   5.811   0.587  0.3957  0.1486  0.1509
    1CHTO    H1  388   5.891   5.779   0.556  0.6369 -0.6766  0.3433
    1CHTO    C3  389   6.030   5.561   0.572 -0.8400 -0.5845 -0.5756
    1CHTO   H16  390   6.045   5.580   0.464  0.4000  0.7382 -0.1965
    1CHTO    N1  391   5.890   5.520   0.604  0.4566  0.2719  0.3740
    1CHTO    H8  392   5.879   5.426   0.551 -0.1928  0.3932  0.2916
    1CHTO    H9  393   5.877   5.498   0.709  1.6769 -0.0852  0.4682
    1CHTO    C4  394   6.140   5.455   0.621 -0.2359  0.1443 -0.3538
    1CHTO   H17  395   6.114   5.417   0.720  0.2862  0.9251  0.0823
    1CHTO    O1  396   6.272   5.502   0.626  0.0484 -0.0541 -0.2764
    1CHTO    C5  397   6.288   5.625   0.703 -1.2840  0.4852 -0.4924
    1CHTO   H18  398   6.253   5.634   0.806  1.1873  1.4863  0.3033
    1CHTO   C16  399   6.443   5.657   0.707 -0.0368 -0.3264 -0.4020
    1CHTO   O11  400   6.507   5.570   0.801 -0.0942 -0.2053 -0.4199
    1CHTO    H5  401   6.598   5.574   0.777  0.1604  1.3820  0.6787
    1CHTO    O3  402   6.142   5.349   0.525 -0.2555  0.2696  0.2379
    1CHTO    C6  403   6.231   5.235   0.536 -0.7722  0.1444 -0.0282
    1CHTO   H19  404   6.333   5.271   0.526 -0.7641 -0.4079 -2.1563
    1CHTO    C8  405   6.225   5.164   0.674 -0.4960 -0.4177  0.5294
    1CHTO   H21  406   6.119   5.158   0.699 -0.9216  0.8910 -0.8234
    1CHTO    O7  407   6.285   5.255   0.765  0.1426 -0.2949  0.1396
    1CHTO    H2  408   6.334   5.324   0.725  0.5409 -0.9936 -0.5806
    1CHTO   C12  409   6.300   5.026   0.688 -0.4845 -1.0662 -0.1961
    1CHTO   H25  410   6.410   5.044   0.689 -0.2842 -2.2109 -0.4950
    1CHTO    N3  411   6.268   4.955   0.819  0.8614  0.3483 -0.2389
    1CHTO   H12  412   6.335   4.870   0.823  0.7378  0.2925  0.8266
    1CHTO   H13  413   6.165   4.927   0.831  0.8472  1.1238  1.6461
    1CHTO   C15  414   6.263   4.936   0.569 -0.0235 -0.3869  0.1011
    1CHTO   H28  415   6.160   4.900   0.576  0.2132 -1.0973 -0.0520
    1CHTO   O10  416   6.361   4.825   0.546 -0.4120  0.2294 -0.0603
    1CHTO    H4  417   6.363   4.762   0.616 -0.1068 -0.0315 -0.3030
    1CHTO    O5  418   6.277   5.009   0.446  0.8183 -0.4363  0.1653
    1CHTO   C10  419   6.204   5.131   0.426  0.2406 -0.1435 -0.3069
    1CHTO   H23  420   6.097   5.110   0.421  0.0362  0.5824  0.8298
    1CHTO   C17  421   6.240   5.197   0.294 -0.6539  0.8723  0.1190
    1CHTO   O12  422   6.213   5.105   0.191  0.0945  0.4771  0.5444
    1CHTO    H6  423   6.139   5.140   0.146 -0.8034 -0.4758  1.2510
    2CHTO  H203  424   5.419   3.349   0.003 -0.5012 -0.8894  0.1182
    2CHTO   O82  425   5.479   3.305  -0.055  0.0998 -0.5207  0.4503
    2CHTO  C123  426   5.466   3.373  -0.179 -0.1881  0.5114  0.3320
    2CHTO  H227  427   5.527   3.324  -0.257 -0.8414  1.4113 -0.7703
    2CHTO   O77  428   5.329   3.350  -0.218  0.0556 -0.0156  0.0345
    2CHTO  C118  429   5.298   3.392  -0.349 -0.1909  0.2260 -0.1006
    2CHTO  H222  430   5.369   3.341  -0.416  0.6735 -2.1085  2.4758
    2CHTO  C125  431   5.153   3.355  -0.391  0.3939  0.1597 -0.4058
    2CHTO   O84  432   5.052   3.393  -0.303 -0.0224  0.1371 -0.1577
    2CHTO  H205  433   5.014   3.469  -0.343 -1.8977 -1.3403 -1.2504
    2CHTO  C114  434   5.317   3.545  -0.362  0.0785  0.0867  0.4827
    2CHTO  H218  435   5.236   3.599  -0.314 -1.5778 -0.4177 -1.6656
    2CHTO  C116  436   5.453   3.600  -0.308  0.5528 -0.6710  0.3178
    2CHTO  H220  437   5.530   3.584  -0.386  0.6601  0.9935  0.0649
    2CHTO   O79  438   5.445   3.749  -0.302  0.1069 -0.0693 -0.4008
    2CHTO  H201  439   5.512   3.793  -0.351 -0.7219  1.4278 -0.2358
    2CHTO  C120  440   5.495   3.529  -0.170  0.0898  0.7647  0.6478
    2CHTO  H224  441   5.426   3.578  -0.097 -0.2522  1.6663 -0.2676
    2CHTO   N21  442   5.634   3.561  -0.124 -0.5426 -0.0031  0.2275
    2CHTO  H211  443   5.647   3.536  -0.019  0.3826  0.8784  0.3292
    2CHTO  H212  444   5.720   3.525  -0.180 -0.8990 -1.5510  0.6315
    2CHTO   O75  445   5.300   3.573  -0.503  0.2098  0.6494  0.3712
    2CHTO  C112  446   5.219   3.714  -0.537 -0.2103 -0.0991 -0.1064
    2CHTO  H216  447   5.242   3.794  -0.465 -0.6725  1.5739 -1.7701
    2CHTO   O73  448   5.079   3.685  -0.546  0.7801  0.5235 -0.4491
    2CHTO  C113  449   4.999   3.797  -0.575  0.9129 -0.1111  0.5654
    2CHTO  H217  450   5.017   3.882  -0.505 -2.1731  0.1546  1.1323
    2CHTO  C124  451   4.857   3.745  -0.561 -0.0449 -0.1334 -0.0018
    2CHTO   O83  452   4.824   3.677  -0.433  0.5225 -0.2383  0.2164
    2CHTO  H204  453   4.759   3.723  -0.383  0.6204  0.4100 -0.2362
    2CHTO  C109  454   5.019   3.853  -0.717  0.3627 -0.5176 -0.0609
    2CHTO  H213  455   5.000   3.770  -0.787 -1.3638  0.9934 -1.4128
    2CHTO  C110  456   5.164   3.903  -0.724 -0.2958 -0.7627  0.0314
    2CHTO  H214  457   5.174   3.980  -0.648 -1.8435 -2.0709  1.6060
    2CHTO   O78  458   5.204   3.961  -0.855  0.3167  0.2751 -0.3352
    2CHTO  H200  459   5.268   4.028  -0.840 -0.1728  0.7444 -0.3192
    2CHTO  C111  460   5.253   3.784  -0.677 -0.4133 -0.1169 -0.0300
    2CHTO  H215  461   5.243   3.703  -0.751  1.9463 -0.0782 -0.4381
    2CHTO   N19  462   5.398   3.824  -0.674 -0.3634  0.0592  0.6890
    2CHTO  H207  463   5.451   3.746  -0.727 -1.1291  1.5575 -2.3981
    2CHTO  H208  464   5.440   3.834  -0.575  1.3064 -3.2858  0.3894
    2CHTO   O74  465   4.933   3.965  -0.743  0.7162  0.0943 -0.5572
    2CHTO  C115  466   4.872   3.986  -0.895  0.0860  0.2500  0.1285
    2CHTO  H219  467   4.909   3.910  -0.964 -0.1306  1.5574 -1.4710
    2CHTO   O76  468   4.713   3.969  -0.895 -0.3610 -0.1924 -0.2341
    2CHTO  C122  469   4.648   4.067  -0.809  0.4372  0.2950 -0.1754
    2CHTO  H226  470   4.664   4.048  -0.703 -1.7010  1.3070  0.3632
    2CHTO  C126  471   4.496   4.055  -0.829 -0.3657 -0.4263  0.3384
    2CHTO   O85  472   4.457   3.919  -0.819 -0.0631 -0.4998 -0.4942
    2CHTO  H206  473   4.518   3.871  -0.767 -0.3741  0.5328  0.8462
    2CHTO  C121  474   4.695   4.219  -0.841  0.3541 -0.2718  0.7507
    2CHTO  H225  475   4.600   4.274  -0.860  1.5746  1.3742 -0.6647
    2CHTO   O81  476   4.747   4.273  -0.717  0.7507 -0.1624 -0.3756
    2CHTO  H202  477   4.703   4.241  -0.641  1.5593  1.8923  1.0021
    2CHTO  C119  478   4.787   4.220  -0.962 -0.3788 -0.2445 -0.0200
    2CHTO  H223  479   4.737   4.169  -1.044  0.6694 -1.8439  0.3003
    2CHTO  C117  480   4.913   4.134  -0.940 -1.0237 -0.1854  0.2339
    2CHTO  H221  481   4.981   4.172  -0.865 -0.1341 -0.3446 -0.4878
    2CHTO   N20  482   4.994   4.121  -1.064 -0.0110  0.1679  0.0537
    2CHTO  H209  483   5.094   4.086  -1.048 -0.9791 -3.5366 -1.4602
    2CHTO  H210  484   4.973   4.211  -1.120  0.9504 -1.0495 -2.3354
    2CHTO   O80  485   4.820   4.373  -1.022 -0.0058  0.0531 -0.1893
    2CHTO  C103  486   4.730   4.439  -1.132  0.5362  0.4090  0.1943
    2CHTO  H190  487   4.773   4.528  -1.180 -0.0231  1.1699  1.1029
    2CHTO  C101  488   4.682   4.359  -1.255  0.8358  0.2638  0.3108
    2CHTO  H188  489   4.639   4.262  -1.233 -0.5004  1.2214  2.0837
    2CHTO   O68  490   4.814   4.324  -1.343 -0.2127 -0.1029  0.0930
    2CHTO  H168  491   4.792   4.267  -1.414  2.2911 -0.7545 -0.2097
    2CHTO   C99  492   4.572   4.442  -1.344  0.2805  0.6166 -0.5117
    2CHTO  H186  493   4.621   4.535  -1.378  0.1976  0.2288 -1.6875
    2CHTO   N17  494   4.526   4.375  -1.470  0.6065 -0.0312 -0.6650
    2CHTO  H174  495   4.456   4.298  -1.444  0.7495  0.1757  0.3631
    2CHTO  H175  496   4.480   4.447  -1.536 -0.7076  1.2170  1.5378
    2CHTO   C97  497   4.458   4.489  -1.252  0.9115 -0.3719  0.1883
    2CHTO  H184  498   4.392   4.407  -1.219 -1.7211  1.3594 -0.6480
    2CHTO   O64  499   4.513   4.559  -1.146 -0.1126  0.1630 -0.1235
    2CHTO  C104  500   4.600   4.487  -1.058  0.2912 -0.3251  0.2327
    2CHTO  H191  501   4.546   4.399  -1.022 -1.0898  0.9418  1.3533
    2CHTO  C108  502   4.618   4.578  -0.940 -0.2031  0.9812  0.3616
    2CHTO   O71  503   4.496   4.626  -0.879  0.0348  0.3857  0.0678
    2CHTO  H171  504   4.478   4.710  -0.917  2.0091  0.7521 -0.0697
    2CHTO   O62  505   4.374   4.585  -1.316 -0.1493 -0.6149 -0.1488
    2CHTO   C91  506   4.244   4.596  -1.259  0.4763 -0.7091  0.3105
    2CHTO  H178  507   4.231   4.539  -1.167 -1.0217 -1.1303 -0.1458
    2CHTO   C92  508   4.131   4.538  -1.356 -0.1336 -0.0681 -0.0373
    2CHTO  H179  509   4.149   4.432  -1.379 -2.9802 -0.5156 -0.3223
    2CHTO   O66  510   4.004   4.531  -1.290 -0.0035  0.1580  0.3559
    2CHTO  H166  511   3.988   4.620  -1.265  0.5419 -0.0690  1.5154
    2CHTO   C93  512   4.104   4.632  -1.483 -0.4365  0.4091  0.0937
    2CHTO  H180  513   4.002   4.618  -1.523  0.0704 -0.6306 -0.8816
    2CHTO   N16  514   4.190   4.596  -1.595 -0.2966 -0.0542 -0.2853
    2CHTO  H172  515   4.213   4.679  -1.661 -0.5637  1.3983  1.4161
    2CHTO  H173  516   4.278   4.552  -1.553 -0.9169 -0.3716  0.7016
    2CHTO   C94  517   4.118   4.786  -1.447  0.3424  0.0823 -0.6506
    2CHTO  H181  518   4.221   4.819  -1.464  0.2727 -0.4736 -2.2409
    2CHTO   O61  519   4.101   4.802  -1.306  0.1494 -0.1304 -0.6456
    2CHTO   C95  520   4.201   4.744  -1.224 -0.2802  0.1195 -0.3430
    2CHTO  H182  521   4.295   4.799  -1.235 -0.0792  0.5619  2.9681
    2CHTO  C106  522   4.148   4.755  -1.080  0.0634  0.2055 -0.0542
    2CHTO   O69  523   4.135   4.893  -1.041  0.3401  0.4151  0.5495
    2CHTO  H169  524   4.220   4.915  -1.008  0.2921 -0.2155  1.1050
    2CHTO   O63  525   4.020   4.882  -1.504 -0.2260 -0.3713  0.3001
    2CHTO   C96  526   4.081   5.043  -1.506  0.5575 -0.1089  0.1640
    2CHTO  H183  527   4.183   5.036  -1.545 -0.1454 -1.1186 -1.5243
    2CHTO   C98  528   4.082   5.117  -1.367 -0.6822  0.3677  0.0809
    2CHTO  H185  529   3.987   5.096  -1.315 -1.4805  1.4938 -0.9140
    2CHTO   O67  530   4.186   5.059  -1.285 -0.2203  0.1674  0.0319
    2CHTO  H167  531   4.155   4.985  -1.237  0.7202  0.0284  0.4359
    2CHTO  C102  532   4.090   5.280  -1.377  0.1010 -0.3573  0.7146
    2CHTO  H189  533   4.195   5.300  -1.404 -0.5136  1.1521 -0.5785
    2CHTO   N18  534   4.069   5.346  -1.248 -0.3462  0.1689  1.0889
    2CHTO  H176  535   4.133   5.304  -1.172 -0.3727 -2.4371 -0.2604
    2CHTO  H177  536   3.965   5.346  -1.219 -1.2620  2.8375 -1.8749
    2CHTO  C105  537   3.987   5.318  -1.485  0.0161 -0.2441 -0.0684
    2CHTO  H192  538   3.888   5.286  -1.453 -0.1967  0.7663  0.3100
    2CHTO   O65  539   4.019   5.257  -1.613 -0.1648 -0.2292 -0.3993
    2CHTO  C100  540   3.996   5.118  -1.606  0.1360  0.4562  0.0439
    2CHTO  H187  541   3.891   5.092  -1.583  0.1875 -0.1233 -0.3856
    2CHTO  C107  542   4.008   5.051  -1.742  0.3556 -0.2831  0.1235
    2CHTO   O70  543   3.930   5.124  -1.841 -0.1958  0.3612 -0.8257
    2CHTO  H170  544   3.842   5.090  -1.847  0.1419 -1.0261  1.6466
    2CHTO   O57  545   3.974   5.473  -1.501 -0.2135  0.4763 -0.2814
    2CHTO   C85  546   3.893   5.539  -1.601  0.4716  0.3055  0.2967
    2CHTO  H157  547   3.809   5.468  -1.620  1.4352 -0.4132 -1.4255
    2CHTO   C83  548   3.976   5.551  -1.736 -0.3264  0.4191 -0.3893
    2CHTO  H155  549   3.993   5.450  -1.774 -0.6850  0.6758 -1.2449
    2CHTO   O56  550   4.097   5.613  -1.705  0.1427  0.9655  0.0526
    2CHTO  H135  551   4.133   5.653  -1.782 -0.1489 -0.0122 -0.5949
    2CHTO   C81  552   3.886   5.620  -1.838 -0.4999 -0.1106  0.3380
    2CHTO  H153  553   3.796   5.558  -1.843 -0.2820 -0.5990  1.9490
    2CHTO   N14  554   3.956   5.642  -1.970 -0.3074  0.9783  0.4871
    2CHTO  H141  555   4.008   5.555  -2.005  0.1728  0.7734  1.6912
    2CHTO  H142  556   3.884   5.673  -2.044  0.5383  0.7566 -0.4377
    2CHTO   C79  557   3.840   5.760  -1.785  0.0361 -0.1881  0.5933
    2CHTO  H151  558   3.766   5.794  -1.856  0.6508  1.2424  0.6237
    2CHTO   O52  559   3.763   5.739  -1.662 -0.5469 -0.2332  0.1925
    2CHTO   C86  560   3.838   5.681  -1.554  0.7139 -0.3404 -0.3736
    2CHTO  H158  561   3.912   5.758  -1.524 -1.7180  1.3005  1.5445
    2CHTO   C90  562   3.735   5.680  -1.441  0.2806 -0.0301 -0.0134
    2CHTO   O60  563   3.644   5.566  -1.449 -0.0698  0.1044 -0.7413
    2CHTO  H138  564   3.581   5.573  -1.518  0.1175 -0.1911 -0.9454
    2CHTO   O50  565   3.948   5.850  -1.752 -0.4829  0.4826  0.2918
    2CHTO   C73  566   4.015   5.976  -1.758 -0.7562  0.5765  0.0057
    2CHTO  H145  567   3.940   6.056  -1.768 -0.5105  0.7274 -0.6640
    2CHTO   C74  568   4.112   5.989  -1.879 -0.6791  0.2745  0.2161
    2CHTO  H146  569   4.040   5.974  -1.962 -1.0413  3.0437 -0.0209
    2CHTO   O54  570   4.167   6.122  -1.896 -0.0716  0.2009  0.4663
    2CHTO  H133  571   4.183   6.152  -1.983 -0.1043  2.3081  1.1529
    2CHTO   C75  572   4.222   5.879  -1.871 -0.3825 -0.0614 -0.6286
    2CHTO  H147  573   4.177   5.779  -1.862 -0.5090  0.1571  1.3652
    2CHTO   N13  574   4.313   5.864  -1.994 -0.3443  0.1937 -0.1991
    2CHTO  H139  575   4.244   5.878  -2.077 -0.7421 -0.1898  0.0656
    2CHTO  H140  576   4.406   5.918  -1.990 -0.2047 -0.1775  2.0972
    2CHTO   C76  577   4.305   5.888  -1.732  0.2698  0.1777  0.4744
    2CHTO  H148  578   4.385   5.960  -1.744  0.5806  0.0586  1.8235
    2CHTO   O49  579   4.212   5.917  -1.617  0.4188  0.0982  0.1862
    2CHTO   C77  580   4.099   6.006  -1.632 -0.1099  0.0490  0.3290
    2CHTO  H149  581   4.137   6.108  -1.638 -0.9036  0.2729 -1.0774
    2CHTO   C88  582   4.010   6.005  -1.506 -0.0126  0.3648 -0.5616
    2CHTO   O58  583   3.905   6.104  -1.491 -0.0368 -0.2562 -0.6185
    2CHTO  H136  584   3.931   6.194  -1.494  1.3108 -0.6059  0.1550
    2CHTO   O51  585   4.355   5.751  -1.698 -0.0558  0.0791 -0.3480
    2CHTO   C78  586   4.475   5.754  -1.590 -0.1219  0.1204 -0.6868
    2CHTO  H150  587   4.495   5.850  -1.538  1.4462 -1.8589  2.4709
    2CHTO   C80  588   4.602   5.706  -1.663  0.3454  0.2035  0.8011
    2CHTO  H152  589   4.583   5.608  -1.711  0.4880  0.5929 -0.0527
    2CHTO   O55  590   4.606   5.794  -1.778  0.1779  0.0229  0.4613
    2CHTO  H134  591   4.690   5.779  -1.816 -0.5316 -1.4624 -0.5886
    2CHTO   C84  592   4.731   5.691  -1.569 -0.1168 -0.7645 -0.1032
    2CHTO  H156  593   4.756   5.792  -1.536 -0.0866 -1.5849  2.5526
    2CHTO   N15  594   4.857   5.640  -1.638  0.6056  0.5464 -0.1240
    2CHTO  H143  595   4.856   5.543  -1.684  0.5521  0.4712  0.0358
    2CHTO  H144  596   4.940   5.647  -1.571 -0.7534  2.6867  1.3810
    2CHTO   C87  597   4.688   5.607  -1.446 -0.3751 -0.3244  0.0540
    2CHTO  H159  598   4.693   5.499  -1.458  0.3477 -0.1780 -1.0870
    2CHTO   O53  599   4.558   5.647  -1.385 -0.2361 -0.1011 -0.6882
    2CHTO   C82  600   4.450   5.659  -1.475 -0.1632 -0.2810  0.2773
    2CHTO  H154  601   4.447   5.557  -1.513 -0.5736  0.7057 -2.4614
    2CHTO   C89  602   4.315   5.689  -1.398 -0.6098  0.2949  0.0613
    2CHTO   O59  603   4.310   5.808  -1.312 -0.2767 -0.0325  0.1364
    2CHTO  H137  604   4.349   5.884  -1.349 -2.1901  0.5820 -0.6686
    2CHTO   O45  605   4.795   5.634  -1.337  0.6852 -0.3268  0.3453
    2CHTO   C67  606   4.780   5.548  -1.225 -0.5689  0.6637 -0.0606
    2CHTO  H124  607   4.677   5.512  -1.213 -0.1557  0.0591  1.8093
    2CHTO   C65  608   4.874   5.421  -1.229 -0.9814  0.1705  0.2234
    2CHTO  H122  609   4.962   5.458  -1.281 -1.0909 -2.2792 -1.8622
    2CHTO   O44  610   4.801   5.326  -1.314 -0.2281 -0.0310 -0.4927
    2CHTO  H102  611   4.866   5.292  -1.371 -0.0712 -1.6721  0.6403
    2CHTO   C63  612   4.915   5.355  -1.091 -0.1735 -0.8581  0.1573
    2CHTO  H120  613   5.004   5.409  -1.059 -0.4686 -1.2471  1.6733
    2CHTO   N11  614   4.961   5.214  -1.091 -0.2247  0.5529 -0.1907
    2CHTO  H108  615   5.067   5.214  -1.077 -0.4035  0.3602  1.1533
    2CHTO  H109  616   4.916   5.140  -1.028  0.5809  1.3866  1.3857
    2CHTO   C61  617   4.800   5.391  -0.991  0.5083  0.1721 -0.4248
    2CHTO  H118  618   4.828   5.351  -0.892  0.0780 -0.2927 -0.4837
    2CHTO   O40  619   4.771   5.534  -0.973 -0.2618 -0.0597  0.2912
    2CHTO   C68  620   4.798   5.620  -1.085 -0.2251 -0.8205 -0.0554
    2CHTO  H125  621   4.902   5.658  -1.071 -0.5187  0.5153 -1.3964
    2CHTO   C72  622   4.704   5.738  -1.077  0.0204  0.0143  0.5648
    2CHTO   O48  623   4.564   5.713  -1.063  0.3484  0.2930  0.2781
    2CHTO  H105  624   4.509   5.790  -1.062  0.1009  0.1155  0.6142
    2CHTO   O38  625   4.682   5.321  -1.027 -0.0515  0.2700 -0.0633
    2CHTO   C55  626   4.568   5.328  -0.941 -0.1298  0.5339  0.0392
    2CHTO  H112  627   4.568   5.425  -0.888  2.9091  0.1180  0.9376
    2CHTO   C56  628   4.572   5.203  -0.839  0.0093 -0.0758 -0.0632
    2CHTO  H113  629   4.574   5.122  -0.914 -0.8772 -0.9569  0.8516
    2CHTO   O42  630   4.693   5.197  -0.759  0.0120  0.3455 -0.3972
    2CHTO  H100  631   4.760   5.247  -0.803  1.1988 -2.4604 -1.9447
    2CHTO   C57  632   4.440   5.194  -0.760  0.7187 -0.8236 -0.0740
    2CHTO  H114  633   4.442   5.279  -0.692 -1.7530 -0.3346 -0.5624
    2CHTO   N10  634   4.432   5.072  -0.678  0.2480  0.2276 -0.5306
    2CHTO  H106  635   4.483   4.984  -0.714 -2.9763 -1.7974 -0.3845
    2CHTO  H107  636   4.462   5.100  -0.578  1.3334  0.5792 -0.9431
    2CHTO   C58  637   4.310   5.208  -0.848 -0.2748  0.5030 -0.3711
    2CHTO  H115  638   4.291   5.114  -0.903 -1.6814  0.1552  0.6830
    2CHTO   O37  639   4.318   5.312  -0.943 -0.4557  0.3317  0.6763
    2CHTO   C59  640   4.433   5.313  -1.026 -0.1078 -0.4557 -0.2309
    2CHTO  H116  641   4.436   5.218  -1.080  1.3556 -0.0509 -0.8733
    2CHTO   C70  642   4.420   5.417  -1.144 -0.5875 -0.7525  0.0826
    2CHTO   O46  643   4.497   5.394  -1.259  0.1361  0.2235  0.7963
    2CHTO  H103  644   4.460   5.318  -1.300 -0.7163  0.7919  0.5197
    2CHTO   O39  645   4.179   5.248  -0.743  0.1483  0.2507  0.9193
    2CHTO   C60  646   4.057   5.288  -0.804 -0.0903 -0.1855  0.1106
    2CHTO  H117  647   4.078   5.366  -0.877 -1.6373  0.0513 -0.1079
    2CHTO   C62  648   3.988   5.161  -0.873 -0.2122  0.1371  0.0290
    2CHTO  H119  649   4.064   5.127  -0.946 -1.4890  1.2872 -1.8834
    2CHTO   O43  650   3.968   5.062  -0.771  0.3208  0.3228 -0.0225
    2CHTO  H101  651   3.890   5.078  -0.722 -0.4338 -0.6955 -0.8564
    2CHTO   C66  652   3.859   5.207  -0.949  0.6465 -0.1206 -0.9502
    2CHTO  H123  653   3.886   5.285  -1.020 -1.4868  1.7024  0.1645
    2CHTO   N12  654   3.790   5.102  -1.034 -0.5083 -0.3668  0.1248
    2CHTO  H110  655   3.798   5.007  -0.983 -1.8209 -0.5876 -0.0593
    2CHTO  H111  656   3.834   5.096  -1.132 -0.9797 -1.5594 -0.0184
    2CHTO   C69  657   3.769   5.280  -0.846  0.8345  0.4023  0.0399
    2CHTO  H126  658   3.726   5.203  -0.778 -1.2987  1.0628 -0.5135
    2CHTO   O41  659   3.851   5.392  -0.729 -0.0439 -0.4100  0.4558
    2CHTO   C64  660   3.981   5.363  -0.692  0.2724 -0.1524  0.0013
    2CHTO  H121  661   3.994   5.293  -0.607  3.6067 -0.6746 -0.8522
    2CHTO   C71  662   4.045   5.501  -0.653 -0.0367 -0.1614 -0.1388
    2CHTO   O47  663   3.970   5.574  -0.561  0.0811 -0.1616 -0.1471
    2CHTO  H104  664   3.970   5.538  -0.475 -1.5467  1.0565  0.3969
    2CHTO   O34  665   3.643   5.356  -0.903 -0.7284  0.3957 -0.2040
    2CHTO   C49  666   3.591   5.497  -0.944 -0.6008 -0.7715 -0.1193
    2CHTO   H91  667   3.489   5.479  -0.980 -0.2481 -3.2374  0.0125
    2CHTO   C47  668   3.677   5.564  -1.050  0.2960 -0.2636  0.0962
    2CHTO   H89  669   3.625   5.653  -1.089 -0.9768 -1.0725 -0.0978
    2CHTO   O33  670   3.683   5.469  -1.159  0.1885  0.4727 -0.5729
    2CHTO   H70  671   3.617   5.478  -1.226  0.5160 -2.9723 -1.4583
    2CHTO   C45  672   3.823   5.602  -0.986 -0.3366  0.3475  0.1162
    2CHTO   H87  673   3.862   5.510  -0.939  0.3487 -0.7429 -2.4947
    2CHTO    N8  674   3.925   5.647  -1.084 -0.7734 -0.4674  0.2117
    2CHTO   H75  675   4.021   5.656  -1.036 -0.3983  0.2037 -0.6326
    2CHTO   H76  676   3.923   5.565  -1.154 -1.2606  0.9496 -1.4810
    2CHTO   C43  677   3.805   5.707  -0.866  0.3366  0.0561  0.5275
    2CHTO   H85  678   3.901   5.734  -0.823  2.8415  2.0054 -5.7558
    2CHTO   O29  679   3.707   5.663  -0.770 -0.1549 -0.2897  0.9494
    2CHTO   C50  680   3.587   5.596  -0.820  0.1384  0.4282  0.3705
    2CHTO   H92  681   3.549   5.540  -0.733 -2.1063  0.5644 -0.4927
    2CHTO   C54  682   3.469   5.693  -0.835 -0.2844  0.0381  0.1182
    2CHTO   O36  683   3.462   5.767  -0.713  0.3582  0.3014  0.1450
    2CHTO   H72  684   3.528   5.834  -0.708  1.3043 -0.7547  2.3600
    2CHTO   O27  685   3.754   5.830  -0.908  0.3797  0.1256  0.3066
    2CHTO   C37  686   3.778   5.963  -0.947 -0.8257 -0.9670  0.5048
    2CHTO   H79  687   3.879   5.961  -0.990 -1.8366  2.0836 -2.2538
    2CHTO   C38  688   3.678   5.999  -1.060  0.0450  0.3201  0.2951
    2CHTO   H80  689   3.574   5.983  -1.025  0.4992 -2.0365  0.6693
    2CHTO   O31  690   3.694   5.915  -1.177  0.5879 -0.2915 -0.5742
    2CHTO   H68  691   3.667   5.830  -1.151 -0.9822 -0.1982 -1.8088
    2CHTO   C39  692   3.703   6.146  -1.104  0.7862  0.3875 -0.3068
    2CHTO   H81  693   3.805   6.142  -1.142  0.9870 -1.5301  0.3752
    2CHTO    N7  694   3.611   6.194  -1.212  0.2696  0.0830 -0.6543
    2CHTO   H73  695   3.507   6.178  -1.188 -0.2011  1.5077 -1.6636
    2CHTO   H74  696   3.627   6.119  -1.289 -0.2686 -0.0846 -0.6058
    2CHTO   C40  697   3.700   6.242  -0.981 -0.8690  0.6164 -0.5454
    2CHTO   H82  698   3.601   6.237  -0.936 -0.4993 -1.6520  0.0772
    2CHTO   O26  699   3.802   6.200  -0.886  0.0985  0.2281  0.1915
    2CHTO   C41  700   3.775   6.063  -0.829  0.5123 -0.8119 -0.2822
    2CHTO   H83  701   3.671   6.068  -0.794  0.4881  1.6163 -0.6060
    2CHTO   C52  702   3.879   6.043  -0.725 -0.5760 -0.1644  0.3153
    2CHTO   O35  703   3.865   6.140  -0.606  0.2144  0.4474  0.3497
    2CHTO   H71  704   3.912   6.102  -0.535  0.0806  2.4444  1.5208
    2CHTO   O28  705   3.715   6.381  -1.005 -0.2395 -0.3305 -0.3941
    2CHTO   C42  706   3.682   6.488  -0.904 -0.2288  0.1527  0.2135
    2CHTO   H84  707   3.690   6.578  -0.965 -0.2556  0.8629  1.2348
    2CHTO   C44  708   3.784   6.498  -0.784  0.0841 -0.2854 -0.2001
    2CHTO   H86  709   3.780   6.405  -0.728  1.6104  0.6298  1.4859
    2CHTO   O32  710   3.908   6.517  -0.848  0.1997  0.2719  0.3672
    2CHTO   H69  711   3.955   6.436  -0.840 -1.7046 -0.9652 -0.4659
    2CHTO   C48  712   3.746   6.615  -0.684 -0.3636  0.2580  0.8460
    2CHTO   H90  713   3.783   6.710  -0.723 -0.1624  0.2990  1.1327
    2CHTO    N9  714   3.841   6.610  -0.561 -0.0522  0.3348  0.1747
    2CHTO   H77  715   3.945   6.588  -0.584  0.5954  2.1662  1.2687
    2CHTO   H78  716   3.832   6.708  -0.515  0.1896  0.3340  0.2279
    2CHTO   C51  717   3.596   6.608  -0.647  0.2702 -0.0641 -0.4673
    2CHTO   H93  718   3.591   6.510  -0.600  0.0765 -1.1090 -2.6090
    2CHTO   O30  719   3.516   6.615  -0.764  0.1600 -0.9566 -0.5978
    2CHTO   C46  720   3.536   6.491  -0.843  0.5062 -0.3867  0.2464
    2CHTO   H88  721   3.517   6.402  -0.783  3.6382 -0.6722  0.9197
    2CHTO   C53  722   3.430   6.498  -0.960 -0.1576  0.1787 -0.3972
    2CHTO   O72  723   3.303   6.490  -0.903 -0.0503  0.3211  0.4046
    2CHTO  H199  724   3.284   6.398  -0.899 -1.4412  0.5802 -0.2567
    2CHTO   O22  725   3.547   6.714  -0.561  0.0413 -0.0608 -0.4198
    2CHTO   C31  726   3.430   6.694  -0.472  0.7266 -0.0821 -0.0617
    2CHTO   H59  727   3.392   6.795  -0.446 -1.0397 -1.1262  1.6044
    2CHTO   C29  728   3.309   6.622  -0.534 -0.3614  0.7778 -0.5424
    2CHTO   H57  729   3.335   6.525  -0.578  1.2114  0.0935  1.7571
    2CHTO   O21  730   3.273   6.720  -0.634  1.2119 -0.0324  0.1986
    2CHTO   H37  731   3.299   6.688  -0.719 -2.5635 -1.4018 -0.5099
    2CHTO   C27  732   3.188   6.602  -0.432  0.7478  0.5889  0.0836
    2CHTO   H55  733   3.159   6.702  -0.397  0.4444 -0.3007  2.4715
    2CHTO    N5  734   3.072   6.534  -0.505 -0.3447  0.0743  0.3331
    2CHTO   H43  735   3.041   6.592  -0.591 -0.8439 -1.2503 -0.4036
    2CHTO   H44  736   3.095   6.437  -0.547  2.4790 -0.0000  1.9389
    2CHTO   C25  737   3.244   6.527  -0.309  0.1438  0.6095  0.8301
    2CHTO   H53  738   3.277   6.429  -0.348 -1.2527  0.3798  0.2274
    2CHTO   O17  739   3.348   6.604  -0.246 -0.2965  0.1517  0.0240
    2CHTO   C32  740   3.465   6.628  -0.331  0.3973 -0.6322  0.3510
    2CHTO   H60  741   3.508   6.530  -0.351 -0.1540 -1.0997  1.4075
    2CHTO   C36  742   3.555   6.718  -0.238 -0.2869  0.1172  0.0717
    2CHTO   O25  743   3.686   6.732  -0.291  0.0551 -0.0179  0.8162
    2CHTO   H40  744   3.751   6.743  -0.225  0.2036  0.7330  0.5499
    2CHTO   O15  745   3.137   6.496  -0.216 -0.0520  0.2372  0.3480
    2CHTO   C19  746   3.080   6.435  -0.094 -0.8046 -0.1008 -0.1146
    2CHTO   H47  747   2.978   6.476  -0.102 -1.0447 -1.0633 -2.4352
    2CHTO   C20  748   3.082   6.280  -0.088 -0.1271  0.2731  0.1519
    2CHTO   H48  749   3.183   6.239  -0.107 -0.5060  0.4641 -2.3571
    2CHTO   O19  750   2.992   6.233  -0.190  0.4144  0.6918  0.2640
    2CHTO   H35  751   3.032   6.249  -0.274  0.9161  0.2153  0.4104
    2CHTO   C21  752   3.023   6.225   0.051  0.8753 -0.0460 -0.1213
    2CHTO   H49  753   2.918   6.251   0.061  0.8366 -0.1891 -0.1537
    2CHTO    N4  754   3.016   6.068   0.061  0.0626  0.0115  0.2591
    2CHTO   H41  755   3.086   6.021  -0.007 -2.4483  0.9912 -3.1828
    2CHTO   H42  756   2.917   6.025   0.052 -0.0558 -0.0293  1.6442
    2CHTO   C22  757   3.094   6.290   0.168 -0.4905 -0.2517 -0.2809
    2CHTO   H50  758   3.195   6.247   0.168 -1.1544 -1.8314  0.0465
    2CHTO   O14  759   3.091   6.435   0.157  0.1502 -0.3867 -0.0824
    2CHTO   C23  760   3.141   6.492   0.035  0.0900 -0.4290 -0.3091
    2CHTO   H51  761   3.249   6.475   0.041  0.2896  0.2126 -1.7431
    2CHTO   C34  762   3.111   6.642   0.033  0.1613  0.3629 -0.2217
    2CHTO   O23  763   3.182   6.695   0.142 -0.4002  0.0268  0.4391
    2CHTO   H38  764   3.177   6.789   0.137  2.3323  0.2044  0.3545
    2CHTO   O16  765   3.028   6.271   0.297  0.0025  0.2081  0.0705
    2CHTO   C24  766   3.126   6.276   0.415  0.0930 -0.0950  0.1181
    2CHTO   H52  767   3.219   6.324   0.385 -0.7004  1.1985 -0.3080
    2CHTO   C26  768   3.143   6.131   0.468  0.3082  0.6026 -1.1073
    2CHTO   H54  769   3.045   6.096   0.507 -0.2228  1.6465 -1.5009
    2CHTO   O20  770   3.194   6.045   0.361 -0.0247 -0.3003  0.6472
    2CHTO   H36  771   3.135   6.008   0.298 -2.3514  0.1612  2.4692
    2CHTO   C30  772   3.233   6.140   0.596 -0.3131  0.6570 -0.4589
    2CHTO   H58  773   3.331   6.181   0.566 -0.2625  0.7056 -0.2225
    2CHTO    N6  774   3.256   6.002   0.648 -0.1990 -0.2507 -0.1615
    2CHTO   H45  775   3.194   5.968   0.729  3.0385 -0.4923  2.3175
    2CHTO   H46  776   3.354   5.958   0.658  0.2328  0.1892 -2.2215
    2CHTO   C33  777   3.181   6.229   0.706  1.3680 -0.2676  0.0521
    2CHTO   H61  778   3.093   6.192   0.760  1.4690 -0.2921  0.2004
    2CHTO   O18  779   3.147   6.360   0.652  0.2448  0.2191  0.5739
    2CHTO   C28  780   3.066   6.362   0.530  0.1149  0.0763 -0.1272
    2CHTO   H56  781   2.970   6.317   0.556 -0.4795  1.9996  1.1812
    2CHTO   C35  782   3.060   6.503   0.478  0.4541 -0.1803 -0.5527
    2CHTO   O24  783   2.989   6.589   0.565 -0.2145  0.0765 -0.5443
    2CHTO   H39  784   3.020   6.677   0.559  1.0346 -0.3102  0.2024
    2CHTO    O9  785   3.280   6.241   0.810 -0.0919  0.0238  0.3658
    2CHTO   C13  786   3.235   6.360   0.928  0.0779 -0.6201 -0.2170
    2CHTO   H26  787   3.125   6.377   0.923  0.1511 -0.6156 -2.1049
    2CHTO   C11  788   3.315   6.492   0.888  0.5817 -0.2545 -0.8913
    2CHTO   H24  789   3.274   6.542   0.800 -0.2554 -0.5480 -0.6727
    2CHTO    O8  790   3.452   6.460   0.856 -0.3190  0.0423  0.2896
    2CHTO    H3  791   3.449   6.417   0.772 -0.5087  0.0453  0.2957
    2CHTO    C9  792   3.306   6.586   1.013  0.3365  0.0924  0.5275
    2CHTO   H22  793   3.201   6.589   1.043 -0.3470  0.7800 -1.8851
    2CHTO    N2  794   3.340   6.721   0.978  0.0526 -0.1804 -0.4856
    2CHTO   H10  795   3.440   6.760   0.989 -0.3441  0.7502 -0.0487
    2CHTO   H11  796   3.295   6.751   0.884  0.3527  3.0004  0.3101
    2CHTO    C7  797   3.396   6.527   1.129 -0.0146  0.7379  0.1130
    2CHTO   H20  798   3.350   6.564   1.222  0.5309 -1.2220  1.1978
    2CHTO    O4  799   3.395   6.382   1.136  0.0436  0.2789  0.4975
    2CHTO   C14  800   3.280   6.312   1.081 -0.6710 -0.0054 -0.4847
    2CHTO   H27  801   3.193   6.342   1.142  0.8686  0.9889  1.2484
    2CHTO   C18  802   3.294   6.152   1.096  0.4080 -0.5522  0.1476
    2CHTO   O13  803   3.413   6.103   1.033  0.0849  0.1133  0.1357
    2CHTO    H7  804   3.485   6.097   1.093  0.3520 -0.5889 -0.2448
    2CHTO    O2  805   3.563   6.567   1.128  0.1597  0.3822 -0.6183
    2CHTO    C1  806   3.624   6.577   1.258 -0.4795 -0.0279 -0.0072
    2CHTO   H14  807   3.557   6.540   1.339  1.2441  1.1844  2.0210
    2CHTO    C2  808   3.681   6.719   1.300  0.2612  0.2456  0.2016
    2CHTO   H15  809   3.745   6.753   1.218  1.1228 -1.4037  0.1646
    2CHTO    O6  810   3.575   6.814   1.310  0.0962  0.5739 -0.1564
    2CHTO    H1  811   3.617   6.898   1.322  0.3735  0.5076 -0.6406
    2CHTO    C3  812   3.753   6.713   1.441  0.2409  0.1097 -0.1264
    2CHTO   H16  813   3.673   6.688   1.511  0.9143 -0.7665  0.3514
    2CHTO    N1  814   3.808   6.846   1.491  0.2564  0.2101 -0.0508
    2CHTO    H8  815   3.759   6.866   1.585 -2.3507 -0.6063 -1.1708
    2CHTO    H9  816   3.914   6.831   1.504  0.0072 -0.8997  0.7417
    2CHTO    C4  817   3.854   6.585   1.454 -0.3895  0.2166  0.1274
    2CHTO   H17  818   3.950   6.611   1.408 -0.0980 -0.7956  0.1486
    2CHTO    O1  819   3.804   6.465   1.385 -0.2745  0.1774 -0.4959
    2CHTO    C5  820   3.744   6.479   1.255 -0.1910  0.2239 -0.2978
    2CHTO   H18  821   3.821   6.517   1.188 -0.2201  0.8998  0.0481
    2CHTO   C16  822   3.694   6.342   1.202 -0.8615  0.4225  0.2877
    2CHTO   O11  823   3.810   6.260   1.171  0.1438  0.1577  0.4739
    2CHTO    H5  824   3.827   6.251   1.079  2.2388 -2.1268  1.0389
    2CHTO    O3  825   3.873   6.549   1.594 -0.1358 -0.0418  0.2899
    2CHTO    C6  826   4.006   6.515   1.635 -1.0290  0.1792  1.1169
    2CHTO   H19  827   4.078   6.494   1.556 -0.2482 -0.9930  2.1113
    2CHTO    C8  828   4.066   6.625   1.713  0.0374 -0.3869  0.6428
    2CHTO   H21  829   3.994   6.657   1.788  1.4825  0.8809  1.5112
    2CHTO    O7  830   4.098   6.737   1.631 -0.0797  0.0306  0.2296
    2CHTO    H2  831   4.110   6.818   1.678  0.2489 -1.8959  3.6608
    2CHTO   C12  832   4.199   6.579   1.787  0.3502 -0.0274  0.1768
    2CHTO   H25  833   4.280   6.581   1.712 -0.6285  0.9341 -0.8901
    2CHTO    N3  834   4.239   6.681   1.894 -0.1744  0.2503 -0.8396
    2CHTO   H12  835   4.225   6.780   1.852 -2.6780  1.2665  2.2174
    2CHTO   H13  836   4.183   6.670   1.986 -0.4335  3.3508 -0.5449
    2CHTO   C15  837   4.189   6.436   1.859 -0.4746  0.0249  0.4235
    2CHTO   H28  838   4.115   6.437   1.939 -1.7304 -0.7058 -0.7180
    2CHTO   O10  839   4.309   6.367   1.892  0.1813  0.1732  0.3284
    2CHTO    H4  840   4.360   6.430   1.938 -0.1407  0.5987  0.1074
    2CHTO    O5  841   4.133   6.345   1.762  0.1221 -0.7872  0.0861
    2CHTO   C10  842   4.004   6.383   1.719  0.0388 -0.1825 -0.4019
    2CHTO   H23  843   3.933   6.395   1.801  2.1155 -0.3693  1.4741
    2CHTO   C17  844   3.946   6.264   1.640  0.9045  0.0659  0.7326
    2CHTO   O12  845   3.926   6.162   1.734 -0.0920  0.1620 -0.4886
    2CHTO    H6  846   4.003   6.121   1.768  0.4160 -0.9149 -2.8059
    3CHTO  H203  847   5.475   2.220   1.821 -0.5011  0.4400  0.2367
    3CHTO   O82  848   5.540   2.276   1.860  0.4939 -0.1679 -0.5307
    3CHTO  C123  849   5.669   2.253   1.811 -0.4391 -0.0241  0.1491
    3CHTO  H227  850   5.680   2.145   1.798 -0.7810  0.1415 -1.7525
    3CHTO   O77  851   5.670   2.322   1.681 -0.3976 -0.2524 -0.0149
    3CHTO  C118  852   5.788   2.315   1.602  0.1560  0.0929 -0.2865
    3CHTO  H222  853   5.811   2.211   1.577  0.1326  0.2525 -0.9743
    3CHTO  C125  854   5.760   2.387   1.464 -0.6201 -0.4467  0.4090
    3CHTO   O84  855   5.725   2.524   1.473  0.2404  0.4762  0.1719
    3CHTO  H205  856   5.790   2.576   1.430 -2.2519  2.8744 -0.8147
    3CHTO  C114  857   5.913   2.372   1.674  0.5677  0.0072 -0.4604
    3CHTO  H218  858   5.898   2.480   1.685 -1.6369 -0.1931 -1.1693
    3CHTO  C116  859   5.925   2.321   1.821  0.6989 -0.0508  0.2257
    3CHTO  H220  860   5.960   2.216   1.817  0.9701 -0.0764  2.5471
    3CHTO   O79  861   6.019   2.396   1.882 -0.2279  0.2721 -0.1137
    3CHTO  H201  862   5.979   2.473   1.919 -0.6208  0.5248 -1.0498
    3CHTO  C120  863   5.786   2.324   1.895 -0.0121  0.4458  0.1534
    3CHTO  H224  864   5.767   2.432   1.909  0.8263  0.5682  0.3672
    3CHTO   N21  865   5.800   2.252   2.031  0.6283  0.0399  0.1340
    3CHTO  H211  866   5.782   2.149   2.008 -1.4962  0.5869 -0.8121
    3CHTO  H212  867   5.887   2.280   2.089 -1.1006  0.4144  2.6317
    3CHTO   O75  868   6.022   2.349   1.585  0.2542  0.1779 -0.2934
    3CHTO  C112  869   6.092   2.198   1.574 -0.5035  0.1312  0.3419
    3CHTO  H216  870   6.015   2.121   1.593 -2.6118  1.8562 -0.9492
    3CHTO   O73  871   6.204   2.190   1.667  0.3449 -1.1209 -0.0655
    3CHTO  C113  872   6.272   2.060   1.678 -0.6393  0.1811  0.6427
    3CHTO  H217  873   6.200   1.982   1.712  1.4764 -1.7225  0.8462
    3CHTO  C124  874   6.382   2.075   1.780 -0.2447  0.1381  0.1460
    3CHTO   O83  875   6.314   2.102   1.909  0.0624 -0.5783 -0.0700
    3CHTO  H204  876   6.284   2.190   1.919 -0.1164 -0.5774 -0.5933
    3CHTO  C109  877   6.335   2.024   1.544  0.1996  0.0638 -0.3369
    3CHTO  H213  878   6.417   2.094   1.523 -0.7012  0.9656 -0.8614
    3CHTO  C110  879   6.223   2.030   1.431 -0.7260 -0.0413  0.1734
    3CHTO  H214  880   6.158   1.945   1.452 -0.5287 -0.9203 -2.5303
    3CHTO   O78  881   6.281   1.996   1.300  0.4053  0.2714 -1.0660
    3CHTO  H200  882   6.286   1.903   1.283 -0.7702  0.2306 -1.1907
    3CHTO  C111  883   6.153   2.166   1.429 -0.4565 -0.3816 -0.4233
    3CHTO  H215  884   6.222   2.251   1.415 -2.9300  1.7126 -0.1539
    3CHTO   N19  885   6.050   2.174   1.323 -0.0083 -0.2197  0.1487
    3CHTO  H207  886   5.980   2.103   1.363 -0.8861  0.6456  0.1525
    3CHTO  H208  887   6.103   2.137   1.236  0.8530 -1.0077  0.9900
    3CHTO   O74  888   6.394   1.892   1.546 -0.0473  0.0568 -0.3309
    3CHTO  C115  889   6.532   1.868   1.462 -0.1471  0.3511  0.9592
    3CHTO  H219  890   6.564   1.955   1.405  0.6225 -0.8144 -0.4125
    3CHTO   O76  891   6.653   1.835   1.554  0.5985 -0.3962 -0.2985
    3CHTO  C122  892   6.642   1.710   1.632 -0.3751  1.0115 -0.5584
    3CHTO  H226  893   6.598   1.733   1.729  0.0683 -1.5703  0.2912
    3CHTO  C126  894   6.779   1.648   1.662  0.1190 -0.0455  0.3921
    3CHTO   O85  895   6.863   1.738   1.734  0.2494  0.7776 -0.1368
    3CHTO  H206  896   6.935   1.774   1.686  0.4287  2.7340  1.5287
    3CHTO  C121  897   6.560   1.596   1.561 -0.0095 -0.8375  0.3105
    3CHTO  H225  898   6.597   1.495   1.588  2.5833 -0.5560 -1.9312
    3CHTO   O81  899   6.420   1.597   1.612  0.1571  0.3802  0.6962
    3CHTO  H202  900   6.363   1.556   1.550 -0.6587 -0.8419  2.2218
    3CHTO  C119  901   6.558   1.608   1.404 -0.5879 -0.0065 -0.0811
    3CHTO  H223  902   6.661   1.602   1.369  0.1153 -0.3749  1.9747
    3CHTO  C117  903   6.508   1.752   1.362  0.0088  0.0605  0.5763
    3CHTO  H221  904   6.399   1.756   1.354 -0.2135 -0.6053  2.8917
    3CHTO   N20  905   6.552   1.772   1.224 -0.1286  0.1579  0.1903
    3CHTO  H209  906   6.657   1.796   1.228 -0.1507  0.1708  0.7029
    3CHTO  H210  907   6.540   1.683   1.164 -3.6564  0.3473  0.5243
    3CHTO   O80  908   6.473   1.473   1.322  0.0355  0.0951 -0.5279
    3CHTO  C103  909   6.477   1.340   1.384 -0.0042 -0.0108  0.5078
    3CHTO  H190  910   6.563   1.325   1.450 -1.7642 -0.1146  2.8470
    3CHTO  C101  911   6.341   1.290   1.458 -0.3693 -0.2221  0.5789
    3CHTO  H188  912   6.255   1.314   1.395 -0.7101 -0.6980  0.8598
    3CHTO   O68  913   6.304   1.354   1.574  0.2464 -0.1044  0.8901
    3CHTO  H168  914   6.356   1.429   1.592  0.9339 -0.2793 -0.3038
    3CHTO   C99  915   6.342   1.130   1.476 -0.1308 -0.3098 -0.2520
    3CHTO  H186  916   6.411   1.095   1.556  2.2059  2.0149 -1.2090
    3CHTO   N17  917   6.203   1.070   1.499  0.1534 -0.0044  0.2559
    3CHTO  H174  918   6.203   0.962   1.490 -0.2524  0.0250 -0.0926
    3CHTO  H175  919   6.171   1.099   1.597 -0.2256 -1.9029  0.7171
    3CHTO   C97  920   6.395   1.059   1.346 -0.2061 -0.0402  0.1370
    3CHTO  H184  921   6.317   1.056   1.269 -0.5037 -3.7887  0.5330
    3CHTO   O64  922   6.519   1.118   1.299  0.3114  0.6342 -0.1284
    3CHTO  C104  923   6.513   1.256   1.259  0.4012  0.3363 -0.6487
    3CHTO  H191  924   6.442   1.274   1.179  0.4602 -1.3417 -1.1105
    3CHTO  C108  925   6.654   1.285   1.207  0.1560 -0.2077  0.1443
    3CHTO   O71  926   6.665   1.275   1.062 -0.4640  0.0336 -0.3613
    3CHTO  H171  927   6.754   1.285   1.034 -0.5195  1.6827 -0.0281
    3CHTO   O62  928   6.437   0.922   1.377 -0.5156 -0.3585  0.8939
    3CHTO   C91  929   6.386   0.810   1.295  0.1860  0.1855 -0.3590
    3CHTO  H178  930   6.284   0.827   1.262  0.8343  4.3803 -0.4332
    3CHTO   C92  931   6.386   0.677   1.385 -0.1719 -0.5007 -0.4958
    3CHTO  H179  932   6.492   0.652   1.400  0.5323  3.3196  1.6575
    3CHTO   O66  933   6.331   0.705   1.519  0.4005  0.3366 -0.2945
    3CHTO  H166  934   6.362   0.642   1.582  1.6983  1.4771  0.2460
    3CHTO   C93  935   6.295   0.566   1.329 -0.4749 -0.6932 -0.0375
    3CHTO  H180  936   6.188   0.581   1.347 -0.0542 -0.1742  2.1146
    3CHTO   N16  937   6.317   0.432   1.381 -0.2429 -0.1512  0.1419
    3CHTO  H172  938   6.420   0.414   1.408 -1.0626 -5.2344  0.4073
    3CHTO  H173  939   6.246   0.412   1.459  0.4562 -1.9162  0.3486
    3CHTO   C94  940   6.315   0.569   1.170  0.2245  0.4250 -0.3418
    3CHTO  H181  941   6.308   0.469   1.125 -1.4055  0.3041  0.1513
    3CHTO   O61  942   6.437   0.619   1.131 -0.4229 -0.4189  0.0309
    3CHTO   C95  943   6.462   0.759   1.164  0.0497  0.3199  0.1344
    3CHTO  H182  944   6.569   0.770   1.181  0.1397  0.3781 -0.4736
    3CHTO  C106  945   6.432   0.841   1.037  0.2481 -0.7568  0.2814
    3CHTO   O69  946   6.465   0.983   1.038 -0.1678 -0.1269  0.1682
    3CHTO  H169  947   6.508   1.023   0.964  1.6395 -1.0270  0.7101
    3CHTO   O63  948   6.175   0.657   1.111  0.1766 -0.2945  0.6119
    3CHTO   C96  949   6.025   0.590   1.142 -0.3645 -0.4543  0.0759
    3CHTO  H183  950   6.029   0.531   1.233 -0.2359 -1.6412 -0.6855
    3CHTO   C98  951   5.979   0.497   1.025  0.0738  0.1911  0.0738
    3CHTO  H185  952   6.000   0.536   0.924  0.8582 -4.5550 -1.7309
    3CHTO   O67  953   6.063   0.381   1.032 -0.5796 -0.1439 -0.0180
    3CHTO  H167  954   6.125   0.398   0.963 -1.5925  0.1263 -0.8781
    3CHTO  C102  955   5.831   0.456   1.030 -0.3142  0.2740  0.1639
    3CHTO  H189  956   5.814   0.395   1.120  1.0345  0.5669  0.6152
    3CHTO   N18  957   5.779   0.371   0.920  0.3804  0.0937  0.4998
    3CHTO  H176  958   5.797   0.425   0.828  1.6085  0.1995  0.7976
    3CHTO  H177  959   5.674   0.349   0.928  0.3430  0.1086  0.0805
    3CHTO  C105  960   5.746   0.586   1.057 -0.0208 -0.1754 -0.7308
    3CHTO  H192  961   5.758   0.651   0.971  0.8407 -0.4431 -0.8227
    3CHTO   O65  962   5.793   0.653   1.176  0.2145 -0.6217  0.3790
    3CHTO  C100  963   5.923   0.706   1.167 -0.7061 -0.0487  0.2385
    3CHTO  H187  964   5.926   0.773   1.080 -2.5480 -0.5199 -0.2056
    3CHTO  C107  965   5.960   0.801   1.284 -0.5576 -0.8828 -0.6302
    3CHTO   O70  966   5.861   0.909   1.282 -0.0090 -0.6765 -0.3735
    3CHTO  H170  967   5.871   0.977   1.218 -2.9440 -1.2562 -1.5349
    3CHTO   O57  968   5.589   0.545   1.073  0.1059  0.5186  0.2351
    3CHTO   C85  969   5.490   0.623   1.009 -0.6555 -0.1162  0.4220
    3CHTO  H157  970   5.519   0.623   0.902 -0.1900 -1.0595  0.5457
    3CHTO   C83  971   5.503   0.772   1.054  0.1519  0.4843  0.2711
    3CHTO  H155  972   5.601   0.812   1.029  0.3186  0.7356  1.2970
    3CHTO   O56  973   5.495   0.784   1.195  0.4502 -0.0469  0.0638
    3CHTO  H135  974   5.509   0.875   1.212 -1.6658  0.6475 -1.6918
    3CHTO   C81  975   5.389   0.855   0.985 -0.1458  0.6541  0.2916
    3CHTO  H153  976   5.403   0.841   0.878  0.7469 -0.2815  0.5241
    3CHTO   N14  977   5.399   1.003   1.004 -0.0039 -0.0047  0.1769
    3CHTO  H141  978   5.497   1.027   0.966 -0.2881  0.2570 -0.4101
    3CHTO  H142  979   5.397   1.015   1.110 -0.8403  0.9613  0.0658
    3CHTO   C79  980   5.247   0.801   1.023 -0.5946 -0.2652 -0.2363
    3CHTO  H151  981   5.178   0.847   0.954 -1.4480 -1.8939 -0.5046
    3CHTO   O52  982   5.244   0.666   0.979  0.2107 -0.6062  0.2548
    3CHTO   C86  983   5.348   0.573   1.033 -0.6706  0.2294  0.4434
    3CHTO  H158  984   5.323   0.560   1.140  0.4373  0.6162  0.7504
    3CHTO   C90  985   5.339   0.440   0.958  0.7318  0.0539 -0.2005
    3CHTO   O60  986   5.209   0.392   0.925  1.0685  0.1483  0.3245
    3CHTO  H138  987   5.214   0.316   0.870  1.8735  1.1785 -1.0589
    3CHTO   O50  988   5.200   0.814   1.157 -0.1985 -0.3837 -0.5616
    3CHTO   C73  989   5.090   0.802   1.246  0.0809 -0.2785 -0.4977
    3CHTO  H145  990   5.035   0.708   1.238 -1.6303  0.5535  1.0770
    3CHTO   C74  991   4.981   0.915   1.226  0.1257 -0.1692 -0.8142
    3CHTO  H146  992   4.951   0.900   1.121  1.2727 -2.2532 -0.8757
    3CHTO   O54  993   4.875   0.880   1.307  0.4083 -0.2493 -0.2899
    3CHTO  H133  994   4.818   0.954   1.316 -0.5460 -0.8418 -1.2115
    3CHTO   C75  995   5.057   1.047   1.248 -0.0087 -0.5458 -0.4179
    3CHTO  H147  996   5.131   1.055   1.167 -2.0069 -0.3739 -2.2758
    3CHTO   N13  997   4.967   1.163   1.229  0.5536  0.0524 -0.1827
    3CHTO  H139  998   4.901   1.175   1.313  0.9210 -1.9716  0.4200
    3CHTO  H140  999   5.028   1.253   1.224  0.6134 -0.0491 -1.4721
    3CHTO   C76 1000   5.119   1.057   1.396  0.3158  0.1534 -0.1121
    3CHTO  H148 1001   5.039   1.064   1.470  0.6106 -4.6513  0.8759
    3CHTO   O49 1002   5.198   0.936   1.433  0.2623  0.6802 -0.0988
    3CHTO   C77 1003   5.143   0.806   1.393 -0.6687 -0.0234  0.1964
    3CHTO  H149 1004   5.063   0.774   1.460  1.4134 -2.5797  1.5061
    3CHTO   C88 1005   5.251   0.695   1.408  0.3263 -0.4908 -0.2598
    3CHTO   O58 1006   5.273   0.671   1.553  0.4483 -0.2964 -0.4534
    3CHTO  H136 1007   5.199   0.629   1.592 -0.3294  0.8515 -0.6352
    3CHTO   O51 1008   5.225   1.188   1.387 -0.0584  0.0945  0.5793
    3CHTO   C78 1009   5.269   1.249   1.513  0.4501  0.0402 -0.0684
    3CHTO  H150 1010   5.346   1.326   1.489 -1.0254  1.8816  0.9965
    3CHTO   C80 1011   5.319   1.149   1.614  0.2543  0.1318 -0.0832
    3CHTO  H152 1012   5.246   1.065   1.616  1.0654 -0.5593  0.6398
    3CHTO   O55 1013   5.440   1.091   1.570  0.1934 -0.1321  0.4366
    3CHTO  H134 1014   5.467   1.012   1.613  0.7568 -1.2718 -1.9325
    3CHTO   C84 1015   5.331   1.205   1.766 -0.3782  0.3873  0.1900
    3CHTO  H156 1016   5.419   1.269   1.768  0.9890 -1.3883 -1.2960
    3CHTO   N15 1017   5.364   1.104   1.875  0.2380  1.0950 -0.3220
    3CHTO  H143 1018   5.405   1.015   1.833  0.8483  1.0566  0.3479
    3CHTO  H144 1019   5.435   1.146   1.944 -0.8279  1.4924  0.5365
    3CHTO   C87 1020   5.204   1.282   1.799  0.0192  0.3292 -0.0843
    3CHTO  H159 1021   5.114   1.220   1.798  0.4078 -0.2353 -0.1678
    3CHTO   O53 1022   5.178   1.385   1.686  0.2522  0.2008 -0.1257
    3CHTO   C82 1023   5.142   1.327   1.565 -0.3631 -0.0662  0.2762
    3CHTO  H154 1024   5.052   1.266   1.575 -0.0070 -0.9205 -1.4711
    3CHTO   C89 1025   5.110   1.446   1.470  0.3937 -0.2127 -0.1076
    3CHTO   O59 1026   5.000   1.524   1.509 -0.1259 -0.1731 -0.0937
    3CHTO  H137 1027   4.923   1.471   1.503  1.5096 -2.5881 -0.6594
    3CHTO   O45 1028   5.224   1.358   1.955  0.4918  0.5253 -0.3905
    3CHTO   C67 1029   5.325   1.460   1.972  0.6908  0.3377 -0.2361
    3CHTO  H124 1030   5.419   1.410   1.947  0.6793  0.2592 -0.1188
    3CHTO   C65 1031   5.309   1.600   1.892  0.2428  1.3761 -0.1103
    3CHTO  H122 1032   5.200   1.602   1.885 -0.0900 -0.2397  3.4423
    3CHTO   O44 1033   5.355   1.585   1.761  0.0945  0.2970 -0.1163
    3CHTO  H102 1034   5.293   1.569   1.692 -0.7596 -0.6214  0.8447
    3CHTO   C63 1035   5.351   1.729   1.971 -0.3852  1.0993 -0.3812
    3CHTO  H120 1036   5.283   1.743   2.055  0.2357 -0.9443  0.4865
    3CHTO   N11 1037   5.343   1.867   1.908 -0.5954  0.6958  0.8004
    3CHTO  H108 1038   5.311   1.867   1.806  0.9814  0.1661  0.2815
    3CHTO  H109 1039   5.439   1.915   1.908 -0.4592  0.4467 -0.9225
    3CHTO   C61 1040   5.486   1.688   2.051  1.0095  0.1585  0.0633
    3CHTO  H118 1041   5.505   1.778   2.111 -0.0607  0.2376  0.2951
    3CHTO   O40 1042   5.457   1.576   2.153  0.4936  0.1461  0.0366
    3CHTO   C68 1043   5.335   1.489   2.124  0.0941  0.2360 -0.5661
    3CHTO  H125 1044   5.247   1.533   2.176  1.7510  1.7452  1.0397
    3CHTO   C72 1045   5.371   1.365   2.206 -0.1019 -0.3214 -0.8273
    3CHTO   O48 1046   5.351   1.375   2.348  0.1398 -0.5502  0.2475
    3CHTO  H105 1047   5.304   1.296   2.368 -0.7244 -0.4384 -1.3066
    3CHTO   O38 1048   5.601   1.655   1.961  0.1370  0.3236 -0.1230
    3CHTO   C55 1049   5.726   1.619   2.024  0.5432  0.3662  0.7706
    3CHTO  H112 1050   5.716   1.608   2.133 -0.9140  0.7597  0.6878
    3CHTO   C56 1051   5.824   1.728   1.984  0.4508 -0.2481 -0.0874
    3CHTO  H113 1052   5.818   1.731   1.874  0.8340  0.0644 -0.1016
    3CHTO   O42 1053   5.780   1.857   2.033  0.0141 -0.4853  0.0447
    3CHTO  H100 1054   5.738   1.849   2.116  2.4528  0.2137  1.3980
    3CHTO   C57 1055   5.971   1.695   2.035 -0.2760  0.1057  0.3111
    3CHTO  H114 1056   5.963   1.696   2.144 -0.1309 -0.7637  0.3294
    3CHTO   N10 1057   6.062   1.799   1.984  0.2540 -0.4755  0.2161
    3CHTO  H106 1058   6.001   1.887   1.970 -2.2086 -1.8943  1.6065
    3CHTO  H107 1059   6.151   1.826   2.038  0.1290 -1.3268  0.8544
    3CHTO   C58 1060   6.015   1.557   1.984  0.3577  0.3823  0.4021
    3CHTO  H115 1061   6.025   1.566   1.874 -2.8513 -0.1744  0.0210
    3CHTO   O37 1062   5.915   1.465   2.025 -0.5022 -0.1207  0.4060
    3CHTO   C59 1063   5.785   1.483   1.974  0.8426  0.1516  0.8555
    3CHTO  H116 1064   5.793   1.491   1.865 -1.4138  2.2421  0.7898
    3CHTO   C70 1065   5.691   1.367   2.009  0.3431  0.3492  0.2006
    3CHTO   O46 1066   5.743   1.241   1.957  0.2044 -0.6099  0.4584
    3CHTO  H103 1067   5.675   1.176   1.964  0.1214 -0.3538  2.4097
    3CHTO   O39 1068   6.141   1.492   2.050 -0.3766 -0.2342  0.0013
    3CHTO   C60 1069   6.263   1.474   1.976 -0.4278 -0.2955 -1.2433
    3CHTO  H117 1070   6.267   1.519   1.877 -0.2727 -1.3264 -1.7031
    3CHTO   C62 1071   6.379   1.534   2.067  0.0695  0.6883 -0.1149
    3CHTO  H119 1072   6.365   1.644   2.076 -1.2278  0.5403 -0.1738
    3CHTO   O43 1073   6.372   1.488   2.202  0.2765  0.1878 -0.1168
    3CHTO  H101 1074   6.458   1.505   2.236 -0.1165 -2.3712  2.3125
    3CHTO   C66 1075   6.521   1.509   1.991 -0.3630  0.2901  0.0839
    3CHTO  H123 1076   6.514   1.560   1.895  1.6466 -1.4972 -1.0532
    3CHTO   N12 1077   6.643   1.560   2.056 -0.3486  0.3655  0.1558
    3CHTO  H110 1078   6.616   1.598   2.154 -0.4672 -1.0264  0.6812
    3CHTO  H111 1079   6.720   1.483   2.060 -1.0062 -0.3102 -0.0879
    3CHTO   C69 1080   6.537   1.356   1.957  0.4842 -0.6212 -0.1753
    3CHTO  H126 1081   6.546   1.297   2.050  0.1781 -1.0328 -0.4026
    3CHTO   O41 1082   6.392   1.307   1.874 -0.2376 -0.3394 -0.3249
    3CHTO   C64 1083   6.287   1.326   1.956 -0.8141 -0.1990  0.4321
    3CHTO  H121 1084   6.304   1.280   2.055  1.6477 -1.9196 -0.7311
    3CHTO   C71 1085   6.171   1.250   1.887 -0.9646  0.6027  0.2837
    3CHTO   O47 1086   6.199   1.106   1.868 -0.1773 -0.9530 -0.6230
    3CHTO  H104 1087   6.180   1.049   1.940 -1.5610 -0.6000 -0.6957
    3CHTO   O34 1088   6.663   1.330   1.849 -0.9861  0.2674  0.4746
    3CHTO   C49 1089   6.711   1.205   1.835 -0.5479  0.5968 -0.7501
    3CHTO   H91 1090   6.701   1.158   1.933  1.6761  1.7107  0.0453
    3CHTO   C47 1091   6.859   1.201   1.793 -0.5699 -0.6915 -0.4689
    3CHTO   H89 1092   6.898   1.098   1.782 -0.1322 -0.4730 -1.0543
    3CHTO   O33 1093   6.923   1.267   1.906 -0.0408  0.1202 -0.3989
    3CHTO   H70 1094   7.015   1.254   1.915  0.4179  2.1552 -1.7777
    3CHTO   C45 1095   6.873   1.271   1.658 -0.0628 -1.2513  0.8171
    3CHTO   H87 1096   6.816   1.364   1.668  0.0831 -1.0606 -0.1205
    3CHTO    N8 1097   7.012   1.306   1.619  0.4156 -0.0052 -0.1625
    3CHTO   H75 1098   7.041   1.230   1.547 -1.9191 -0.9165 -0.2031
    3CHTO   H76 1099   7.004   1.398   1.563  0.9868 -0.0960 -0.3953
    3CHTO   C43 1100   6.798   1.179   1.552 -1.1877 -0.0566 -0.3090
    3CHTO   H85 1101   6.787   1.240   1.462  6.0508  2.4058  0.2010
    3CHTO   O29 1102   6.668   1.124   1.597  0.3351 -1.0166  0.2644
    3CHTO   C50 1103   6.629   1.115   1.732  0.1322 -0.0040 -0.9239
    3CHTO   H92 1104   6.522   1.142   1.734  0.3705  0.9849  3.4793
    3CHTO   C54 1105   6.629   0.969   1.781 -0.5251  0.1557 -0.6121
    3CHTO   O36 1106   6.522   0.891   1.727  0.0910 -0.2651 -0.1681
    3CHTO   H72 1107   6.526   0.812   1.777  3.1089 -1.1286 -1.5822
    3CHTO   O27 1108   6.875   1.061   1.513 -0.3968 -0.1791  0.1758
    3CHTO   C37 1109   6.924   0.944   1.437  0.1097  1.1743 -0.2454
    3CHTO   H79 1110   7.017   0.905   1.480 -0.6306 -1.2609 -0.7777
    3CHTO   C38 1111   6.832   0.826   1.453  0.1576 -0.1027 -0.4251
    3CHTO   H80 1112   6.727   0.858   1.444 -0.4622 -1.6919  0.7550
    3CHTO   O31 1113   6.845   0.779   1.585  0.5966  1.3109 -0.1162
    3CHTO   H68 1114   6.771   0.734   1.622 -1.1160  3.1260 -1.2540
    3CHTO   C39 1115   6.853   0.713   1.347  0.0212 -0.0484  0.1568
    3CHTO   H81 1116   6.952   0.677   1.374  0.4346 -0.2320 -1.5197
    3CHTO    N7 1117   6.759   0.595   1.355  0.4504  0.5921 -0.5433
    3CHTO   H73 1118   6.668   0.636   1.314  1.6899  1.6049 -2.3122
    3CHTO   H74 1119   6.793   0.518   1.288  0.7123  0.4291 -0.2251
    3CHTO   C40 1120   6.860   0.779   1.200 -0.2125 -0.1919 -0.1517
    3CHTO   H82 1121   6.765   0.828   1.175 -0.4269 -1.5361 -2.0539
    3CHTO   O26 1122   6.970   0.872   1.199  0.1653 -0.3779  0.0153
    3CHTO   C41 1123   6.941   0.983   1.284 -0.3291 -0.4891 -0.0576
    3CHTO   H83 1124   6.845   1.031   1.260 -0.8385 -1.1208  0.6993
    3CHTO   C52 1125   7.056   1.087   1.261 -0.6333  0.0828 -0.6149
    3CHTO   O35 1126   7.186   1.011   1.301  0.6315  0.4695  0.2555
    3CHTO   H71 1127   7.262   1.046   1.259  1.8476 -0.8099  1.3490
    3CHTO   O28 1128   6.895   0.677   1.107 -0.0457  0.0816  0.0658
    3CHTO   C42 1129   6.859   0.674   0.966  0.2530 -0.5440 -0.3467
    3CHTO   H84 1130   6.938   0.611   0.925  0.2969  0.5796 -2.0388
    3CHTO   C44 1131   6.875   0.810   0.888  0.1749 -0.9074  0.1156
    3CHTO   H86 1132   6.809   0.882   0.938 -0.2338 -0.8614 -0.4835
    3CHTO   O32 1133   7.011   0.855   0.896 -0.2594 -0.7663  0.5288
    3CHTO   H69 1134   7.005   0.942   0.862 -0.3802 -1.5751 -1.5923
    3CHTO   C48 1135   6.818   0.806   0.735 -0.2406 -0.0205  0.0776
    3CHTO   H90 1136   6.890   0.741   0.685 -1.7954 -1.8907  0.1691
    3CHTO    N9 1137   6.829   0.944   0.673  0.6151  0.4743 -0.7835
    3CHTO   H77 1138   6.883   1.011   0.739 -0.6854  0.7169  0.0509
    3CHTO   H78 1139   6.736   0.992   0.648  0.4568  0.4890 -0.1918
    3CHTO   C51 1140   6.675   0.746   0.743 -0.1738  0.4727  0.2292
    3CHTO   H93 1141   6.616   0.810   0.808  0.8158  1.6752 -0.0405
    3CHTO   O30 1142   6.690   0.611   0.786  0.2880 -0.5178 -0.1168
    3CHTO   C46 1143   6.721   0.599   0.931 -0.4524 -0.7571  0.3098
    3CHTO   H88 1144   6.644   0.647   0.992  0.0183  1.0472 -0.4874
    3CHTO   C53 1145   6.737   0.447   0.962  0.0998 -0.0132  0.2605
    3CHTO   O72 1146   6.614   0.377   0.935  0.2599  0.3422 -0.2308
    3CHTO  H199 1147   6.609   0.284   0.926  0.7527  0.2037  0.7938
    3CHTO   O22 1148   6.619   0.729   0.607  0.0855  0.3011  0.1120
    3CHTO   C31 1149   6.476   0.727   0.579  0.3628 -0.2678  0.3628
    3CHTO   H59 1150   6.467   0.724   0.469 -0.9742 -1.1243  0.4986
    3CHTO   C29 1151   6.402   0.603   0.640 -0.1687 -0.2006  0.1869
    3CHTO   H57 1152   6.399   0.624   0.748 -1.6102  0.1322  0.0906
    3CHTO   O21 1153   6.475   0.480   0.617  0.5159  0.0926  0.0858
    3CHTO   H37 1154   6.430   0.411   0.573 -2.3134  2.3228 -0.6830
    3CHTO   C27 1155   6.250   0.606   0.589 -0.1080 -0.0758  0.2860
    3CHTO   H55 1156   6.249   0.596   0.479 -0.9234  0.0521  0.2781
    3CHTO    N5 1157   6.167   0.499   0.653  0.0851  0.1744 -0.0212
    3CHTO   H43 1158   6.210   0.407   0.617 -0.9188 -0.4462  0.3283
    3CHTO   H44 1159   6.062   0.504   0.626 -0.1429 -0.1679  0.7931
    3CHTO   C25 1160   6.190   0.747   0.622  0.3325 -0.3682  0.9430
    3CHTO   H53 1161   6.183   0.757   0.731 -0.0826  1.7497  0.7616
    3CHTO   O17 1162   6.269   0.854   0.567 -0.4839 -0.2661 -0.5379
    3CHTO   C32 1163   6.401   0.849   0.622 -0.0052 -0.5047 -0.1697
    3CHTO   H60 1164   6.403   0.850   0.731  2.0976  0.4933 -0.1952
    3CHTO   C36 1165   6.477   0.975   0.574 -0.4530 -0.4294 -0.4416
    3CHTO   O25 1166   6.429   1.093   0.631 -0.7818 -0.7408  0.1523
    3CHTO   H40 1167   6.498   1.155   0.643 -0.1827 -0.9750 -1.8792
    3CHTO   O15 1168   6.035   0.764   0.562 -0.9341  0.3997  0.1005
    3CHTO   C19 1169   5.939   0.873   0.577  0.1345 -0.0106  0.0969
    3CHTO   H47 1170   5.863   0.844   0.504  1.5676  2.3409 -2.4507
    3CHTO   C20 1171   5.878   0.872   0.724 -0.1164  0.1156  0.8291
    3CHTO   H48 1172   5.958   0.852   0.797 -0.8418 -1.5865  1.1757
    3CHTO   O19 1173   5.796   0.756   0.729 -0.7148  0.0003  0.1027
    3CHTO   H35 1174   5.709   0.783   0.707 -1.8759 -1.7368  2.3692
    3CHTO   C21 1175   5.794   0.999   0.763  0.1220  0.3916  0.0515
    3CHTO   H49 1176   5.690   0.983   0.736 -0.4084  1.4220  1.3900
    3CHTO    N4 1177   5.777   1.016   0.911  0.5171  0.2863 -0.0600
    3CHTO   H41 1178   5.751   0.922   0.958 -0.1724  0.6263  0.2435
    3CHTO   H42 1179   5.700   1.089   0.929  0.1819 -0.2621  0.7886
    3CHTO   C22 1180   5.848   1.123   0.692  0.0196  0.0315  0.1387
    3CHTO   H50 1181   5.933   1.161   0.750  0.9240  2.3912 -2.6706
    3CHTO   O14 1182   5.874   1.097   0.553 -0.0932 -0.2775  0.2395
    3CHTO   C23 1183   5.986   1.013   0.531 -0.3270  0.6256  0.0100
    3CHTO   H51 1184   6.071   1.047   0.592 -1.7279  0.8062  1.8789
    3CHTO   C34 1185   6.023   1.026   0.382 -0.2705 -0.4702  0.5561
    3CHTO   O23 1186   6.072   1.156   0.343 -0.0285  0.5844 -0.3314
    3CHTO   H38 1187   6.026   1.227   0.384 -0.2172  0.7172 -0.7805
    3CHTO   O16 1188   5.743   1.221   0.694  0.0147 -0.1062  0.4445
    3CHTO   C24 1189   5.801   1.383   0.723 -0.5489 -0.0720 -0.1690
    3CHTO   H52 1190   5.908   1.383   0.744 -0.4319  0.9043 -0.7477
    3CHTO   C26 1191   5.724   1.448   0.838 -0.0721  0.6193 -0.7227
    3CHTO   H54 1192   5.615   1.462   0.820 -0.0194  2.8278  0.4123
    3CHTO   O20 1193   5.746   1.357   0.951  0.0627 -0.8201  0.3639
    3CHTO   H36 1194   5.679   1.292   0.955  1.0637 -2.0485 -2.0175
    3CHTO   C30 1195   5.784   1.590   0.871  0.2053  0.2443  0.0321
    3CHTO   H58 1196   5.878   1.573   0.926  0.3337 -0.7975 -0.5064
    3CHTO    N6 1197   5.699   1.653   0.971 -0.1254 -0.2236 -0.3071
    3CHTO   H45 1198   5.744   1.663   1.068 -2.2076  2.7493  0.4394
    3CHTO   H46 1199   5.672   1.750   0.931 -0.2111 -0.5608 -1.0669
    3CHTO   C33 1200   5.809   1.670   0.743  0.0019  0.7129  0.9498
    3CHTO   H61 1201   5.717   1.712   0.701 -0.3559 -1.4096 -0.5274
    3CHTO   O18 1202   5.869   1.593   0.634  0.7563  0.1532  0.1655
    3CHTO   C28 1203   5.780   1.477   0.597 -0.0656 -0.2323  0.5541
    3CHTO   H56 1204   5.674   1.500   0.582 -0.1703 -0.4426  0.9563
    3CHTO   C35 1205   5.828   1.398   0.473 -0.6915  0.0305 -0.0727
    3CHTO   O24 1206   5.845   1.484   0.362  0.0132 -0.8036  0.3740
    3CHTO   H39 1207   5.802   1.458   0.282  2.4679 -1.5009 -0.7466
    3CHTO    O9 1208   5.890   1.785   0.778 -0.1748  0.1382  0.4249
    3CHTO   C13 1209   5.894   1.891   0.664 -0.2650  0.0417  0.7334
    3CHTO   H26 1210   5.798   1.905   0.610  1.4741 -1.8393 -3.0568
    3CHTO   C11 1211   6.009   1.847   0.561 -0.6972 -0.3864 -0.6500
    3CHTO   H24 1212   5.960   1.766   0.505 -0.3388 -1.2085  0.2224
    3CHTO    O8 1213   6.120   1.799   0.622  0.0523 -0.0093 -0.2620
    3CHTO    H3 1214   6.186   1.795   0.556 -1.2387 -2.2577 -1.4669
    3CHTO    C9 1215   6.036   1.965   0.468  0.6414 -0.5543 -0.3580
    3CHTO   H22 1216   5.939   2.000   0.429  1.2495  0.6267 -0.8250
    3CHTO    N2 1217   6.122   1.930   0.355 -0.1591  0.5830 -0.6580
    3CHTO   H10 1218   6.223   1.910   0.388 -0.2991  0.4414 -0.3067
    3CHTO   H11 1219   6.110   2.012   0.286 -3.1514  1.0895  0.4146
    3CHTO    C7 1220   6.095   2.085   0.548 -0.2011  0.7884 -0.1548
    3CHTO   H20 1221   6.050   2.167   0.488  0.8343  2.9820  1.9753
    3CHTO    O4 1222   6.056   2.087   0.687 -0.2402 -0.2663  0.1007
    3CHTO   C14 1223   5.920   2.042   0.716 -0.0319  0.2578 -0.6263
    3CHTO   H27 1224   5.842   2.105   0.669 -2.0174 -0.6930  1.3030
    3CHTO   C18 1225   5.909   2.050   0.869 -0.4653  0.0757 -0.2743
    3CHTO   O13 1226   5.947   2.178   0.915  0.8013  1.1869 -0.2818
    3CHTO    H7 1227   5.873   2.235   0.913 -0.1971  0.0234  1.6013
    3CHTO    O2 1228   6.275   2.090   0.541  0.4235 -0.1965 -0.4522
    3CHTO    C1 1229   6.338   2.187   0.455  0.0906  0.1543 -0.0942
    3CHTO   H14 1230   6.272   2.217   0.371  0.5368 -1.1033 -0.8989
    3CHTO    C2 1231   6.475   2.134   0.391 -0.0372 -0.3780 -0.3576
    3CHTO   H15 1232   6.542   2.109   0.474  0.7822  1.4959 -0.4225
    3CHTO    O6 1233   6.453   2.015   0.309 -0.5184 -0.3654  0.0309
    3CHTO    H1 1234   6.521   2.012   0.244 -1.0428  0.0307 -0.5382
    3CHTO    C3 1235   6.541   2.250   0.299  0.0922 -0.3257 -0.0281
    3CHTO   H16 1236   6.477   2.292   0.219  0.0138  2.0783  1.2348
    3CHTO    N1 1237   6.662   2.209   0.222 -0.2001 -0.1894 -0.7753
    3CHTO    H8 1238   6.637   2.217   0.117 -1.1605 -1.3106 -0.6562
    3CHTO    H9 1239   6.694   2.110   0.250  2.4008  0.5735 -0.9436
    3CHTO    C4 1240   6.562   2.368   0.401 -0.0216 -0.0268 -0.8693
    3CHTO   H17 1241   6.619   2.335   0.488 -1.7181  0.8481  0.6281
    3CHTO    O1 1242   6.438   2.415   0.453 -0.2165  0.3055 -0.3536
    3CHTO    C5 1243   6.361   2.322   0.530 -0.1663  0.0463  0.1856
    3CHTO   H18 1244   6.419   2.300   0.620  0.8759  4.4707  0.6967
    3CHTO   C16 1245   6.226   2.393   0.574  0.0860 -0.0034  0.2604
    3CHTO   O11 1246   6.144   2.433   0.464  0.6494 -0.0716 -0.1034
    3CHTO    H5 1247   6.191   2.433   0.383 -0.8358 -0.0916 -1.0045
    3CHTO    O3 1248   6.628   2.475   0.329  0.2509 -0.1189  0.1423
    3CHTO    C6 1249   6.654   2.596   0.413  1.1468 -0.1562 -0.1579
    3CHTO   H19 1250   6.612   2.606   0.513 -1.0646  0.3869 -1.1060
    3CHTO    C8 1251   6.807   2.617   0.413  0.6285  0.0466 -0.1854
    3CHTO   H21 1252   6.846   2.619   0.311  3.1041 -0.7238  0.6892
    3CHTO    O7 1253   6.862   2.509   0.495 -0.0446  0.0630  0.4468
    3CHTO    H2 1254   6.906   2.445   0.442 -0.4494  0.0017  0.1840
    3CHTO   C12 1255   6.845   2.762   0.470  0.1673  0.5195  0.1658
    3CHTO   H25 1256   6.830   2.769   0.580 -1.7075  0.2289 -0.0656
    3CHTO    N3 1257   6.993   2.793   0.449  0.2871 -0.8404  0.4320
    3CHTO   H12 1258   7.009   2.897   0.474 -2.6500  0.0949 -1.3466
    3CHTO   H13 1259   7.017   2.762   0.348  1.7574  0.1664  0.4441
    3CHTO   C15 1260   6.751   2.871   0.403 -0.0890 -0.1355  0.8568
    3CHTO   H28 1261   6.775   2.888   0.298 -0.5923  0.3668  0.8187
    3CHTO   O10 1262   6.751   3.011   0.483 -0.6920  0.5397 -0.1909
    3CHTO    H4 1263   6.696   3.070   0.435 -1.3116  0.6043  0.5959
    3CHTO    O5 1264   6.615   2.829   0.414 -0.3884  0.5251  0.4096
    3CHTO   C10 1265   6.589   2.708   0.338  0.0492  0.2100 -0.3503
    3CHTO   H23 1266   6.620   2.716   0.234 -0.0380  1.0952 -0.3115
    3CHTO   C17 1267   6.435   2.711   0.334 -0.5729  0.1798  0.2036
    3CHTO   O12 1268   6.371   2.626   0.235  0.2259  0.1079  0.3599
    3CHTO    H6 1269   6.431   2.565   0.195 -0.4841 -2.2302  2.6883
    4CHTO  H203 1270   6.128   7.076   1.929 -0.6422  0.9215 -0.3333
    4CHTO   O82 1271   6.160   7.099   1.845  0.0492 -0.1337 -0.3610
    4CHTO  C123 1272   6.303   7.097   1.845 -0.5083  0.3891 -0.9973
    4CHTO  H227 1273   6.337   7.013   1.907  0.5185  0.8318 -0.9530
    4CHTO   O77 1274   6.330   7.073   1.707 -0.5520  0.6599 -0.5627
    4CHTO  C118 1275   6.471   7.072   1.665  0.4001 -0.1150 -0.1625
    4CHTO  H222 1276   6.516   6.990   1.723 -2.9754 -1.7162  0.3050
    4CHTO  C125 1277   6.477   7.040   1.514 -0.0902 -0.0671  0.0863
    4CHTO   O84 1278   6.500   6.900   1.488 -0.0809  0.4916 -0.5740
    4CHTO  H205 1279   6.507   6.891   1.395  0.2705 -0.6045 -0.4373
    4CHTO  C114 1280   6.533   7.206   1.697 -0.4937  0.9602 -0.0606
    4CHTO  H218 1281   6.487   7.285   1.637  1.2688  1.8217 -0.3088
    4CHTO  C116 1282   6.526   7.226   1.853 -0.5435 -0.6358 -0.9882
    4CHTO  H220 1283   6.576   7.139   1.901 -1.7020 -0.5220  0.4661
    4CHTO   O79 1284   6.587   7.347   1.903  0.2900  0.0196  0.3812
    4CHTO  H201 1285   6.680   7.340   1.893  0.1028  0.5041 -1.8629
    4CHTO  C120 1286   6.373   7.231   1.892 -0.3938  0.5258  0.9591
    4CHTO  H224 1287   6.325   7.320   1.846  0.5710  0.3105 -0.4941
    4CHTO   N21 1288   6.358   7.245   2.041  0.1276  0.3971  0.1121
    4CHTO  H211 1289   6.354   7.147   2.087 -0.6508 -0.6809 -2.1545
    4CHTO  H212 1290   6.265   7.295   2.059 -0.3550 -0.1515 -0.8133
    4CHTO   O75 1291   6.667   7.206   1.661 -0.7434  0.2908 -0.3622
    4CHTO  C112 1292   6.715   7.264   1.508  0.1506  0.1161  0.9392
    4CHTO  H216 1293   6.633   7.292   1.440  1.8020  1.4134 -0.5990
    4CHTO   O73 1294   6.794   7.158   1.447 -0.0333  0.6663 -0.0544
    4CHTO  C113 1295   6.818   7.188   1.306  0.5061  0.5526 -0.8721
    4CHTO  H217 1296   6.723   7.217   1.258 -0.5704 -0.4302  0.5854
    4CHTO  C124 1297   6.870   7.059   1.237  0.0075 -0.0023  0.5502
    4CHTO   O83 1298   6.841   7.057   1.095  0.0449  0.1082 -0.0107
    4CHTO  H204 1299   6.879   7.137   1.064 -4.1897  2.7613  1.1890
    4CHTO  C109 1300   6.916   7.305   1.299 -1.5936 -0.2204 -0.3340
    4CHTO  H213 1301   7.009   7.270   1.345 -1.0365  0.6207 -0.8033
    4CHTO  C110 1302   6.859   7.428   1.377 -0.2003  0.0956  0.4339
    4CHTO  H214 1303   6.765   7.447   1.325  0.7993  0.2977 -1.3343
    4CHTO   O78 1304   6.950   7.543   1.379 -0.3170 -0.1754 -0.1419
    4CHTO  H200 1305   6.918   7.624   1.411  2.2013  0.5492  0.6170
    4CHTO  C111 1306   6.812   7.394   1.521  0.2226  0.0521 -0.2524
    4CHTO  H215 1307   6.901   7.369   1.581 -1.0595  0.7473  1.9886
    4CHTO   N19 1308   6.740   7.497   1.594 -0.4631  0.8052 -0.6350
    4CHTO  H207 1309   6.807   7.556   1.656  0.4788  2.1480 -2.8667
    4CHTO  H208 1310   6.676   7.566   1.542  0.3710  0.3116 -2.3575
    4CHTO   O74 1311   6.951   7.341   1.159  0.7343 -0.2214  0.6780
    4CHTO  C115 1312   7.113   7.388   1.138  0.5686  0.6497 -0.2510
    4CHTO  H219 1313   7.146   7.459   1.214 -0.8434 -0.1295  1.1328
    4CHTO   O76 1314   7.206   7.268   1.144  0.7567 -0.0712  0.1189
    4CHTO  C122 1315   7.191   7.163   1.046  0.8243  0.2685 -0.0128
    4CHTO  H226 1316   7.090   7.123   1.054  0.5310  0.1994 -3.2762
    4CHTO  C126 1317   7.294   7.046   1.081 -0.5380  0.5396 -0.3097
    4CHTO   O85 1318   7.428   7.099   1.112  0.1120 -0.5308 -0.2171
    4CHTO  H206 1319   7.434   7.189   1.137 -1.3308 -0.2469 -0.8429
    4CHTO  C121 1320   7.209   7.223   0.903  0.0663  0.5658 -0.1889
    4CHTO  H225 1321   7.306   7.183   0.865 -0.7124 -0.5394 -1.0411
    4CHTO   O81 1322   7.091   7.180   0.824  0.6571  0.3236 -0.0020
    4CHTO  H202 1323   7.080   7.090   0.800 -1.7538  0.6184 -0.2004
    4CHTO  C119 1324   7.223   7.376   0.904  0.5333 -0.1566  0.2448
    4CHTO  H223 1325   7.318   7.407   0.948  1.8395 -1.5252 -1.5631
    4CHTO  C117 1326   7.123   7.453   0.998 -0.2906 -0.2999 -0.1127
    4CHTO  H221 1327   7.021   7.446   0.958 -0.8728  1.1814  1.0563
    4CHTO   N20 1328   7.154   7.600   1.016  0.0324  0.2582  1.0603
    4CHTO  H209 1329   7.245   7.627   1.068  1.1078  0.9909 -1.1567
    4CHTO  H210 1330   7.131   7.663   0.931  0.7378  0.1915  0.8109
    4CHTO   O80 1331   7.237   7.434   0.761 -0.1459  0.6256 -0.1117
    4CHTO  C103 1332   7.363   7.482   0.702  0.1243  0.0717  0.2502
    4CHTO  H190 1333   7.409   7.555   0.769 -2.3331 -1.8588  4.2137
    4CHTO  C101 1334   7.464   7.356   0.671 -0.6059  0.6811  0.6312
    4CHTO  H188 1335   7.416   7.265   0.633 -0.9358  0.5660  1.3248
    4CHTO   O68 1336   7.545   7.314   0.810  0.2989  0.1597  0.4127
    4CHTO  H168 1337   7.600   7.239   0.797  0.0951  0.2475 -0.9998
    4CHTO   C99 1338   7.571   7.395   0.556 -0.8079  0.2808 -0.1673
    4CHTO  H186 1339   7.642   7.469   0.600  1.1613 -1.3019 -0.6219
    4CHTO   N17 1340   7.650   7.273   0.514 -0.8906  0.0777 -0.0518
    4CHTO  H174 1341   7.758   7.271   0.520 -0.9842 -1.5255  1.4060
    4CHTO  H175 1342   7.613   7.226   0.424  1.4142 -0.0384 -0.9645
    4CHTO   C97 1343   7.501   7.462   0.440 -0.8387  0.1738 -0.1055
    4CHTO  H184 1344   7.431   7.389   0.397 -1.7926  0.8964  0.2201
    4CHTO   O64 1345   7.442   7.588   0.485  0.8101  0.7097  0.1944
    4CHTO  C104 1346   7.330   7.557   0.569  0.2684  0.3392 -0.3667
    4CHTO  H191 1347   7.260   7.500   0.509  0.1083  0.2946 -0.1375
    4CHTO  C108 1348   7.255   7.684   0.605 -0.0859  0.0706  0.1273
    4CHTO   O71 1349   7.122   7.675   0.665 -0.1614  0.2062  0.1020
    4CHTO  H171 1350   7.150   7.696   0.752  1.1468  0.6145 -0.4049
    4CHTO   O62 1351   7.599   7.510   0.341 -0.1006 -0.3130  0.1717
    4CHTO   C91 1352   7.544   7.550   0.213 -0.7785 -0.7212 -0.4562
    4CHTO  H178 1353   7.439   7.575   0.226  0.1110  2.6404  1.1256
    4CHTO   C92 1354   7.563   7.439   0.111  0.1997 -0.4741  0.0317
    4CHTO  H179 1355   7.670   7.414   0.110 -0.1278 -1.9561 -0.3719
    4CHTO   O66 1356   7.492   7.324   0.149  0.1570 -0.7352 -0.4990
    4CHTO  H166 1357   7.399   7.332   0.153  0.2861  0.3621  1.1940
    4CHTO   C93 1358   7.531   7.478  -0.040  0.1607  0.7958 -0.0859
    4CHTO  H180 1359   7.422   7.489  -0.044  0.2718  2.0488  0.0789
    4CHTO   N16 1360   7.561   7.365  -0.130  0.8281  0.6766  1.1691
    4CHTO  H172 1361   7.615   7.392  -0.219 -0.1327  0.0601  0.3879
    4CHTO  H173 1362   7.466   7.320  -0.157  1.2592  0.9971 -0.9351
    4CHTO   C94 1363   7.598   7.619  -0.075 -0.9417 -0.1304  0.7769
    4CHTO  H181 1364   7.707   7.614  -0.073 -0.9713 -0.6284  3.5166
    4CHTO   O61 1365   7.548   7.706   0.027 -0.6078  0.0647  0.0925
    4CHTO   C95 1366   7.607   7.680   0.155 -0.1652  0.9217  0.5573
    4CHTO  H182 1367   7.713   7.656   0.144 -0.2777  0.5805  0.2015
    4CHTO  C106 1368   7.572   7.804   0.250 -0.5209  0.0813  0.3086
    4CHTO   O69 1369   7.604   7.930   0.205  0.0057 -1.1535 -0.3318
    4CHTO  H169 1370   7.534   7.989   0.226 -2.2119 -3.5442 -0.7886
    4CHTO   O63 1371   7.557   7.687  -0.220 -0.0517 -0.6007 -0.1947
    4CHTO   C96 1372   7.406   7.753  -0.237 -0.8766 -0.5617  0.2345
    4CHTO  H183 1373   7.356   7.766  -0.141 -1.8477  1.0102 -0.4745
    4CHTO   C98 1374   7.308   7.685  -0.339 -0.4152 -0.6145 -0.0580
    4CHTO  H185 1375   7.349   7.691  -0.440 -0.0091 -0.5608  0.1094
    4CHTO   O67 1376   7.306   7.550  -0.304 -0.2007 -0.4096  0.4748
    4CHTO  H167 1377   7.387   7.506  -0.321  1.1434  2.1508  0.0843
    4CHTO  C102 1378   7.164   7.752  -0.333  0.1326 -0.1465  0.2301
    4CHTO  H189 1379   7.120   7.723  -0.237  0.2909 -0.7095  0.1313
    4CHTO   N18 1380   7.072   7.704  -0.434 -0.2827  0.4018 -0.2337
    4CHTO  H176 1381   7.028   7.608  -0.409 -0.8343  0.9836  1.0888
    4CHTO  H177 1382   7.120   7.710  -0.530  0.4075  2.1204  0.2169
    4CHTO  C105 1383   7.189   7.908  -0.331  0.2056 -0.8810 -0.0455
    4CHTO  H192 1384   7.109   7.953  -0.390  1.3207 -0.6286 -1.4084
    4CHTO   O65 1385   7.318   7.960  -0.367  0.1545 -0.1890 -0.3289
    4CHTO  C100 1386   7.437   7.896  -0.299  0.2132  0.1748  0.3961
    4CHTO  H187 1387   7.512   7.890  -0.379 -0.8542 -0.5455 -0.5625
    4CHTO  C107 1388   7.502   7.987  -0.186 -0.5089  0.4664 -0.1110
    4CHTO   O70 1389   7.414   8.031  -0.079  0.1583 -0.3537 -0.0030
    4CHTO  H170 1390   7.388   7.964  -0.019  0.7171 -0.1650  0.4549
    4CHTO   O57 1391   7.147   7.955  -0.185 -0.8507  0.1572  0.2307
    4CHTO   C85 1392   7.060   8.074  -0.169 -0.5273 -0.1701  0.0594
    4CHTO  H157 1393   7.057   8.126  -0.267  0.8055 -2.4173 -1.2101
    4CHTO   C83 1394   7.116   8.185  -0.077 -0.5181 -0.0466 -0.6425
    4CHTO  H155 1395   7.200   8.222  -0.135 -1.0760 -1.3439 -2.3545
    4CHTO   O56 1396   7.159   8.124   0.052  0.5332 -0.5245  0.8574
    4CHTO  H135 1397   7.166   8.197   0.111  0.7302 -1.2266  1.7116
    4CHTO   C81 1398   7.018   8.303  -0.058 -0.0679  0.9619  0.2929
    4CHTO  H153 1399   6.996   8.346  -0.156  1.5852  0.6734 -0.2127
    4CHTO   N14 1400   7.084   8.413   0.008  0.1021 -0.7041 -0.1572
    4CHTO  H141 1401   7.177   8.436  -0.038 -0.9605  0.2789 -1.8689
    4CHTO  H142 1402   7.098   8.397   0.113  0.5414  1.8523  0.2024
    4CHTO   C79 1403   6.884   8.250   0.006 -0.3745 -0.5453 -0.3194
    4CHTO  H151 1404   6.814   8.333   0.015 -0.9279 -0.8693 -1.5755
    4CHTO   O52 1405   6.825   8.142  -0.075 -0.0528 -0.2747 -0.4248
    4CHTO   C86 1406   6.914   8.033  -0.119  0.1271 -0.0201 -0.3003
    4CHTO  H158 1407   6.925   7.969  -0.029 -0.3334  0.3092 -0.0050
    4CHTO   C90 1408   6.838   7.947  -0.225  1.1505  0.1696  0.1964
    4CHTO   O60 1409   6.704   7.906  -0.197 -0.2073  0.3461 -0.2878
    4CHTO  H138 1410   6.642   7.960  -0.152  1.5612 -0.0827  2.7638
    4CHTO   O50 1411   6.901   8.198   0.136 -0.1491  0.5561  0.6228
    4CHTO   C73 1412   6.820   8.202   0.252 -0.3344  0.1083  0.1110
    4CHTO  H145 1413   6.769   8.300   0.252 -1.7231 -0.5748 -2.4628
    4CHTO   C74 1414   6.904   8.186   0.381 -0.2020  0.1339 -0.1295
    4CHTO  H146 1415   6.976   8.269   0.384  0.4111 -0.4357  2.5241
    4CHTO   O54 1416   6.818   8.217   0.493  0.5260 -0.0195  0.5835
    4CHTO  H133 1417   6.867   8.232   0.571  1.7105 -0.5057 -0.0501
    4CHTO   C75 1418   6.972   8.038   0.393  0.2634 -0.3394  0.3677
    4CHTO  H147 1419   7.051   8.032   0.317 -0.8366 -0.5721 -0.7695
    4CHTO   N13 1420   7.034   7.999   0.524  0.3636 -0.1430 -0.0385
    4CHTO  H139 1421   6.957   8.000   0.600  0.0236 -0.1374 -0.3774
    4CHTO  H140 1422   7.117   8.064   0.543  0.2065  0.7623 -2.3254
    4CHTO   C76 1423   6.846   7.930   0.357  0.1555  0.2198  0.2233
    4CHTO  H148 1424   6.772   7.938   0.436 -1.6832  0.2298 -1.4664
    4CHTO   O49 1425   6.770   7.965   0.240  0.1885  0.1219  0.0140
    4CHTO   C77 1426   6.709   8.092   0.249 -0.4233  0.6670  0.7495
    4CHTO  H149 1427   6.654   8.098   0.343  0.3418  0.8107  1.1920
    4CHTO   C88 1428   6.600   8.128   0.144  0.7247  0.0118 -0.2482
    4CHTO   O58 1429   6.496   8.050   0.154  0.1479 -0.2622  0.1229
    4CHTO  H136 1430   6.415   8.096   0.159  0.9398  1.2577 -0.5240
    4CHTO   O51 1431   6.905   7.777   0.354 -0.2644  0.2507 -0.4446
    4CHTO   C78 1432   6.899   7.694   0.202  0.4962  0.3029  0.5889
    4CHTO  H150 1433   6.894   7.768   0.120  0.2341  0.4568  0.7426
    4CHTO   C80 1434   6.776   7.598   0.190 -0.3413 -0.0238  0.5550
    4CHTO  H152 1435   6.770   7.538   0.283 -1.3181  1.3281  1.3848
    4CHTO   O55 1436   6.654   7.676   0.211 -0.4273  0.2018 -0.2450
    4CHTO  H134 1437   6.612   7.687   0.128  0.3699 -1.2141 -0.8568
    4CHTO   C84 1438   6.777   7.503   0.065  0.5492  0.6679  0.1662
    4CHTO  H156 1439   6.754   7.569  -0.020  1.9890 -1.7673 -2.1912
    4CHTO   N15 1440   6.680   7.391   0.066  0.4233 -0.6779  0.3087
    4CHTO  H143 1441   6.602   7.391  -0.007  2.6057  0.2927 -2.1082
    4CHTO  H144 1442   6.654   7.354   0.163 -0.5030 -3.0148 -0.7761
    4CHTO   C87 1443   6.922   7.441   0.043  0.1453 -0.1989  0.2803
    4CHTO  H159 1444   6.940   7.374   0.127  0.5984  1.9116  1.8926
    4CHTO   O53 1445   7.018   7.552   0.053 -0.6359 -0.7974 -0.0226
    4CHTO   C82 1446   7.022   7.605   0.184 -0.6042  0.2838  0.0066
    4CHTO  H154 1447   7.017   7.518   0.250 -1.8151 -1.4917 -2.3518
    4CHTO   C89 1448   7.156   7.685   0.222 -0.2927 -0.6627  0.6000
    4CHTO   O59 1449   7.190   7.792   0.137 -0.2091  0.1439  0.1121
    4CHTO  H137 1450   7.133   7.867   0.136 -0.8897 -0.3652 -0.7573
    4CHTO   O45 1451   6.949   7.344  -0.088 -0.0732  0.1994 -0.0834
    4CHTO   C67 1452   7.089   7.294  -0.098 -0.0779 -0.2496 -0.5740
    4CHTO  H124 1453   7.153   7.381  -0.112  1.8022 -1.7177 -1.1742
    4CHTO   C65 1454   7.147   7.206   0.017  0.9952  0.1397 -0.1510
    4CHTO  H122 1455   7.134   7.257   0.113  0.1082 -0.2913 -0.0411
    4CHTO   O44 1456   7.284   7.174  -0.006  0.1785  0.3946  0.6268
    4CHTO  H102 1457   7.328   7.253  -0.032  0.1446  0.4161  0.6359
    4CHTO   C63 1458   7.058   7.074   0.013  0.6130 -0.0882  0.1761
    4CHTO  H120 1459   6.954   7.105   0.016  0.6754  0.3685 -1.7507
    4CHTO   N11 1460   7.072   6.983   0.134  0.5705  0.1555 -0.6275
    4CHTO  H108 1461   7.012   6.896   0.117 -0.1647  0.5521 -0.0906
    4CHTO  H109 1462   7.063   7.035   0.227 -3.0138 -0.9379 -0.2673
    4CHTO   C61 1463   7.084   6.997  -0.123  1.2324 -0.7057  0.1104
    4CHTO  H118 1464   7.007   6.918  -0.126 -1.6864  2.0677 -1.8222
    4CHTO   O40 1465   7.060   7.083  -0.233  0.1915 -0.1914 -0.2629
    4CHTO   C68 1466   7.103   7.219  -0.234  0.0209 -0.7116  0.4002
    4CHTO  H125 1467   7.032   7.270  -0.303  0.9099  1.0574  0.7528
    4CHTO   C72 1468   7.247   7.247  -0.296  0.3175  0.4077  0.5792
    4CHTO   O48 1469   7.250   7.266  -0.441  1.3154  0.5943  0.3958
    4CHTO  H105 1470   7.283   7.187  -0.480 -0.3819 -1.0215  2.1642
    4CHTO   O38 1471   7.213   6.936  -0.135 -0.1766  0.6926  0.4253
    4CHTO   C55 1472   7.231   6.805  -0.196 -0.0636 -0.0576  0.3269
    4CHTO  H112 1473   7.134   6.774  -0.237 -0.4019 -3.1048  3.1893
    4CHTO   C56 1474   7.290   6.685  -0.103  0.3029 -0.3534 -0.3018
    4CHTO  H113 1475   7.381   6.729  -0.058 -0.5906  1.0475  0.1518
    4CHTO   O42 1476   7.195   6.656  -0.004 -0.3462 -0.2930  0.5586
    4CHTO  H100 1477   7.207   6.571   0.034  1.1672  0.5092  1.9276
    4CHTO   C57 1478   7.327   6.552  -0.180 -0.8777  0.5945  0.5073
    4CHTO  H114 1479   7.229   6.510  -0.204  0.7046 -2.5634 -0.6452
    4CHTO   N10 1480   7.392   6.448  -0.090 -0.0485  0.1454  0.4106
    4CHTO  H106 1481   7.370   6.350  -0.131  1.1316 -0.1355  0.4398
    4CHTO  H107 1482   7.345   6.455   0.007  1.2841  1.5820  0.9723
    4CHTO   C58 1483   7.404   6.587  -0.302 -0.5073  0.1244  0.1674
    4CHTO  H115 1484   7.503   6.629  -0.276 -0.3890  0.3430 -0.6090
    4CHTO   O37 1485   7.347   6.687  -0.388 -0.0152 -0.0602  0.2129
    4CHTO   C59 1486   7.322   6.811  -0.324 -0.9487 -0.3098  0.1038
    4CHTO  H116 1487   7.417   6.851  -0.289 -0.4634 -1.0933 -0.2958
    4CHTO   C70 1488   7.257   6.908  -0.430 -0.0431 -0.0382 -0.3128
    4CHTO   O46 1489   7.347   6.947  -0.533  0.2130 -0.0098  0.3251
    4CHTO  H103 1490   7.353   7.040  -0.542  3.8872 -0.3762 -1.9121
    4CHTO   O39 1491   7.422   6.459  -0.399 -0.1791 -0.5997 -0.2561
    4CHTO   C60 1492   7.314   6.380  -0.460  0.1644  1.1178 -0.3327
    4CHTO  H117 1493   7.221   6.380  -0.403  0.8997  1.6934  0.8752
    4CHTO   C62 1494   7.268   6.445  -0.598 -0.1017 -0.2451 -0.0585
    4CHTO  H119 1495   7.218   6.538  -0.564  0.5082  0.5870 -1.4190
    4CHTO   O43 1496   7.381   6.469  -0.684 -0.1460 -0.2432 -0.1735
    4CHTO  H101 1497   7.413   6.393  -0.729 -0.5828  0.3911 -1.5683
    4CHTO   C66 1498   7.151   6.361  -0.674 -0.0956 -0.2723 -0.1512
    4CHTO  H123 1499   7.069   6.342  -0.604  0.0094 -1.2133 -0.2758
    4CHTO   N12 1500   7.084   6.416  -0.788  0.2157 -0.3502  0.4636
    4CHTO  H110 1501   7.020   6.501  -0.774 -0.6867 -0.0494 -4.4648
    4CHTO  H111 1502   7.159   6.441  -0.862 -1.9037  1.1015 -1.2521
    4CHTO   C69 1503   7.211   6.223  -0.705  0.1947  0.4678  0.1014
    4CHTO  H126 1504   7.299   6.222  -0.773 -1.8908 -1.0705 -2.6202
    4CHTO   O41 1505   7.256   6.158  -0.559 -0.2761 -0.7626  0.0544
    4CHTO   C64 1506   7.356   6.235  -0.484  0.1062 -0.1682 -0.8209
    4CHTO  H121 1507   7.447   6.235  -0.548  1.7220  0.7237  1.4007
    4CHTO   C71 1508   7.393   6.159  -0.351 -0.6800 -0.8852  0.0398
    4CHTO   O47 1509   7.441   6.024  -0.354  0.0346 -0.2424  0.9057
    4CHTO  H104 1510   7.390   5.974  -0.294  2.3407 -2.6738  0.9944
    4CHTO   O34 1511   7.099   6.120  -0.767  0.2263 -0.4341  0.2637
    4CHTO   C49 1512   7.137   5.976  -0.821  0.3379  0.5490 -0.2577
    4CHTO   H91 1513   7.245   5.975  -0.838  0.3727  0.0404 -0.0214
    4CHTO   C47 1514   7.060   5.937  -0.946 -0.0324  0.9745 -0.3443
    4CHTO   H89 1515   7.091   5.835  -0.979  0.1914  1.3872 -1.4354
    4CHTO   O33 1516   7.110   6.026  -1.042  0.9797 -0.4187  0.1059
    4CHTO   H70 1517   7.059   6.029  -1.120  1.2828  1.2983 -0.0371
    4CHTO   C45 1518   6.899   5.934  -0.909  0.3957  0.1615 -0.0063
    4CHTO   H87 1519   6.875   6.032  -0.867  1.2002  0.0050  0.8348
    4CHTO    N8 1520   6.810   5.914  -1.029  0.2093 -0.8929 -0.1425
    4CHTO   H75 1521   6.706   5.911  -1.000  0.3059 -1.4781  0.1591
    4CHTO   H76 1522   6.835   5.827  -1.088  2.4057 -0.8422  0.6632
    4CHTO   C43 1523   6.866   5.837  -0.779 -0.3964 -0.2064 -0.0330
    4CHTO   H85 1524   6.766   5.873  -0.755  0.1051  2.2666 -1.4573
    4CHTO   O29 1525   6.960   5.854  -0.672  0.1273 -0.5955  0.2540
    4CHTO   C50 1526   7.099   5.878  -0.707  0.3691 -0.5772 -0.8695
    4CHTO   H92 1527   7.151   5.906  -0.615  0.2608 -0.1367 -0.9397
    4CHTO   C54 1528   7.168   5.732  -0.726 -0.1048 -0.1800 -0.3829
    4CHTO   O36 1529   7.304   5.754  -0.745  0.0166 -0.2198  0.1233
    4CHTO   H72 1530   7.314   5.794  -0.829 -0.1762  0.8388  0.6010
    4CHTO   O27 1531   6.871   5.701  -0.812 -0.0069  0.3284 -0.0614
    4CHTO   C37 1532   6.818   5.565  -0.799 -0.3389  0.7417  0.1657
    4CHTO   H79 1533   6.766   5.530  -0.890  0.6962  1.7704 -0.8533
    4CHTO   C38 1534   6.941   5.468  -0.776 -0.3069  0.9367  0.5664
    4CHTO   H80 1535   6.999   5.502  -0.689 -1.0077  2.0076  0.6273
    4CHTO   O31 1536   7.013   5.480  -0.903  0.4026 -0.2567  0.1102
    4CHTO   H68 1537   7.032   5.570  -0.918 -0.4109 -0.2271 -0.8342
    4CHTO   C39 1538   6.899   5.315  -0.746  0.5701  0.0112 -0.3856
    4CHTO   H81 1539   6.856   5.284  -0.842 -0.5090  1.8853 -0.5343
    4CHTO    N7 1540   7.022   5.236  -0.716 -0.5759 -0.1337 -1.0071
    4CHTO   H73 1541   7.094   5.248  -0.796 -0.4299 -1.0187 -1.0077
    4CHTO   H74 1542   6.998   5.134  -0.688 -1.4182  0.5991  1.0401
    4CHTO   C40 1543   6.793   5.317  -0.623 -0.1200 -0.7105 -0.4663
    4CHTO   H82 1544   6.847   5.348  -0.534  0.1251  0.6662 -1.0788
    4CHTO   O26 1545   6.687   5.411  -0.656 -1.1422 -0.2205 -0.6369
    4CHTO   C41 1546   6.731   5.546  -0.675 -0.0048  0.6845  0.9342
    4CHTO   H83 1547   6.794   5.578  -0.591 -0.2897  1.4775  0.8473
    4CHTO   C52 1548   6.612   5.646  -0.678 -0.5267  0.4886 -0.0843
    4CHTO   O35 1549   6.536   5.648  -0.546 -0.4967 -0.4283  0.4579
    4CHTO   H71 1550   6.470   5.714  -0.533 -0.6030 -0.4840  0.1972
    4CHTO   O28 1551   6.738   5.192  -0.595  0.1239 -0.0968  0.0993
    4CHTO   C42 1552   6.665   5.172  -0.474 -0.2028 -0.0336  0.6757
    4CHTO   H84 1553   6.631   5.068  -0.479 -0.7471  0.2172 -1.7384
    4CHTO   C44 1554   6.539   5.258  -0.436 -0.2572 -0.2375  0.5848
    4CHTO   H86 1555   6.557   5.365  -0.446 -2.9004  0.2641  0.9284
    4CHTO   O32 1556   6.443   5.236  -0.540  0.6714  0.0901  0.1654
    4CHTO   H69 1557   6.363   5.278  -0.515 -0.3851 -0.7990 -1.6613
    4CHTO   C48 1558   6.481   5.227  -0.286 -0.4930  0.2313  0.1320
    4CHTO   H90 1559   6.430   5.130  -0.284  0.2905 -0.2334 -1.5025
    4CHTO    N9 1560   6.377   5.323  -0.257  0.0279 -0.2841 -0.2674
    4CHTO   H77 1561   6.340   5.311  -0.156  0.5231 -0.1671 -0.0688
    4CHTO   H78 1562   6.417   5.424  -0.263 -0.2713 -0.0464  1.4821
    4CHTO   C51 1563   6.592   5.221  -0.176  0.7386  0.2718 -0.0371
    4CHTO   H93 1564   6.636   5.320  -0.164 -0.6254  0.6607  2.0449
    4CHTO   O30 1565   6.687   5.128  -0.214  0.0355 -0.1866  0.1991
    4CHTO   C46 1566   6.756   5.172  -0.346 -0.5385  0.2079 -0.6861
    4CHTO   H88 1567   6.801   5.270  -0.327  0.9341 -0.8091  1.2835
    4CHTO   C53 1568   6.878   5.075  -0.364  0.7959 -0.4038 -0.6996
    4CHTO   O72 1569   6.838   4.941  -0.348 -0.0293  0.8963  0.0295
    4CHTO  H199 1570   6.764   4.910  -0.398 -0.6581  0.3655  1.2552
    4CHTO   O22 1571   6.543   5.173  -0.051 -0.1062 -0.4238  0.4750
    4CHTO   C31 1572   6.597   5.220   0.070  0.2707 -0.6782 -0.4367
    4CHTO   H59 1573   6.705   5.239   0.056  0.4033 -1.5222 -0.5829
    4CHTO   C29 1574   6.533   5.356   0.107  0.6448 -0.0173  0.1362
    4CHTO   H57 1575   6.424   5.342   0.118  0.6556  0.9417  1.6214
    4CHTO   O21 1576   6.549   5.457   0.003  0.0173  0.0208  0.4756
    4CHTO   H37 1577   6.635   5.490  -0.017  0.5132 -1.7843 -0.4707
    4CHTO   C27 1578   6.589   5.417   0.249 -0.0705  0.8932 -0.0970
    4CHTO   H55 1579   6.693   5.454   0.240 -0.3536  1.5065 -0.8334
    4CHTO    N5 1580   6.502   5.526   0.301 -0.0854  0.0197  0.3135
    4CHTO   H43 1581   6.554   5.575   0.382 -0.4760  0.5796  0.2284
    4CHTO   H44 1582   6.395   5.514   0.295 -0.3991  2.1151  1.2816
    4CHTO   C25 1583   6.590   5.298   0.349 -0.1833  0.0010  0.0961
    4CHTO   H53 1584   6.494   5.286   0.400 -0.1266  1.0898  0.4630
    4CHTO   O17 1585   6.638   5.170   0.304 -0.3609 -0.1816 -0.5924
    4CHTO   C32 1586   6.584   5.118   0.183 -0.1192  0.0987 -0.2160
    4CHTO   H60 1587   6.478   5.101   0.201  0.0055 -2.2423 -1.5106
    4CHTO   C36 1588   6.657   4.980   0.159  0.6766 -0.3005 -0.0210
    4CHTO   O25 1589   6.791   4.995   0.110 -0.0864 -0.1796  0.2411
    4CHTO   H40 1590   6.822   4.909   0.089 -0.4534 -0.2841  0.1307
    4CHTO   O15 1591   6.670   5.330   0.466  0.2580  0.0570 -0.3277
    4CHTO   C19 1592   6.794   5.295   0.534 -0.4618  0.1329 -0.4898
    4CHTO   H47 1593   6.799   5.186   0.524  0.8515  0.1089  0.2858
    4CHTO   C20 1594   6.925   5.356   0.483  0.2931 -0.1198 -0.2228
    4CHTO   H48 1595   6.924   5.466   0.489  1.4314 -0.0054 -1.9134
    4CHTO   O19 1596   6.932   5.324   0.342  0.2779 -0.5906 -0.5551
    4CHTO   H35 1597   7.022   5.322   0.318  0.1022  1.2687 -1.4632
    4CHTO   C21 1598   7.047   5.304   0.567 -0.0158 -0.8972 -0.3334
    4CHTO   H49 1599   7.063   5.197   0.554  0.0238 -0.7790 -1.3279
    4CHTO    N4 1600   7.179   5.357   0.522  1.0242 -0.3615  0.3487
    4CHTO   H41 1601   7.196   5.327   0.420  0.5087  1.4878 -0.3095
    4CHTO   H42 1602   7.255   5.319   0.588  1.4291  0.2604  0.2443
    4CHTO   C22 1603   7.030   5.334   0.718  0.0022 -0.4387 -0.0809
    4CHTO   H50 1604   7.026   5.443   0.721 -1.7691 -0.4858 -0.3092
    4CHTO   O14 1605   6.899   5.284   0.761 -0.5378  0.0499  0.2763
    4CHTO   C23 1606   6.781   5.320   0.689  1.1222  0.1806 -0.0352
    4CHTO   H51 1607   6.764   5.425   0.716 -1.4500 -0.5718  1.4665
    4CHTO   C34 1608   6.663   5.242   0.754  0.1458  0.0823  0.0021
    4CHTO   O23 1609   6.649   5.108   0.702 -0.1905 -0.0157  0.0767
    4CHTO   H38 1610   6.619   5.108   0.613 -1.5612 -0.1839  0.5236
    4CHTO   O16 1611   7.125   5.277   0.810  0.2518 -0.0109 -0.0779
    4CHTO   C24 1612   7.135   5.371   0.945 -0.3381 -0.4485 -0.2892
    4CHTO   H52 1613   7.047   5.434   0.958  0.0908  0.1818 -0.4420
    4CHTO   C26 1614   7.263   5.454   0.953 -0.0049  0.3867 -0.1655
    4CHTO   H54 1615   7.351   5.387   0.943  0.9510  1.0965  2.8408
    4CHTO   O20 1616   7.277   5.541   0.840 -0.3413  0.1326 -0.6290
    4CHTO   H36 1617   7.197   5.584   0.815 -1.4842 -0.4358  1.9077
    4CHTO   C30 1618   7.281   5.535   1.087  0.0671  0.5195  0.0176
    4CHTO   H58 1619   7.201   5.609   1.103  0.0332  0.0383  2.3173
    4CHTO    N6 1620   7.418   5.597   1.099  0.2995 -0.2773  0.8967
    4CHTO   H45 1621   7.484   5.511   1.100 -0.7155 -1.1767 -3.0447
    4CHTO   H46 1622   7.433   5.652   1.191  1.4573  0.7363  0.1211
    4CHTO   C33 1623   7.253   5.442   1.211  0.0676 -0.4436  0.2336
    4CHTO   H61 1624   7.340   5.379   1.237  1.7440  1.5353 -0.4297
    4CHTO   O18 1625   7.140   5.360   1.186  0.1769 -0.3864  0.6917
    4CHTO   C28 1626   7.146   5.280   1.069 -0.4138 -0.6435 -0.0630
    4CHTO   H56 1627   7.239   5.224   1.066  0.2580  0.4915 -0.4232
    4CHTO   C35 1628   7.024   5.184   1.068  0.0877  0.2410  0.0110
    4CHTO   O24 1629   7.015   5.079   1.168 -0.0488 -0.4796  0.0327
    4CHTO   H39 1630   6.926   5.071   1.196 -0.6962  0.7752 -1.6005
    4CHTO    O9 1631   7.235   5.529   1.326 -0.4029  0.0772  0.6165
    4CHTO   C13 1632   7.221   5.455   1.472  0.2843  0.2370 -0.1700
    4CHTO   H26 1633   7.305   5.385   1.488 -0.2907 -0.2744  0.6877
    4CHTO   C11 1634   7.079   5.372   1.489  0.1818 -0.3658 -0.5032
    4CHTO   H24 1635   7.089   5.281   1.427 -1.1718 -1.0858  0.3096
    4CHTO    O8 1636   6.962   5.441   1.446  0.1494  0.4746 -0.2618
    4CHTO    H3 1637   6.959   5.524   1.490 -2.8160  0.3708 -0.2079
    4CHTO    C9 1638   7.087   5.318   1.635 -0.1152 -0.4643  0.0446
    4CHTO   H22 1639   7.179   5.258   1.644 -1.2567 -2.2129  0.1355
    4CHTO    N2 1640   6.976   5.223   1.659 -0.2196 -0.4823  0.3761
    4CHTO   H10 1641   6.900   5.272   1.718 -1.6545 -0.2960 -1.5685
    4CHTO   H11 1642   7.019   5.135   1.705 -0.5012 -0.6758  0.2731
    4CHTO    C7 1643   7.091   5.436   1.734  0.7667  0.5658 -0.5785
    4CHTO   H20 1644   7.104   5.380   1.829  3.1221  0.7861 -0.7518
    4CHTO    O4 1645   7.207   5.521   1.715 -0.2228 -0.0211 -0.2011
    4CHTO   C14 1646   7.236   5.567   1.583 -0.2090 -0.8348  0.0129
    4CHTO   H27 1647   7.344   5.595   1.581 -0.0180 -1.5569  0.1702
    4CHTO   C18 1648   7.155   5.700   1.557  0.1837  0.4858  0.3300
    4CHTO   O13 1649   7.222   5.813   1.609 -0.0590 -0.2982  0.6789
    4CHTO    H7 1650   7.190   5.892   1.571 -2.2599 -1.5403 -0.1353
    4CHTO    O2 1651   6.966   5.526   1.740  0.1566 -0.4323 -0.0156
    4CHTO    C1 1652   6.950   5.617   1.852  0.0475  0.4208  0.0547
    4CHTO   H14 1653   7.026   5.698   1.855 -1.5991  1.9951  0.8306
    4CHTO    C2 1654   6.942   5.553   1.995 -0.9850 -0.7434 -0.4444
    4CHTO   H15 1655   6.886   5.459   1.986  0.0132 -1.4777  0.8720
    4CHTO    O6 1656   7.069   5.519   2.056  0.6441  0.1599  0.5225
    4CHTO    H1 1657   7.103   5.461   1.990  0.8556  0.1314  0.6548
    4CHTO    C3 1658   6.865   5.650   2.105  0.7937  0.1333  0.7764
    4CHTO   H16 1659   6.951   5.714   2.131 -0.1829  1.0087  1.9633
    4CHTO    N1 1660   6.823   5.573   2.228  0.6328  0.0467  0.5624
    4CHTO    H8 1661   6.716   5.558   2.228  0.2156  2.6074 -0.7525
    4CHTO    H9 1662   6.871   5.617   2.314  1.0630 -0.7514  0.7320
    4CHTO    C4 1663   6.754   5.744   2.050 -0.7675 -0.3454 -0.1455
    4CHTO   H17 1664   6.660   5.691   2.036 -1.4898  1.8689 -4.4309
    4CHTO    O1 1665   6.792   5.801   1.920  0.1052  0.1745 -0.2987
    4CHTO    C5 1666   6.821   5.705   1.816 -0.0421  0.2142 -0.6204
    4CHTO   H18 1667   6.744   5.630   1.797  0.9790 -0.9376 -0.2626
    4CHTO   C16 1668   6.827   5.789   1.690  0.0147 -0.5313  0.7200
    4CHTO   O11 1669   6.815   5.702   1.577 -0.0760 -0.0668  0.5209
    4CHTO    H5 1670   6.749   5.640   1.599 -1.1770  1.3941  1.4129
    4CHTO    O3 1671   6.730   5.852   2.142  0.0960  0.4269 -0.4844
    4CHTO    C6 1672   6.611   5.924   2.143  0.3482  0.5664 -0.3714
    4CHTO   H19 1673   6.561   5.916   2.046  1.5516  0.8143 -1.0261
    4CHTO    C8 1674   6.507   5.851   2.240  0.4416 -0.5925 -0.0873
    4CHTO   H21 1675   6.548   5.852   2.341 -0.9497  0.2702  0.4827
    4CHTO    O7 1676   6.490   5.713   2.191 -0.1357  0.6706 -0.4331
    4CHTO    H2 1677   6.568   5.664   2.206  0.0593  0.0550 -3.1231
    4CHTO   C12 1678   6.375   5.935   2.255  0.4113 -0.5237 -0.2509
    4CHTO   H25 1679   6.310   5.911   2.169 -0.1122 -0.7321  0.2051
    4CHTO    N3 1680   6.286   5.888   2.363  0.1862  0.1675  0.2320
    4CHTO   H12 1681   6.198   5.951   2.361 -0.4397 -0.6875  0.7937
    4CHTO   H13 1682   6.331   5.896   2.461  0.3875 -2.1226  0.3410
    4CHTO   C15 1683   6.394   6.089   2.265  0.7947  0.0345 -0.1921
    4CHTO   H28 1684   6.436   6.115   2.363 -0.1318 -2.5787  0.9542
    4CHTO   O10 1685   6.270   6.179   2.215  0.3902  0.7737 -0.5488
    4CHTO    H4 1686   6.274   6.188   2.122  1.1229  2.6869 -0.3732
    4CHTO    O5 1687   6.491   6.126   2.169  0.1752 -0.3140 -0.2635
    4CHTO   C10 1688   6.625   6.074   2.177 -0.1137  1.0850 -0.2499
    4CHTO   H23 1689   6.652   6.080   2.282 -1.4754  1.1945  0.0994
    4CHTO   C17 1690   6.724   6.149   2.086 -0.7232 -0.5757 -0.3150
    4CHTO   O12 1691   6.673   6.136   1.955  0.2600 -0.0682 -0.0125
    4CHTO    H6 1692   6.585   6.169   1.948  0.1583 -0.2048  0.5770
    5CHTO  H203 1693   7.263   2.774   2.201 -2.5346  0.8763 -0.9445
    5CHTO   O82 1694   7.229   2.734   2.278 -0.4930  0.6025 -0.1509
    5CHTO  C123 1695   7.226   2.839   2.375 -0.5647  0.9054 -0.4690
    5CHTO  H227 1696   7.322   2.891   2.366  0.8273 -1.5796 -0.3844
    5CHTO   O77 1697   7.119   2.915   2.321  0.1044 -0.2779  0.7463
    5CHTO  C118 1698   7.107   3.036   2.408 -0.5091 -0.6308 -0.0390
    5CHTO  H222 1699   7.206   3.080   2.428 -0.4342 -1.5638  1.8107
    5CHTO  C125 1700   7.011   3.146   2.346  0.1944  0.6096  0.3673
    5CHTO   O84 1701   7.017   3.169   2.205  0.0557 -0.2660  0.4968
    5CHTO  H205 1702   7.088   3.224   2.178 -2.8376  1.7412 -3.5354
    5CHTO  C114 1703   7.059   2.994   2.549 -0.0241  0.0778 -0.0597
    5CHTO  H218 1704   6.962   2.946   2.538 -0.0501 -0.2484  1.4977
    5CHTO  C116 1705   7.163   2.896   2.620 -0.2535 -0.0598 -0.5828
    5CHTO  H220 1706   7.247   2.957   2.660 -0.0235 -1.7760  1.6884
    5CHTO   O79 1707   7.114   2.835   2.745 -0.4062 -0.1610 -0.0493
    5CHTO  H201 1708   7.159   2.754   2.758 -0.1421  0.0750  0.5389
    5CHTO  C120 1709   7.209   2.782   2.522 -0.2276 -0.8447 -0.0025
    5CHTO  H224 1710   7.122   2.713   2.522 -1.2975  0.4850  0.7303
    5CHTO   N21 1711   7.326   2.708   2.579 -0.4299 -0.0789 -0.3919
    5CHTO  H211 1712   7.332   2.720   2.686  0.9260  1.8050 -0.6431
    5CHTO  H212 1713   7.317   2.605   2.548  0.4225 -0.3495  0.2245
    5CHTO   O75 1714   7.035   3.116   2.626  0.0465  0.3967 -0.0146
    5CHTO  C112 1715   6.912   3.106   2.732  0.8374 -0.2622 -0.2162
    5CHTO  H216 1716   6.881   3.004   2.757 -2.8392  0.6559 -0.7518
    5CHTO   O73 1717   6.806   3.179   2.666  0.0195 -0.0194  0.3087
    5CHTO  C113 1718   6.686   3.175   2.746  0.0355 -0.1070  0.6689
    5CHTO  H217 1719   6.664   3.067   2.758 -1.6036 -0.0462 -1.4519
    5CHTO  C124 1720   6.564   3.228   2.665  0.0176  0.3273 -0.0821
    5CHTO   O83 1721   6.535   3.134   2.565  0.6364 -0.2439  0.1563
    5CHTO  H204 1722   6.553   3.173   2.482  2.5182  0.6893  0.9814
    5CHTO  C109 1723   6.705   3.258   2.875  0.3992 -0.1503 -0.2536
    5CHTO  H213 1724   6.737   3.357   2.839  0.2517  0.0319  0.1132
    5CHTO  C110 1725   6.826   3.198   2.954 -0.2267 -0.0416  0.1277
    5CHTO  H214 1726   6.792   3.103   2.997 -1.8655  0.1178 -0.7838
    5CHTO   O78 1727   6.859   3.287   3.064 -0.1198 -0.1986  0.5362
    5CHTO  H200 1728   6.852   3.378   3.043 -2.4802 -0.4504  0.1107
    5CHTO  C111 1729   6.950   3.178   2.868  0.3069  0.3323  0.2548
    5CHTO  H215 1730   6.991   3.277   2.842  0.5385  0.4330  0.9873
    5CHTO   N19 1731   7.059   3.100   2.939 -0.0984 -0.1751 -0.5946
    5CHTO  H207 1732   7.158   3.123   2.902 -0.3270 -1.3648 -1.9812
    5CHTO  H208 1733   7.049   3.114   3.046  0.0105 -1.0500 -0.4726
    5CHTO   O74 1734   6.577   3.275   2.949  0.0368 -0.0178  0.4726
    5CHTO  C115 1735   6.574   3.386   3.060  0.1944  0.1138  0.3862
    5CHTO  H219 1736   6.631   3.353   3.147 -0.1200 -2.0359 -0.1802
    5CHTO   O76 1737   6.638   3.519   3.007 -0.2794 -0.0313  0.1155
    5CHTO  C122 1738   6.565   3.585   2.902  0.0566 -0.0896  0.1499
    5CHTO  H226 1739   6.606   3.549   2.808  1.3188 -0.8596  0.9795
    5CHTO  C126 1740   6.623   3.735   2.915  0.2743 -0.3291 -0.3364
    5CHTO   O85 1741   6.583   3.826   2.811  0.4739 -0.1210  0.4778
    5CHTO  H206 1742   6.527   3.888   2.853 -0.7570 -0.3166 -0.8279
    5CHTO  C121 1743   6.415   3.582   2.906  0.2583  0.3116 -0.2110
    5CHTO  H225 1744   6.374   3.679   2.872  1.5923  1.6032  1.7657
    5CHTO   O81 1745   6.367   3.490   2.808  0.0315 -0.4321 -0.2369
    5CHTO  H202 1746   6.369   3.526   2.721  1.0068 -0.2081 -0.1278
    5CHTO  C119 1747   6.370   3.550   3.062  0.3945  0.1522 -0.2439
    5CHTO  H223 1748   6.421   3.622   3.125  1.9147 -0.5986 -0.5807
    5CHTO  C117 1749   6.423   3.406   3.106 -0.1364 -0.8839 -0.3259
    5CHTO  H221 1750   6.364   3.325   3.063 -2.6813  1.8121 -2.0518
    5CHTO   N20 1751   6.411   3.389   3.253 -0.0474 -0.3688 -0.2410
    5CHTO  H209 1752   6.483   3.450   3.305  0.5800 -0.8285 -0.5628
    5CHTO  H210 1753   6.308   3.392   3.288 -0.1878 -2.2311 -0.4348
    5CHTO   O80 1754   6.226   3.575   3.093  0.2272  0.0680  0.3496
    5CHTO  C103 1755   6.095   3.508   2.989 -0.2611  0.2803 -0.0850
    5CHTO  H190 1756   6.093   3.553   2.890  0.6726  2.8378  1.0161
    5CHTO  C101 1757   6.080   3.353   2.965  0.1696  0.6645  0.0206
    5CHTO  H188 1758   6.101   3.303   3.059  0.6481  1.1602  0.1847
    5CHTO   O68 1759   6.178   3.295   2.873 -0.3355  0.0204 -0.1918
    5CHTO  H168 1760   6.186   3.352   2.799 -0.9937 -2.6090 -2.3374
    5CHTO   C99 1761   5.926   3.323   2.910 -0.5167 -0.0761 -0.0246
    5CHTO  H186 1762   5.934   3.373   2.811 -0.9825  0.0294 -0.0100
    5CHTO   N17 1763   5.903   3.182   2.891 -0.3731  0.1625 -0.0797
    5CHTO  H174 1764   5.820   3.171   2.823 -1.0908  0.8753  0.6737
    5CHTO  H175 1765   5.991   3.138   2.845 -0.4827  1.3237 -1.4241
    5CHTO   C97 1766   5.815   3.391   2.994  0.5250 -0.5178 -0.3931
    5CHTO  H184 1767   5.811   3.347   3.094  3.6619  1.8404  0.8256
    5CHTO   O64 1768   5.849   3.531   3.000  0.3005 -0.2902  0.1823
    5CHTO  C104 1769   5.973   3.555   3.076  0.8854 -0.8349 -0.2832
    5CHTO  H191 1770   5.980   3.500   3.169 -0.6091  0.6128  0.7183
    5CHTO  C108 1771   5.981   3.703   3.121 -0.6480 -0.3717 -0.2112
    5CHTO   O71 1772   5.993   3.793   3.018  0.2472 -0.2623 -0.6686
    5CHTO  H171 1773   5.971   3.878   3.052  1.6017 -0.2295  0.1727
    5CHTO   O62 1774   5.688   3.401   2.923  0.1363  0.2247 -0.1204
    5CHTO   C91 1775   5.574   3.421   3.008 -0.2208 -0.8621 -0.2902
    5CHTO  H178 1776   5.605   3.489   3.088 -0.2417 -3.4835  1.9912
    5CHTO   C92 1777   5.533   3.283   3.071 -0.7763 -0.1204 -0.0550
    5CHTO  H179 1778   5.627   3.235   3.103  0.5489  0.3894 -3.0333
    5CHTO   O66 1779   5.465   3.315   3.195  0.2587 -0.5308  0.0473
    5CHTO  H166 1780   5.414   3.393   3.185  1.9199  0.5468 -0.0363
    5CHTO   C93 1781   5.456   3.191   2.970 -0.0152  0.0415  0.9486
    5CHTO  H180 1782   5.402   3.120   3.035  0.1675 -0.1207  0.9208
    5CHTO   N16 1783   5.545   3.100   2.892  0.0140  0.3265  0.4755
    5CHTO  H172 1784   5.635   3.158   2.880  2.0146 -2.3306  1.8888
    5CHTO  H173 1785   5.568   3.007   2.943  0.2181  1.1279  1.8792
    5CHTO   C94 1786   5.352   3.274   2.883  0.1116  0.1121  0.3774
    5CHTO  H181 1787   5.387   3.293   2.782 -1.8213  2.4604  0.1123
    5CHTO   O61 1788   5.328   3.398   2.942  0.0577  0.5455 -0.8021
    5CHTO   C95 1789   5.442   3.485   2.942 -0.1915  0.7471  0.0710
    5CHTO  H182 1790   5.463   3.512   2.839 -2.0223  2.7803  0.1972
    5CHTO  C106 1791   5.399   3.621   3.004  0.2583 -0.2575 -0.1918
    5CHTO   O69 1792   5.301   3.680   2.923 -0.2380 -0.0412  0.0231
    5CHTO  H169 1793   5.221   3.630   2.927  0.4882 -1.1058  1.7341
    5CHTO   O63 1794   5.224   3.187   2.866  0.3454  0.2171  0.4648
    5CHTO   C96 1795   5.198   3.118   2.739  0.4416 -0.3346 -0.0646
    5CHTO  H183 1796   5.296   3.103   2.694  0.7425 -0.0587  0.4953
    5CHTO   C98 1797   5.111   3.185   2.629 -0.2065  0.3995  0.7858
    5CHTO  H185 1798   5.014   3.212   2.673 -1.2097 -1.9314  0.0909
    5CHTO   O67 1799   5.176   3.305   2.580 -0.5635  0.0267 -0.3998
    5CHTO  H167 1800   5.122   3.341   2.512 -0.4240 -1.2454 -1.2097
    5CHTO  C102 1801   5.090   3.077   2.500 -0.1376  0.3835  0.6897
    5CHTO  H189 1802   5.178   3.086   2.434 -0.6399  0.5278  0.0263
    5CHTO   N18 1803   4.973   3.118   2.417  0.1252 -0.3144 -0.2140
    5CHTO  H176 1804   4.972   3.051   2.332 -0.4925 -1.2176  0.4983
    5CHTO  H177 1805   4.884   3.130   2.477  1.3610  0.8588  1.4139
    5CHTO  C105 1806   5.073   2.923   2.540 -0.2521  0.6795 -0.1526
    5CHTO  H192 1807   4.970   2.895   2.563  0.1481 -1.7180 -1.0560
    5CHTO   O65 1808   5.152   2.887   2.646  0.3218  0.3769  0.5861
    5CHTO  C100 1809   5.138   2.971   2.762  0.3608 -0.0654  0.2196
    5CHTO  H187 1810   5.031   2.984   2.785  0.4067 -1.9675  1.5749
    5CHTO  C107 1811   5.201   2.893   2.879 -0.0009  0.5090  0.1601
    5CHTO   O70 1812   5.155   2.937   3.004 -0.3258 -0.1500  0.6657
    5CHTO  H170 1813   5.075   2.895   3.032 -0.5984  0.5339  0.9291
    5CHTO   O57 1814   5.122   2.844   2.413  1.1310  0.0250  0.2293
    5CHTO   C85 1815   5.083   2.708   2.388 -0.3864 -0.5144  0.1239
    5CHTO  H157 1816   4.974   2.712   2.407 -0.3602  1.7341 -0.1054
    5CHTO   C83 1817   5.146   2.618   2.496  0.2195  0.6308  0.7571
    5CHTO  H155 1818   5.110   2.650   2.593  0.4105 -1.9069  1.7036
    5CHTO   O56 1819   5.292   2.635   2.501 -0.0309  0.0327 -0.0574
    5CHTO  H135 1820   5.320   2.561   2.552  2.4553  1.6620  1.0271
    5CHTO   C81 1821   5.092   2.473   2.479  0.3941  0.0615  0.3140
    5CHTO  H153 1822   4.985   2.469   2.494  0.4976 -4.1185  0.4890
    5CHTO   N14 1823   5.149   2.385   2.583  0.3890 -0.6356  0.4125
    5CHTO  H141 1824   5.082   2.307   2.613 -1.2998  0.5538 -0.1900
    5CHTO  H142 1825   5.241   2.339   2.552  1.4976  1.8012 -0.0111
    5CHTO   C79 1826   5.126   2.427   2.331  0.1317 -0.1476 -0.0827
    5CHTO  H151 1827   5.072   2.333   2.318 -1.6683  0.7205  0.9307
    5CHTO   O52 1828   5.067   2.525   2.233  0.3059 -0.3323  0.4726
    5CHTO   C86 1829   5.111   2.656   2.253 -1.4045 -1.0331 -0.0487
    5CHTO  H158 1830   5.222   2.659   2.243 -1.1615  0.7022  2.7112
    5CHTO   C90 1831   5.046   2.750   2.150 -0.4735  0.1166 -0.2612
    5CHTO   O60 1832   5.102   2.881   2.151 -0.2870  0.6998 -0.1093
    5CHTO  H138 1833   5.084   2.923   2.233  1.8145 -0.0985  0.7947
    5CHTO   O50 1834   5.264   2.416   2.293  0.3977 -0.1211 -0.4159
    5CHTO   C73 1835   5.353   2.329   2.220 -0.6588  0.0303  0.2250
    5CHTO  H145 1836   5.304   2.300   2.126  0.2955  0.8822 -0.5548
    5CHTO   C74 1837   5.406   2.205   2.297 -0.2299  0.7346  0.2181
    5CHTO  H146 1838   5.321   2.138   2.317  0.5224 -0.5389 -0.7899
    5CHTO   O54 1839   5.497   2.133   2.210 -0.0438 -0.8543 -0.1495
    5CHTO  H133 1840   5.514   2.047   2.242  1.3252 -1.4820 -2.3967
    5CHTO   C75 1841   5.478   2.256   2.422  0.1176 -0.2586 -0.2011
    5CHTO  H147 1842   5.410   2.323   2.477  0.1586  0.2011 -0.7040
    5CHTO   N13 1843   5.523   2.140   2.509  0.6245  0.1038  0.3258
    5CHTO  H139 1844   5.544   2.062   2.439 -0.9167 -1.1875  1.2672
    5CHTO  H140 1845   5.433   2.109   2.561  1.2701  1.5930  2.4136
    5CHTO   C76 1846   5.605   2.356   2.384 -0.0824  0.3935 -0.3866
    5CHTO  H148 1847   5.669   2.292   2.323 -0.2222  0.9294 -1.1018
    5CHTO   O49 1848   5.557   2.462   2.294 -0.1406  0.1015  0.0514
    5CHTO   C77 1849   5.477   2.420   2.183  0.3647 -0.2869  0.3744
    5CHTO  H149 1850   5.536   2.369   2.107  0.1830  3.5171 -2.4257
    5CHTO   C88 1851   5.434   2.540   2.098  0.2936 -0.1640 -0.1355
    5CHTO   O58 1852   5.325   2.513   1.977 -0.1862  0.5497  0.0785
    5CHTO  H136 1853   5.258   2.576   1.958 -1.5650 -0.3566  1.7738
    5CHTO   O51 1854   5.664   2.428   2.515 -0.3131  0.0045 -0.0767
    5CHTO   C78 1855   5.794   2.541   2.501 -0.2080  0.0459 -0.1566
    5CHTO  H150 1856   5.782   2.612   2.417  0.9916 -0.8965 -1.1604
    5CHTO   C80 1857   5.926   2.455   2.475  0.1614 -0.4304 -0.1203
    5CHTO  H152 1858   5.936   2.382   2.559 -2.1542  0.7576  1.2530
    5CHTO   O55 1859   5.913   2.383   2.350 -0.6182 -0.0826 -0.3187
    5CHTO  H134 1860   5.836   2.329   2.351  0.9639 -2.3734  0.4881
    5CHTO   C84 1861   6.052   2.552   2.468 -0.1692 -0.1897 -0.8607
    5CHTO  H156 1862   6.038   2.627   2.391  0.2679 -0.0241 -0.7819
    5CHTO   N15 1863   6.176   2.478   2.441 -0.3250  0.4425 -0.0037
    5CHTO  H143 1864   6.155   2.418   2.355 -2.7654  1.8579 -0.4333
    5CHTO  H144 1865   6.214   2.418   2.521  0.8971  0.4276 -0.5673
    5CHTO   C87 1866   6.055   2.641   2.596 -0.5827 -0.2062  0.0294
    5CHTO  H159 1867   6.074   2.573   2.678 -0.2504  1.0949  1.0396
    5CHTO   O53 1868   5.919   2.718   2.616 -0.5954 -0.0697  0.4503
    5CHTO   C82 1869   5.814   2.630   2.629  0.0514 -0.7129 -0.0504
    5CHTO  H154 1870   5.825   2.568   2.718 -1.2962  1.0121  1.3539
    5CHTO   C89 1871   5.684   2.714   2.651 -0.8831  0.6072  0.3055
    5CHTO   O59 1872   5.581   2.625   2.699 -0.2584  0.3228  0.4212
    5CHTO  H137 1873   5.583   2.612   2.792  0.5575 -1.0426  0.2199
    5CHTO   O45 1874   6.184   2.757   2.574 -0.0970  0.7590 -0.1844
    5CHTO   C67 1875   6.229   2.805   2.701  0.0555  0.0473  0.7246
    5CHTO  H124 1876   6.145   2.792   2.769  0.7819 -1.4442  1.3726
    5CHTO   C65 1877   6.352   2.730   2.765 -0.3894  0.1819 -0.1732
    5CHTO  H122 1878   6.412   2.690   2.683 -0.2391 -2.0679  1.0104
    5CHTO   O44 1879   6.297   2.619   2.843 -0.6792 -0.4170  0.0843
    5CHTO  H102 1880   6.337   2.538   2.818  1.0938 -0.3792  2.6257
    5CHTO   C63 1881   6.451   2.825   2.856  0.5176 -0.1732 -0.1122
    5CHTO  H120 1882   6.515   2.884   2.790  0.8017 -1.0236 -0.6034
    5CHTO   N11 1883   6.544   2.745   2.951  0.2563 -0.6132  0.0672
    5CHTO  H108 1884   6.530   2.775   3.053 -1.4109 -0.3792 -0.2166
    5CHTO  H109 1885   6.645   2.754   2.916  0.6394 -0.7616  1.1318
    5CHTO   C61 1886   6.355   2.921   2.936 -0.0659  0.5345  0.0058
    5CHTO  H118 1887   6.412   2.987   3.002 -1.1660 -0.1692  1.6756
    5CHTO   O40 1888   6.284   3.005   2.839 -0.3136  0.4986  0.3682
    5CHTO   C68 1889   6.268   2.952   2.703  0.0484  0.1287  0.4547
    5CHTO  H125 1890   6.369   2.966   2.657 -0.2846 -1.1677 -0.6952
    5CHTO   C72 1891   6.163   3.035   2.624 -0.4190  0.0992  0.6769
    5CHTO   O48 1892   6.207   3.152   2.559  0.1915 -0.4143  0.3640
    5CHTO  H105 1893   6.135   3.212   2.550  2.0353  1.8575  0.1907
    5CHTO   O38 1894   6.262   2.848   3.023  0.0845  0.1763  0.1991
    5CHTO   C55 1895   6.162   2.914   3.098  0.8308 -0.3864  0.3255
    5CHTO  H112 1896   6.138   3.011   3.052  1.7807  0.4591  1.5867
    5CHTO   C56 1897   6.215   2.933   3.248 -0.0624  0.5834  0.3882
    5CHTO  H113 1898   6.242   2.831   3.279 -1.6538 -0.0966 -0.4136
    5CHTO   O42 1899   6.332   3.022   3.243 -0.2441  0.5024  0.5085
    5CHTO  H100 1900   6.396   2.997   3.180 -1.0090  0.0062 -0.0897
    5CHTO   C57 1901   6.112   3.004   3.336 -0.0373 -0.7858 -0.6712
    5CHTO  H114 1902   6.112   3.110   3.307 -1.3209 -0.4993  0.3120
    5CHTO   N10 1903   6.143   2.996   3.485  0.3148 -0.2711  0.7932
    5CHTO  H106 1904   6.203   3.081   3.513  2.2388 -1.3767  0.0499
    5CHTO  H107 1905   6.049   3.004   3.538 -0.1128 -1.6464  0.2581
    5CHTO   C58 1906   5.965   2.949   3.319 -0.4986  0.2406  0.6323
    5CHTO  H115 1907   5.955   2.852   3.371 -0.7639  0.2530  0.6032
    5CHTO   O37 1908   5.937   2.926   3.181 -0.2180 -0.3770  0.1203
    5CHTO   C59 1909   6.030   2.838   3.112 -0.4515 -0.0618 -0.0847
    5CHTO  H116 1910   6.054   2.746   3.166 -0.3073 -0.2284 -0.4298
    5CHTO   C70 1911   5.962   2.794   2.981  0.3644 -0.0846  0.2640
    5CHTO   O46 1912   5.847   2.710   2.996 -0.2543  0.2465  0.4067
    5CHTO  H103 1913   5.801   2.704   2.914 -0.2799 -0.8307  0.4864
    5CHTO   O39 1914   5.864   3.042   3.370 -0.0897 -1.0594 -0.6333
    5CHTO   C60 1915   5.723   3.036   3.378  0.2903  0.3293  0.4921
    5CHTO  H117 1916   5.685   3.129   3.335 -1.4142 -0.9567 -0.8473
    5CHTO   C62 1917   5.658   2.918   3.304  0.1601  0.8746  0.3484
    5CHTO  H119 1918   5.703   2.908   3.203  0.3271 -1.4886  0.6281
    5CHTO   O43 1919   5.688   2.797   3.378 -0.3534 -0.1399  0.4666
    5CHTO  H101 1920   5.618   2.738   3.399 -1.2557  0.4686 -0.7595
    5CHTO   C66 1921   5.502   2.941   3.290  0.3675  0.4920 -0.1195
    5CHTO  H123 1922   5.483   3.034   3.237  0.5486  0.3256 -0.4723
    5CHTO   N12 1923   5.445   2.840   3.205  0.1958  0.4889 -0.0775
    5CHTO  H110 1924   5.490   2.744   3.224  0.3927  0.2709 -1.5702
    5CHTO  H111 1925   5.339   2.837   3.228 -0.1383 -1.1148 -1.7014
    5CHTO   C69 1926   5.435   2.951   3.434 -0.2801 -0.7942  0.3696
    5CHTO  H126 1927   5.437   2.845   3.466 -1.1699 -0.0937  2.8797
    5CHTO   O41 1928   5.517   3.054   3.529 -0.0901  0.0974  0.1146
    5CHTO   C64 1929   5.673   3.034   3.525 -0.3793 -0.1864 -0.0152
    5CHTO  H121 1930   5.694   2.934   3.569 -1.8059  0.3358  1.9692
    5CHTO   C71 1931   5.722   3.140   3.622  0.0436  0.1307 -0.0588
    5CHTO   O47 1932   5.860   3.128   3.654  0.6175 -0.0884  0.2084
    5CHTO  H104 1933   5.909   3.105   3.578 -0.3647 -0.7946 -0.2210
    5CHTO   O34 1934   5.293   3.003   3.422 -0.5742  0.3940  0.4630
    5CHTO   C49 1935   5.144   2.984   3.487 -0.5412  0.2322 -0.2801
    5CHTO   H91 1936   5.115   2.880   3.473  0.2656 -0.3572  2.2660
    5CHTO   C47 1937   5.044   3.078   3.407 -0.6536 -0.2143  0.4069
    5CHTO   H89 1938   5.011   3.012   3.324 -0.9745 -0.2362  0.5493
    5CHTO   O33 1939   5.115   3.192   3.355  0.2629 -0.8862  0.2355
    5CHTO   H70 1940   5.170   3.169   3.282 -0.2510  1.0161 -0.8006
    5CHTO   C45 1941   4.922   3.131   3.492  0.3519  0.7311 -0.4469
    5CHTO   H87 1942   4.944   3.228   3.537 -1.0160  0.2117  1.3967
    5CHTO    N8 1943   4.803   3.151   3.401  0.2325  0.0422  0.4048
    5CHTO   H75 1944   4.792   3.063   3.339  0.5314 -0.0463  0.4725
    5CHTO   H76 1945   4.716   3.173   3.460  0.8842  0.9662  1.0335
    5CHTO   C43 1946   4.888   3.038   3.622 -0.2063  0.2686 -0.1014
    5CHTO   H85 1947   4.811   3.098   3.671  1.2742  2.8921 -0.8500
    5CHTO   O29 1948   5.007   3.040   3.698 -0.1019 -0.2515 -0.6381
    5CHTO   C50 1949   5.135   3.024   3.636  0.5590  0.2043  0.1330
    5CHTO   H92 1950   5.183   3.119   3.664 -0.0466  0.0224  1.8406
    5CHTO   C54 1951   5.210   2.927   3.731  0.3813 -0.1776 -0.0941
    5CHTO   O36 1952   5.241   2.983   3.859  0.0726  0.0555 -0.1427
    5CHTO   H72 1953   5.174   2.967   3.923  1.2122 -0.0465  1.0523
    5CHTO   O27 1954   4.856   2.904   3.591  0.2722  0.2569 -0.0749
    5CHTO   C37 1955   4.723   2.852   3.596 -0.1066  0.4635 -0.5439
    5CHTO   H79 1956   4.650   2.935   3.592  0.7007  1.0949 -2.5952
    5CHTO   C38 1957   4.692   2.760   3.478 -0.2575 -0.0497 -0.4279
    5CHTO   H80 1958   4.768   2.681   3.473 -0.2535 -0.0765  0.0223
    5CHTO   O31 1959   4.687   2.844   3.365 -0.2217  0.0808 -0.2977
    5CHTO   H68 1960   4.648   2.808   3.288  0.8847 -2.0100  0.0928
    5CHTO   C39 1961   4.552   2.688   3.503  0.3516  0.4163  0.5742
    5CHTO   H81 1962   4.473   2.762   3.512  0.5968  0.6079  1.1646
    5CHTO    N7 1963   4.497   2.596   3.390 -0.0036  0.0433  0.4026
    5CHTO   H73 1964   4.403   2.547   3.407  0.8848 -2.5493 -1.8711
    5CHTO   H74 1965   4.487   2.652   3.298  1.5503 -1.9486 -1.0071
    5CHTO   C40 1966   4.563   2.610   3.637 -0.9460 -0.0605 -0.2966
    5CHTO   H82 1967   4.641   2.534   3.636 -1.6812 -0.8002 -1.2933
    5CHTO   O26 1968   4.585   2.709   3.737  0.4115  0.1189  0.4615
    5CHTO   C41 1969   4.711   2.777   3.724 -0.0177  1.0586  0.3480
    5CHTO   H83 1970   4.801   2.715   3.734 -1.6272 -1.2747  0.6256
    5CHTO   C52 1971   4.722   2.867   3.848  0.5521  0.0302 -0.3202
    5CHTO   O35 1972   4.746   2.800   3.981 -0.1660 -0.1119 -0.3881
    5CHTO   H71 1973   4.713   2.847   4.055 -0.2763 -0.1406 -0.4184
    5CHTO   O28 1974   4.447   2.536   3.675 -0.0950  0.0546 -0.0600
    5CHTO   C42 1975   4.418   2.517   3.820 -0.2116  0.8293  0.3711
    5CHTO   H84 1976   4.336   2.445   3.812  0.3306 -0.1812  3.1450
    5CHTO   C44 1977   4.361   2.641   3.903  1.3388 -0.5192 -0.3994
    5CHTO   H86 1978   4.430   2.724   3.888  1.1095 -0.0001  1.3087
    5CHTO   O32 1979   4.240   2.687   3.841  0.6105 -0.3891 -0.1397
    5CHTO   H69 1980   4.218   2.772   3.872  1.5751 -0.6379  1.2614
    5CHTO   C48 1981   4.349   2.618   4.060 -0.1896 -0.3761 -0.3656
    5CHTO   H90 1982   4.262   2.553   4.072  0.7679 -1.7330 -0.6028
    5CHTO    N9 1983   4.299   2.739   4.131 -0.4355  0.1641 -0.1897
    5CHTO   H77 1984   4.272   2.817   4.062  0.3109  0.7052  0.1234
    5CHTO   H78 1985   4.376   2.770   4.200 -1.3055 -1.3667  1.5424
    5CHTO   C51 1986   4.489   2.569   4.111  0.1369 -0.1221 -0.1036
    5CHTO   H93 1987   4.560   2.645   4.077 -0.9551  1.8055  1.8470
    5CHTO   O30 1988   4.506   2.444   4.047 -0.0328  0.3667 -0.7280
    5CHTO   C46 1989   4.529   2.447   3.901  0.0363  0.4360  0.9282
    5CHTO   H88 1990   4.618   2.508   3.883  0.8301 -1.8397 -3.6774
    5CHTO   C53 1991   4.550   2.306   3.846  0.0081  0.4768  0.0408
    5CHTO   O72 1992   4.647   2.232   3.916 -0.2559 -0.0648  0.0068
    5CHTO  H199 1993   4.692   2.173   3.858  0.7058  1.6129 -0.9921
    5CHTO   O22 1994   4.508   2.539   4.248  0.1381 -0.0685  0.7559
    5CHTO   C31 1995   4.641   2.561   4.303  0.7303 -0.3236  0.1015
    5CHTO   H59 1996   4.634   2.522   4.406 -0.5629 -0.8172 -0.1651
    5CHTO   C29 1997   4.754   2.476   4.229  0.2062 -0.6057 -0.2835
    5CHTO   H57 1998   4.755   2.513   4.126  1.4947  0.5829  0.1394
    5CHTO   O21 1999   4.707   2.340   4.225 -0.5724  0.3878 -0.0672
    5CHTO   H37 2000   4.737   2.308   4.142 -0.2167  0.0110  0.2042
    5CHTO   C27 2001   4.896   2.501   4.287 -0.6794  0.6028 -0.9655
    5CHTO   H55 2002   4.901   2.464   4.390  0.4859  1.8892 -0.5501
    5CHTO    N5 2003   4.999   2.431   4.203 -0.0830  0.6515 -0.1279
    5CHTO   H43 2004   4.948   2.379   4.123  0.5834  0.9748 -0.7731
    5CHTO   H44 2005   5.059   2.363   4.262 -0.5792  0.3641  0.0420
    5CHTO   C25 2006   4.922   2.649   4.313  0.0032 -0.1433 -0.1437
    5CHTO   H53 2007   4.934   2.694   4.213  0.5894  0.0646  0.0193
    5CHTO   O17 2008   4.815   2.720   4.379  0.4852 -0.6764  0.1484
    5CHTO   C32 2009   4.682   2.712   4.322  0.0730  0.4329  0.0498
    5CHTO   H60 2010   4.686   2.756   4.223  0.2085 -1.5103 -0.8273
    5CHTO   C36 2011   4.587   2.808   4.398  0.5673 -0.0946 -0.0086
    5CHTO   O25 2012   4.569   2.766   4.533  0.0374  0.0917 -0.0660
    5CHTO   H40 2013   4.631   2.798   4.596 -0.7190  0.9300  0.2561
    5CHTO   O15 2014   5.042   2.664   4.388  0.1568  0.2829 -0.4978
    5CHTO   C19 2015   5.123   2.781   4.400  0.1295 -0.5497 -0.0213
    5CHTO   H47 2016   5.075   2.847   4.327  1.7897 -0.7655 -1.3132
    5CHTO   C20 2017   5.144   2.833   4.548 -0.4998  0.1892  0.3710
    5CHTO   H48 2018   5.179   2.756   4.618  0.2312  0.7242  0.5959
    5CHTO   O19 2019   5.016   2.869   4.601 -0.1577  0.6272  0.5630
    5CHTO   H35 2020   4.946   2.807   4.595 -1.6364  2.2681  0.6069
    5CHTO   C21 2021   5.231   2.963   4.540  0.3930  0.3872  0.2295
    5CHTO   H49 2022   5.180   3.033   4.474  0.6234  0.8695  0.5628
    5CHTO    N4 2023   5.257   3.019   4.678  0.6656 -0.0389  0.2337
    5CHTO   H41 2024   5.171   3.073   4.715  1.4529  2.4880 -1.4584
    5CHTO   H42 2025   5.341   3.087   4.671  0.3977  0.1965 -0.6614
    5CHTO   C22 2026   5.371   2.923   4.477 -0.0742 -0.2154 -0.0042
    5CHTO   H50 2027   5.419   2.849   4.541  1.1103 -0.8303 -1.5636
    5CHTO   O14 2028   5.349   2.875   4.345 -0.6532  0.6850  0.0017
    5CHTO   C23 2029   5.260   2.757   4.338 -0.0936 -0.3350  0.0970
    5CHTO   H51 2030   5.317   2.678   4.390  1.4921 -0.8328 -2.3322
    5CHTO   C34 2031   5.240   2.729   4.191 -0.5824  0.2608 -0.0238
    5CHTO   O23 2032   5.357   2.697   4.123 -0.2185  0.1849  0.5726
    5CHTO   H38 2033   5.401   2.625   4.165 -2.6032 -0.3172  2.3268
    5CHTO   O16 2034   5.460   3.037   4.468  0.1618  0.6303 -0.0011
    5CHTO   C24 2035   5.631   2.993   4.408  0.0822 -0.0367  0.1556
    5CHTO   H52 2036   5.633   2.892   4.368 -0.1150  0.0123  0.0240
    5CHTO   C26 2037   5.729   3.009   4.530  0.4211  0.1268 -0.7282
    5CHTO   H54 2038   5.721   3.112   4.571 -0.0402  0.2904 -1.2218
    5CHTO   O20 2039   5.672   2.918   4.627 -0.1110  0.4212 -0.2492
    5CHTO   H36 2040   5.736   2.867   4.672 -1.1155  0.8669  1.7156
    5CHTO   C30 2041   5.870   2.981   4.479 -0.0102 -0.2643 -0.6614
    5CHTO   H58 2042   5.877   2.876   4.448 -0.4410 -0.2253 -0.9003
    5CHTO    N6 2043   5.963   3.003   4.595 -0.0597  0.0196  0.6569
    5CHTO   H45 2044   5.925   2.945   4.678  0.7588 -1.8204 -0.2312
    5CHTO   H46 2045   6.065   2.974   4.573 -0.1054  0.3950 -0.0686
    5CHTO   C33 2046   5.911   3.073   4.360 -0.4262 -0.0728 -0.0236
    5CHTO   H61 2047   5.913   3.177   4.397  0.4761 -0.1097  0.0575
    5CHTO   O18 2048   5.814   3.058   4.255 -0.0008 -0.2683  0.1852
    5CHTO   C28 2049   5.675   3.085   4.290 -0.3430  0.2391  0.3663
    5CHTO   H56 2050   5.654   3.188   4.319 -1.0391  0.2576 -0.1859
    5CHTO   C35 2051   5.580   3.055   4.175 -0.0837  0.0057  0.1940
    5CHTO   O24 2052   5.586   2.928   4.117 -0.1737  0.2482  0.0295
    5CHTO   H39 2053   5.546   2.922   4.032  0.1997 -1.1294 -0.0562
    5CHTO    O9 2054   6.046   3.053   4.307 -0.3666 -0.4894  0.9276
    5CHTO   C13 2055   6.079   2.916   4.252 -0.4983  0.6002  0.0317
    5CHTO   H26 2056   6.001   2.842   4.279  1.3117 -1.2892  0.2198
    5CHTO   C11 2057   6.224   2.867   4.288  0.8146 -0.3306  0.6067
    5CHTO   H24 2058   6.228   2.858   4.397  1.7190  1.6865  0.7604
    5CHTO    O8 2059   6.326   2.965   4.257  0.1789  0.7542  0.0480
    5CHTO    H3 2060   6.389   2.936   4.194 -1.3293 -1.6166 -0.4353
    5CHTO    C9 2061   6.244   2.735   4.219  0.6062 -0.1697 -0.1375
    5CHTO   H22 2062   6.153   2.674   4.234  0.4687  0.2370  0.6781
    5CHTO    N2 2063   6.358   2.659   4.285 -0.1428 -0.4515  0.2080
    5CHTO   H10 2064   6.450   2.708   4.258 -0.8537  1.4197  1.0629
    5CHTO   H11 2065   6.347   2.664   4.393  1.8224 -2.1448  0.5099
    5CHTO    C7 2066   6.252   2.762   4.061  0.7697 -0.4014  0.5555
    5CHTO   H20 2067   6.217   2.667   4.016  2.5002 -0.2295 -1.2094
    5CHTO    O4 2068   6.163   2.870   4.015 -0.2062 -0.1740 -0.0810
    5CHTO   C14 2069   6.053   2.921   4.095 -0.1685 -0.3572 -0.3720
    5CHTO   H27 2070   5.960   2.865   4.073  0.1275 -1.2230  0.5724
    5CHTO   C18 2071   6.032   3.063   4.036  0.6899 -0.2183  0.0271
    5CHTO   O13 2072   5.946   3.053   3.924 -0.4703 -0.4028  0.0276
    5CHTO    H7 2073   5.893   3.130   3.911 -0.3538 -0.2764  0.3129
    5CHTO    O2 2074   6.397   2.799   4.008  0.2182 -0.2746  0.3714
    5CHTO    C1 2075   6.408   2.812   3.862  0.2941 -0.0556  0.4932
    5CHTO   H14 2076   6.309   2.811   3.812 -0.1395  1.1790  1.3071
    5CHTO    C2 2077   6.494   2.689   3.801 -0.3382 -0.8317  0.6436
    5CHTO   H15 2078   6.595   2.680   3.843  0.4023 -0.0342 -0.9131
    5CHTO    O6 2079   6.424   2.565   3.825  0.3885  0.3158 -0.0858
    5CHTO    H1 2080   6.361   2.549   3.757  1.7544 -0.8973 -1.0952
    5CHTO    C3 2081   6.513   2.711   3.643  0.2863  0.7692 -0.5662
    5CHTO   H16 2082   6.413   2.719   3.598  0.3564  1.3021 -0.6309
    5CHTO    N1 2083   6.584   2.598   3.576 -0.0043 -0.1870  0.0036
    5CHTO    H8 2084   6.587   2.619   3.470  0.6576 -0.4700 -0.0323
    5CHTO    H9 2085   6.682   2.579   3.617  0.8833  2.3693 -0.8882
    5CHTO    C4 2086   6.583   2.852   3.629 -0.7436  0.2004 -0.3068
    5CHTO   H17 2087   6.676   2.848   3.685 -1.3506  0.6694  0.7529
    5CHTO    O1 2088   6.496   2.950   3.674 -0.0371  0.2731 -0.0798
    5CHTO    C5 2089   6.486   2.940   3.816  0.4319 -0.5710  0.6660
    5CHTO   H18 2090   6.591   2.945   3.848  0.7023  1.4416 -0.4095
    5CHTO   C16 2091   6.415   3.069   3.852  0.3444 -0.0432 -0.5151
    5CHTO   O11 2092   6.413   3.093   3.990  0.0048  0.1777 -0.2477
    5CHTO    H5 2093   6.486   3.140   4.026  1.1909  0.1607 -2.4716
    5CHTO    O3 2094   6.612   2.888   3.490 -0.1367 -0.1177 -0.6381
    5CHTO    C6 2095   6.740   2.948   3.481  0.3429  0.9129 -0.0120
    5CHTO   H19 2096   6.793   2.973   3.573  0.8625  0.6942 -0.2537
    5CHTO    C8 2097   6.832   2.854   3.403 -0.0856  0.3663  0.1792
    5CHTO   H21 2098   6.790   2.835   3.304 -0.8856  1.3343  0.3212
    5CHTO    O7 2099   6.842   2.740   3.483 -0.0811 -0.1953 -0.2284
    5CHTO    H2 2100   6.783   2.671   3.461 -1.0325  0.3138  0.7006
    5CHTO   C12 2101   6.972   2.925   3.376  0.0124 -0.2821 -0.2411
    5CHTO   H25 2102   7.022   2.932   3.475  0.4522 -1.4829 -0.3767
    5CHTO    N3 2103   7.061   2.837   3.290 -0.3832 -0.2555  0.0578
    5CHTO   H12 2104   7.084   2.741   3.334 -1.0567 -0.0742  0.8066
    5CHTO   H13 2105   7.022   2.824   3.190 -1.0186 -1.1911  0.4247
    5CHTO   C15 2106   6.946   3.071   3.320  0.0626  0.2244 -0.5976
    5CHTO   H28 2107   6.914   3.072   3.216  0.0424 -2.7047 -0.6550
    5CHTO   O10 2108   7.070   3.170   3.320  0.0912  0.0030  0.1376
    5CHTO    H4 2109   7.115   3.185   3.401 -0.2818 -2.3800  0.7942
    5CHTO    O5 2110   6.855   3.144   3.402  0.4597 -0.2687 -0.7625
    5CHTO   C10 2111   6.724   3.080   3.404  0.2868  0.4912  0.5231
    5CHTO   H23 2112   6.694   3.043   3.306 -0.1907 -0.8837  1.1828
    5CHTO   C17 2113   6.611   3.167   3.459 -0.2672 -0.1479 -0.1456
    5CHTO   O12 2114   6.645   3.218   3.588  0.1575  0.0086 -0.1320
    5CHTO    H6 2115   6.696   3.296   3.574  1.4918 -1.0701 -1.4667
    6CHTO  H203 2116   6.577   3.940   0.178 -0.6285 -2.0180 -1.6120
    6CHTO   O82 2117   6.526   3.917   0.253 -0.1013  0.3333 -0.4852
    6CHTO  C123 2118   6.417   4.013   0.252 -0.1061 -0.0441 -0.2436
    6CHTO  H227 2119   6.410   4.061   0.153 -2.5380 -2.6005 -1.3789
    6CHTO   O77 2120   6.298   3.931   0.270  0.2533  0.7663  0.2857
    6CHTO  C118 2121   6.182   4.005   0.258  0.1681 -0.2315  0.5366
    6CHTO  H222 2122   6.196   4.045   0.156 -2.7347 -2.2069 -0.7145
    6CHTO  C125 2123   6.067   3.904   0.248 -0.1784 -0.4186 -0.2782
    6CHTO   O84 2124   6.079   3.810   0.140 -0.2564  0.3803 -0.2194
    6CHTO  H205 2125   6.014   3.743   0.150 -0.3163  0.3527 -0.7910
    6CHTO  C114 2126   6.168   4.114   0.366 -0.3771 -0.2642 -0.2964
    6CHTO  H218 2127   6.165   4.068   0.465 -0.4664  0.6782  0.1364
    6CHTO  C116 2128   6.291   4.208   0.368  0.4361  0.4990 -0.2487
    6CHTO  H220 2129   6.288   4.278   0.282 -1.8608  1.0822  0.2644
    6CHTO   O79 2130   6.279   4.284   0.485 -0.3733  0.0341 -0.4415
    6CHTO  H201 2131   6.358   4.317   0.525 -0.8205  0.0247  0.4623
    6CHTO  C120 2132   6.426   4.127   0.358 -0.0742  0.3805  0.0466
    6CHTO  H224 2133   6.441   4.077   0.457  2.0315 -0.4055 -0.6285
    6CHTO   N21 2134   6.551   4.212   0.344 -0.0850 -0.0752  0.3764
    6CHTO  H211 2135   6.637   4.158   0.379  0.6890  0.6900 -0.3341
    6CHTO  H212 2136   6.540   4.314   0.378 -0.2049 -0.2289  0.8078
    6CHTO   O75 2137   6.042   4.178   0.343 -0.0427 -0.0106 -0.2855
    6CHTO  C112 2138   5.908   4.123   0.438  0.8989 -0.3038 -0.1537
    6CHTO  H216 2139   5.929   4.024   0.483 -1.0480 -0.1486  1.1619
    6CHTO   O73 2140   5.796   4.120   0.354  0.5072  0.3252  0.2677
    6CHTO  C113 2141   5.671   4.081   0.410 -0.4787  0.8401  0.2066
    6CHTO  H217 2142   5.687   3.975   0.439 -0.7696  1.2565  1.9871
    6CHTO  C124 2143   5.583   4.083   0.290 -0.0723  0.2009 -0.0457
    6CHTO   O83 2144   5.447   4.045   0.298 -0.6081  0.2864 -0.1992
    6CHTO  H204 2145   5.392   4.076   0.228  0.5416  0.4540 -1.0540
    6CHTO  C109 2146   5.638   4.179   0.527 -0.9330 -0.8390 -0.3890
    6CHTO  H213 2147   5.608   4.274   0.481 -2.3823  0.3413  2.7686
    6CHTO  C110 2148   5.753   4.201   0.627 -0.4991 -0.4276  0.4418
    6CHTO  H214 2149   5.756   4.107   0.680  0.8165  0.1065  1.3597
    6CHTO   O78 2150   5.713   4.318   0.704 -0.4165  0.4938 -0.1771
    6CHTO  H200 2151   5.679   4.285   0.785  1.1741  0.0764  0.3337
    6CHTO  C111 2152   5.891   4.229   0.552  0.4943  0.2344 -1.0462
    6CHTO  H215 2153   5.887   4.328   0.504  1.8825  1.2225  0.7706
    6CHTO   N19 2154   6.005   4.235   0.647 -0.5332  0.3283 -0.1923
    6CHTO  H207 2155   6.104   4.247   0.605 -0.3539  3.2030  1.0027
    6CHTO  H208 2156   5.996   4.153   0.716 -1.2230  0.8789  0.3739
    6CHTO   O74 2157   5.520   4.131   0.595  0.0065 -0.3018 -0.4877
    6CHTO  C115 2158   5.394   4.242   0.628 -0.4501  0.6190 -0.1415
    6CHTO  H219 2159   5.430   4.331   0.680  0.3302  0.0449  0.3176
    6CHTO   O76 2160   5.322   4.297   0.482 -0.0760  0.2498  0.1496
    6CHTO  C122 2161   5.200   4.374   0.496 -0.2213  0.8274 -0.2097
    6CHTO  H226 2162   5.152   4.379   0.399  0.7944 -1.1511 -0.8518
    6CHTO  C126 2163   5.243   4.520   0.533 -0.3037 -0.4045  0.1209
    6CHTO   O85 2164   5.184   4.594   0.641  0.3469  0.0292 -0.1521
    6CHTO  H206 2165   5.098   4.627   0.626 -0.1089 -2.4070 -3.3240
    6CHTO  C121 2166   5.097   4.312   0.604 -0.4277 -0.1266 -0.5362
    6CHTO  H225 2167   5.024   4.393   0.626  1.3494  1.0623  1.1575
    6CHTO   O81 2168   5.018   4.205   0.544  0.2822  0.0785 -0.0972
    6CHTO  H202 2169   4.948   4.242   0.495  1.3000  1.8119 -0.3009
    6CHTO  C119 2170   5.166   4.257   0.736 -0.2979 -0.4982 -0.1489
    6CHTO  H223 2171   5.214   4.339   0.790  0.7492 -1.3832  0.3014
    6CHTO  C117 2172   5.287   4.154   0.709  0.5219 -0.2549 -0.2560
    6CHTO  H221 2173   5.270   4.067   0.646 -1.9300 -0.0571  0.0811
    6CHTO   N20 2174   5.347   4.108   0.841  0.0621 -0.0357 -0.0453
    6CHTO  H209 2175   5.287   4.037   0.896 -1.6486  0.2591 -1.4770
    6CHTO  H210 2176   5.455   4.096   0.838  0.2978  2.0614 -3.7131
    6CHTO   O80 2177   5.043   4.215   0.835 -0.4024  0.4267 -0.0012
    6CHTO  C103 2178   5.052   4.251   0.980  0.0367  0.2117  0.1502
    6CHTO  H190 2179   5.149   4.220   1.019 -0.3087  1.3550  1.9609
    6CHTO  C101 2180   5.027   4.399   1.021 -0.3448 -0.6562 -0.2562
    6CHTO  H188 2181   4.930   4.429   0.979  0.2064 -1.3436 -2.0755
    6CHTO   O68 2182   5.135   4.511   0.950 -0.8460 -0.2425  0.3607
    6CHTO  H168 2183   5.221   4.473   0.946 -1.8103 -2.3290 -1.8170
    6CHTO   C99 2184   5.021   4.417   1.179 -0.3578 -0.7440 -0.5848
    6CHTO  H186 2185   5.114   4.377   1.225 -1.1061 -0.0159  1.6087
    6CHTO   N17 2186   5.009   4.558   1.232 -0.1982  0.5039 -0.2507
    6CHTO  H174 2187   5.022   4.626   1.150 -1.2071  0.1258 -0.7222
    6CHTO  H175 2188   4.909   4.566   1.272 -0.5146 -0.6025 -0.7911
    6CHTO   C97 2189   4.903   4.323   1.222  1.0851 -0.2882 -0.3187
    6CHTO  H184 2190   4.813   4.351   1.164  1.0697 -1.9839 -1.1476
    6CHTO   O64 2191   4.951   4.190   1.194 -0.0314  0.7989 -0.2384
    6CHTO  C104 2192   4.941   4.169   1.054  0.2343  0.2494 -0.9351
    6CHTO  H191 2193   4.843   4.196   1.013  0.2477  0.6026 -0.7394
    6CHTO  C108 2194   4.959   4.018   1.028  0.3479  0.2652 -0.4165
    6CHTO   O71 2195   4.854   3.936   1.081 -0.2588  0.2276  0.1125
    6CHTO  H171 2196   4.871   3.850   1.049 -1.6101  0.6101 -1.7460
    6CHTO   O62 2197   4.874   4.316   1.364  0.6007  0.0586 -0.2005
    6CHTO   C91 2198   4.738   4.275   1.410 -0.0664 -0.1954  0.2267
    6CHTO  H178 2199   4.672   4.309   1.330  0.6627  1.9582  0.5229
    6CHTO   C92 2200   4.706   4.353   1.537  0.2933 -0.3400  0.1020
    6CHTO  H179 2201   4.731   4.459   1.525 -1.1802 -0.3391 -3.6049
    6CHTO   O66 2202   4.565   4.339   1.562  0.0306 -0.5105  0.5505
    6CHTO  H166 2203   4.526   4.424   1.575 -0.6355 -0.5515 -1.0446
    6CHTO   C93 2204   4.789   4.291   1.663 -0.1839 -0.3950  0.2567
    6CHTO  H180 2205   4.723   4.320   1.746  0.2076 -0.6795  0.6718
    6CHTO   N16 2206   4.923   4.350   1.696  0.0712 -0.1380  0.1154
    6CHTO  H172 2207   4.921   4.447   1.648  0.1175  0.3572  1.0937
    6CHTO  H173 2208   4.927   4.362   1.804 -1.1204 -1.1032  0.2819
    6CHTO   C94 2209   4.794   4.135   1.660  0.1482 -0.0249  0.1828
    6CHTO  H181 2210   4.895   4.102   1.635 -0.2316 -0.0706 -1.3752
    6CHTO   O61 2211   4.710   4.076   1.561  0.8090  0.0314  0.1559
    6CHTO   C95 2212   4.716   4.119   1.424 -0.5172  0.4315 -0.3386
    6CHTO  H182 2213   4.799   4.071   1.371  0.6321  1.5669  0.4154
    6CHTO  C106 2214   4.584   4.067   1.359 -0.0334  0.7094  0.1236
    6CHTO   O69 2215   4.604   4.059   1.220 -0.2795  0.0466 -0.5823
    6CHTO  H169 2216   4.655   4.129   1.186  0.7296  0.3385  1.4240
    6CHTO   O63 2217   4.755   4.087   1.795 -0.2030  0.4962 -0.4660
    6CHTO   C96 2218   4.790   3.920   1.818  0.4291 -0.2373  0.2307
    6CHTO  H183 2219   4.817   3.876   1.722 -2.9918 -1.8137 -0.1148
    6CHTO   C98 2220   4.659   3.848   1.877 -0.8322  0.7772 -0.2782
    6CHTO  H185 2221   4.640   3.883   1.979 -1.8404 -1.8274  0.4498
    6CHTO   O67 2222   4.546   3.884   1.795  0.1554  0.1771  0.0599
    6CHTO  H167 2223   4.461   3.863   1.829 -0.7427 -1.1514 -2.9239
    6CHTO  C102 2224   4.680   3.688   1.889  0.1945  0.1577  0.7834
    6CHTO  H189 2225   4.646   3.644   1.794  0.3591  0.5724  0.5294
    6CHTO   N18 2226   4.590   3.633   1.992 -0.2670 -0.4887  0.3982
    6CHTO  H176 2227   4.615   3.681   2.086 -0.2905  0.2525  0.0334
    6CHTO  H177 2228   4.613   3.528   2.004 -0.2633 -0.7316 -1.5738
    6CHTO  C105 2229   4.830   3.656   1.919 -0.2548  0.3663  0.2101
    6CHTO  H192 2230   4.836   3.570   1.985  0.4397 -0.1185 -0.4715
    6CHTO   O65 2231   4.898   3.765   1.988  0.2438 -0.1466  0.4299
    6CHTO  C100 2232   4.898   3.900   1.928  0.9715 -0.0414 -0.8296
    6CHTO  H187 2233   4.885   3.967   2.014  0.7952 -0.3183 -0.6459
    6CHTO  C107 2234   5.036   3.932   1.878  0.3212 -0.5614 -0.5976
    6CHTO   O70 2235   5.050   4.072   1.861 -0.0107  0.3501 -0.5266
    6CHTO  H170 2236   5.071   4.098   1.774  0.4927  0.6395 -0.3254
    6CHTO   O57 2237   4.910   3.631   1.775 -0.5431  0.3119  0.1075
    6CHTO   C85 2238   4.912   3.506   1.711  0.0160 -0.0584  0.0765
    6CHTO  H157 2239   4.812   3.461   1.723  0.5133 -1.0045  0.7549
    6CHTO   C83 2240   5.003   3.412   1.795 -0.7762  0.6197  0.4043
    6CHTO  H155 2241   4.944   3.387   1.884  0.8599  0.7814  1.5485
    6CHTO   O56 2242   5.123   3.472   1.841  0.5715 -0.8645 -0.1989
    6CHTO  H135 2243   5.130   3.462   1.934 -1.5941  0.7037  0.1839
    6CHTO   C81 2244   5.040   3.279   1.726 -0.2840 -0.2774 -0.1255
    6CHTO  H153 2245   4.945   3.227   1.714 -0.0808 -1.2323  2.1010
    6CHTO   N14 2246   5.116   3.183   1.812  0.5028 -0.3047 -0.6382
    6CHTO  H141 2247   5.077   3.159   1.908  0.3088 -1.2547 -0.9488
    6CHTO  H142 2248   5.221   3.203   1.818  0.6211 -0.8587 -0.8504
    6CHTO   C79 2249   5.103   3.300   1.586  0.6074  0.5588 -0.2670
    6CHTO  H151 2250   5.122   3.203   1.541 -1.7857  0.5521 -1.3263
    6CHTO   O52 2251   5.000   3.372   1.507  0.2396 -0.2367  0.2617
    6CHTO   C86 2252   4.959   3.508   1.560  0.3326 -0.1062 -0.8668
    6CHTO  H158 2253   5.045   3.578   1.550 -0.9701  1.4593 -1.5029
    6CHTO   C90 2254   4.851   3.572   1.469  0.3336 -0.0650  0.2187
    6CHTO   O60 2255   4.726   3.508   1.476 -0.3628 -0.5403  0.2592
    6CHTO  H138 2256   4.674   3.545   1.407  2.0616  0.6697 -0.9363
    6CHTO   O50 2257   5.222   3.378   1.589  0.2705  0.1828  0.1848
    6CHTO   C73 2258   5.344   3.388   1.520 -0.3500  1.0013  0.4351
    6CHTO  H145 2259   5.379   3.285   1.506 -0.5655  0.4124  3.8175
    6CHTO   C74 2260   5.440   3.470   1.613 -0.1731  0.6468  0.4306
    6CHTO  H146 2261   5.452   3.419   1.710  2.0242  0.8242  0.2859
    6CHTO   O54 2262   5.579   3.467   1.560  0.6664 -0.4360 -0.0679
    6CHTO  H133 2263   5.632   3.518   1.619 -0.7144  2.5906 -1.3327
    6CHTO   C75 2264   5.377   3.611   1.634 -0.1591 -0.3727 -0.1079
    6CHTO  H147 2265   5.277   3.602   1.678 -0.2403  1.0147  0.0096
    6CHTO   N13 2266   5.449   3.698   1.730  0.9762 -0.3700 -0.8359
    6CHTO  H139 2267   5.523   3.642   1.784  0.8922  0.7222  0.4328
    6CHTO  H140 2268   5.384   3.761   1.789  1.6288 -0.9972  0.5566
    6CHTO   C76 2269   5.349   3.679   1.493 -0.0172  0.1551  0.9157
    6CHTO  H148 2270   5.443   3.687   1.439 -1.3747  1.3298 -1.3132
    6CHTO   O49 2271   5.265   3.588   1.419 -0.1312  0.1131  0.3103
    6CHTO   C77 2272   5.334   3.463   1.391  0.1290  0.6750  0.4646
    6CHTO  H149 2273   5.434   3.469   1.348 -0.3536  2.6390 -0.4467
    6CHTO   C88 2274   5.254   3.385   1.284 -0.1286 -0.5565  0.0833
    6CHTO   O58 2275   5.231   3.472   1.153  0.5205 -0.1291  0.0003
    6CHTO  H136 2276   5.149   3.516   1.145  1.2822  1.2909 -0.1064
    6CHTO   O51 2277   5.250   3.809   1.503 -0.4766  0.8685 -0.2960
    6CHTO   C78 2278   5.319   3.953   1.459  0.1130  0.0125 -0.6606
    6CHTO  H150 2279   5.430   3.961   1.452 -0.1794  2.2559 -3.1894
    6CHTO   C80 2280   5.274   4.050   1.568 -0.3084 -0.1884 -0.2693
    6CHTO  H152 2281   5.163   4.054   1.572 -0.3450 -1.7219  0.7614
    6CHTO   O55 2282   5.312   3.991   1.693  0.4587  0.0884 -0.3495
    6CHTO  H134 2283   5.280   4.046   1.762  0.5135  0.1815 -0.3977
    6CHTO   C84 2284   5.337   4.194   1.543  0.4080  0.8651 -0.0719
    6CHTO  H156 2285   5.446   4.183   1.540  0.2145 -2.8538  3.3874
    6CHTO   N15 2286   5.313   4.295   1.651 -0.3487  0.4529 -0.6929
    6CHTO  H143 2287   5.212   4.302   1.686 -1.0241  0.3388 -2.5470
    6CHTO  H144 2288   5.354   4.389   1.622  0.6149  0.0971 -0.4912
    6CHTO   C87 2289   5.282   4.245   1.411  0.5285 -0.7359  0.1625
    6CHTO  H159 2290   5.175   4.262   1.422  0.5283 -0.9988  0.5843
    6CHTO   O53 2291   5.313   4.134   1.304  0.3447  0.4597 -0.2513
    6CHTO   C82 2292   5.266   4.001   1.326  0.2191  0.2480 -0.1146
    6CHTO  H154 2293   5.157   4.002   1.319  0.2157  0.5391 -0.0133
    6CHTO   C89 2294   5.314   3.920   1.207 -0.0373  0.5944  0.5974
    6CHTO   O59 2295   5.258   3.790   1.214  0.0090 -0.1959  0.0266
    6CHTO  H137 2296   5.321   3.728   1.246 -1.1388 -1.0236  0.7136
    6CHTO   O45 2297   5.349   4.403   1.359 -0.0812 -0.3691 -0.0585
    6CHTO   C67 2298   5.477   4.389   1.298 -0.1274 -0.0928  0.2941
    6CHTO  H124 2299   5.531   4.307   1.346 -0.6367 -0.5077  0.1589
    6CHTO   C65 2300   5.467   4.364   1.144 -0.0668 -0.6291  0.0972
    6CHTO  H122 2301   5.359   4.370   1.133  0.3049  0.3753 -3.7738
    6CHTO   O44 2302   5.512   4.229   1.118 -0.3717  0.3321 -0.1105
    6CHTO  H102 2303   5.578   4.233   1.051  0.3606  1.8521  0.6737
    6CHTO   C63 2304   5.537   4.485   1.062 -0.8555  0.3294 -0.1363
    6CHTO  H120 2305   5.480   4.575   1.080 -1.5527 -0.1345 -0.0118
    6CHTO   N11 2306   5.522   4.476   0.911 -0.1258 -0.0273 -0.1050
    6CHTO  H108 2307   5.602   4.528   0.863  1.1990 -3.5130 -1.8816
    6CHTO  H109 2308   5.521   4.373   0.882 -1.1258 -0.0251 -0.0849
    6CHTO   C61 2309   5.680   4.509   1.119 -0.5250 -0.3177 -0.1411
    6CHTO  H118 2310   5.720   4.596   1.065  0.0451 -0.1817  0.4824
    6CHTO   O40 2311   5.684   4.542   1.259 -0.4709 -0.3805 -0.5120
    6CHTO   C68 2312   5.561   4.520   1.338 -0.0584  0.5789  0.7548
    6CHTO  H125 2313   5.505   4.613   1.318 -1.7178 -0.0697  2.2598
    6CHTO   C72 2314   5.599   4.512   1.490  0.0337 -0.2707  0.0053
    6CHTO   O48 2315   5.668   4.626   1.547 -0.0510  1.0170 -0.1646
    6CHTO  H105 2316   5.664   4.697   1.485 -1.1266 -0.4713 -1.8579
    6CHTO   O38 2317   5.759   4.394   1.093  0.8047 -0.1859 -0.1334
    6CHTO   C55 2318   5.898   4.420   1.109  0.6680 -0.4448  0.2622
    6CHTO  H112 2319   5.912   4.506   1.177  1.3187 -1.0883  0.9423
    6CHTO   C56 2320   5.964   4.446   0.965 -0.2684  0.4133 -0.1079
    6CHTO  H113 2321   5.950   4.357   0.901 -0.5672 -0.7651  1.5675
    6CHTO   O42 2322   5.890   4.550   0.906  0.1969  0.4050 -0.1922
    6CHTO  H100 2323   5.916   4.565   0.817  0.0962  0.2932 -0.2410
    6CHTO   C57 2324   6.112   4.484   0.974 -0.5988  0.3334 -0.8035
    6CHTO  H114 2325   6.110   4.582   1.023 -1.6116 -1.0728  2.0694
    6CHTO   N10 2326   6.178   4.500   0.844 -0.4336  0.4019 -0.2828
    6CHTO  H106 2327   6.111   4.552   0.777 -1.0118  2.8293  2.0880
    6CHTO  H107 2328   6.202   4.406   0.797  2.1891  0.2647  1.2801
    6CHTO   C58 2329   6.181   4.379   1.075  0.2332 -0.0553 -0.0017
    6CHTO  H115 2330   6.200   4.283   1.022  0.0450 -0.4910  0.7072
    6CHTO   O37 2331   6.101   4.340   1.190 -0.5011  0.8989 -0.2663
    6CHTO   C59 2332   5.966   4.300   1.169 -0.1868 -0.4918  0.1399
    6CHTO  H116 2333   5.964   4.223   1.091 -0.7559 -1.9246  1.5449
    6CHTO   C70 2334   5.914   4.253   1.302  0.1845 -0.1208 -0.0422
    6CHTO   O46 2335   5.903   4.343   1.409  0.2543 -0.5395 -0.1454
    6CHTO  H103 2336   5.874   4.302   1.488 -1.2385 -2.3567 -1.6076
    6CHTO   O39 2337   6.314   4.425   1.149 -0.8017 -0.5371  0.7249
    6CHTO   C60 2338   6.427   4.335   1.131 -0.6009  0.1776  0.1372
    6CHTO  H117 2339   6.388   4.234   1.142 -0.2719  0.2322  2.1027
    6CHTO   C62 2340   6.505   4.349   0.996 -0.3003  0.0493  0.2493
    6CHTO  H119 2341   6.427   4.320   0.922  0.4681  1.8527 -1.2866
    6CHTO   O43 2342   6.547   4.488   0.976  0.3294 -0.4070  0.6216
    6CHTO  H101 2343   6.468   4.538   0.965 -0.6089 -1.5966  1.7387
    6CHTO   C66 2344   6.623   4.243   0.990 -0.3331  0.3457  0.1232
    6CHTO  H123 2345   6.578   4.144   1.002  1.0980 -0.8608 -3.6887
    6CHTO   N12 2346   6.683   4.243   0.855 -0.1814  0.9161 -0.0773
    6CHTO  H110 2347   6.734   4.151   0.831 -3.5526 -0.9644 -0.4409
    6CHTO  H111 2348   6.749   4.326   0.835  0.4707 -0.0679 -2.1202
    6CHTO   C69 2349   6.729   4.270   1.099 -0.0940 -0.1893 -0.5172
    6CHTO  H126 2350   6.779   4.366   1.076 -0.9213  0.5150  0.5379
    6CHTO   O41 2351   6.655   4.271   1.236 -0.1274 -0.6398 -0.2691
    6CHTO   C64 2352   6.527   4.359   1.255  0.1017  0.6118  0.1808
    6CHTO  H121 2353   6.549   4.468   1.256 -1.4228  0.9339  0.4097
    6CHTO   C71 2354   6.462   4.319   1.386  0.3427 -0.2894 -0.0542
    6CHTO   O47 2355   6.387   4.424   1.450  0.9244 -0.2569 -0.2584
    6CHTO  H104 2356   6.407   4.422   1.541  0.2792 -3.0264 -0.1328
    6CHTO   O34 2357   6.839   4.168   1.102 -0.0479  0.2533 -0.2277
    6CHTO   C49 2358   6.920   4.080   1.034 -0.4478 -0.1683  0.2394
    6CHTO   H91 2359   6.854   4.010   0.984 -1.9110 -1.3437  3.6715
    6CHTO   C47 2360   7.017   4.002   1.123  0.6078  0.1570  0.2663
    6CHTO   H89 2361   7.054   3.921   1.057 -1.6172 -2.9564  2.6568
    6CHTO   O33 2362   6.953   3.937   1.238  0.4283  0.3908  0.1399
    6CHTO   H70 2363   7.008   3.866   1.266  1.3981  0.1084 -2.3693
    6CHTO   C45 2364   7.136   4.091   1.177  0.0387  0.2906  0.7051
    6CHTO   H87 2365   7.115   4.127   1.279  0.5978  3.5070 -0.2373
    6CHTO    N8 2366   7.259   4.004   1.182 -0.7366 -0.3628  0.3203
    6CHTO   H75 2367   7.329   4.034   1.105 -0.6025 -0.1349  0.5286
    6CHTO   H76 2368   7.246   3.898   1.171  3.7876 -0.9807  0.1562
    6CHTO   C43 2369   7.146   4.228   1.100  0.0574 -0.5037  0.0320
    6CHTO   H85 2370   7.069   4.294   1.139 -1.8538 -1.7240 -1.6258
    6CHTO   O29 2371   7.134   4.206   0.960 -0.2032  0.2850 -0.0305
    6CHTO   C50 2372   7.008   4.154   0.921 -0.0893 -0.0436  0.0708
    6CHTO   H92 2373   6.953   4.243   0.887  1.1938  1.2779  1.3471
    6CHTO   C54 2374   7.028   4.059   0.798  0.0825 -0.2172 -0.1188
    6CHTO   O36 2375   7.038   4.140   0.677  0.2180  0.4871 -0.4953
    6CHTO   H72 2376   7.090   4.217   0.693 -0.5460  1.0882 -0.8699
    6CHTO   O27 2377   7.266   4.300   1.133  0.8485  0.0963  0.1000
    6CHTO   C37 2378   7.318   4.431   1.139 -0.1968 -0.1097  0.0100
    6CHTO   H79 2379   7.348   4.460   1.037  2.0307  0.2358  0.7270
    6CHTO   C38 2380   7.204   4.534   1.185 -0.7046  0.3327 -0.9733
    6CHTO   H80 2381   7.142   4.490   1.265  3.5624  0.5397  2.6858
    6CHTO   O31 2382   7.130   4.568   1.074 -0.1592  0.0106 -0.2619
    6CHTO   H68 2383   7.077   4.497   1.043  0.2925 -1.3798  2.0625
    6CHTO   C39 2384   7.264   4.661   1.246  0.4039  0.0586 -0.4007
    6CHTO   H81 2385   7.307   4.719   1.165 -1.4846  0.0067 -1.4648
    6CHTO    N7 2386   7.165   4.763   1.315 -0.8254  0.8698  0.7452
    6CHTO   H73 2387   7.079   4.777   1.251 -0.5459  1.1219  0.4218
    6CHTO   H74 2388   7.130   4.730   1.412 -0.9583  1.0627  0.7648
    6CHTO   C40 2389   7.383   4.634   1.347  0.2009 -0.0995 -0.0584
    6CHTO   H82 2390   7.350   4.597   1.445  1.6525  0.0955  0.5096
    6CHTO   O26 2391   7.481   4.545   1.283 -0.3688 -0.0245 -0.2971
    6CHTO   C41 2392   7.438   4.417   1.238  0.5094  0.6956 -0.0508
    6CHTO   H83 2393   7.404   4.357   1.324  0.7052 -0.0180 -0.4613
    6CHTO   C52 2394   7.565   4.345   1.176 -0.3525 -0.2371  0.3934
    6CHTO   O35 2395   7.529   4.215   1.080  0.1181 -0.0021 -0.2032
    6CHTO   H71 2396   7.607   4.168   1.059  1.1692  0.3565  2.6758
    6CHTO   O28 2397   7.462   4.757   1.365  0.2418  0.2590 -0.1446
    6CHTO   C42 2398   7.510   4.808   1.494 -0.8833  0.0394 -0.5202
    6CHTO   H84 2399   7.589   4.874   1.459 -0.9254  0.4278  0.0951
    6CHTO   C44 2400   7.573   4.708   1.592 -1.0137  0.0484 -0.4951
    6CHTO   H86 2401   7.504   4.627   1.613  1.7435 -2.1646  0.4205
    6CHTO   O32 2402   7.688   4.660   1.519 -0.3886 -0.0309  0.8025
    6CHTO   H69 2403   7.709   4.572   1.543  1.1976 -0.1939 -1.0193
    6CHTO   C48 2404   7.619   4.775   1.732  0.4178  0.6586  0.0560
    6CHTO   H90 2405   7.694   4.851   1.707  0.2711  0.9045  0.3565
    6CHTO    N9 2406   7.682   4.673   1.820  0.1765 -0.7172  0.2775
    6CHTO   H77 2407   7.681   4.573   1.779  0.6638 -0.8925  0.6813
    6CHTO   H78 2408   7.785   4.700   1.840 -0.8946  2.1961  2.1698
    6CHTO   C51 2409   7.501   4.857   1.794  0.5583 -0.1061  0.0390
    6CHTO   H93 2410   7.419   4.793   1.827 -0.5861  0.9835 -0.6569
    6CHTO   O30 2411   7.459   4.956   1.703  0.1930  0.3866 -0.1065
    6CHTO   C46 2412   7.408   4.899   1.569 -0.2763  0.0132 -0.2688
    6CHTO   H88 2413   7.318   4.842   1.591 -0.8534  0.3248 -1.7374
    6CHTO   C53 2414   7.356   5.021   1.479 -0.5948  0.6218 -0.4622
    6CHTO   O72 2415   7.235   5.073   1.535 -0.3716 -0.0714  0.6846
    6CHTO  H199 2416   7.246   5.136   1.604 -2.0293  0.6392  0.3334
    6CHTO   O22 2417   7.548   4.942   1.903 -0.1721 -0.0125 -0.3079
    6CHTO   C31 2418   7.459   5.003   2.000  0.4501  0.5115  0.0043
    6CHTO   H59 2419   7.508   5.098   2.031  0.0260  2.0786 -3.8217
    6CHTO   C29 2420   7.318   5.046   1.961 -0.2273 -0.4940  0.3889
    6CHTO   H57 2421   7.274   4.959   1.910 -1.5805 -0.4829  1.5201
    6CHTO   O21 2422   7.328   5.152   1.860 -0.2841  0.0135  0.1459
    6CHTO   H37 2423   7.379   5.130   1.785 -0.7153 -2.9590  0.6717
    6CHTO   C27 2424   7.222   5.086   2.087 -0.3257  0.0231  0.0030
    6CHTO   H55 2425   7.261   5.175   2.138 -0.1924  0.9347 -1.6329
    6CHTO    N5 2426   7.079   5.114   2.045  0.3378 -0.1717 -0.0446
    6CHTO   H43 2427   7.079   5.220   2.027  4.4321  0.1855  1.4187
    6CHTO   H44 2428   7.049   5.044   1.968 -0.9263  0.2662  0.0519
    6CHTO   C25 2429   7.232   4.971   2.193 -0.3917  0.3675 -0.3027
    6CHTO   H53 2430   7.194   4.884   2.138  0.4294  0.5759 -1.2026
    6CHTO   O17 2431   7.372   4.965   2.236  0.0428 -0.5252 -0.4306
    6CHTO   C32 2432   7.459   4.918   2.132 -0.2022 -0.1952 -0.4571
    6CHTO   H60 2433   7.436   4.814   2.106 -0.2579 -0.4762  0.7050
    6CHTO   C36 2434   7.601   4.916   2.193 -0.1362  0.1823 -0.8961
    6CHTO   O25 2435   7.627   4.844   2.314  0.5412  0.7620  0.2695
    6CHTO   H40 2436   7.597   4.755   2.308  0.0801  0.6075  3.6524
    6CHTO   O15 2437   7.141   5.000   2.311  0.4116  0.0361 -0.7262
    6CHTO   C19 2438   7.078   5.052   2.438 -1.0998  0.1501 -0.1677
    6CHTO   H47 2439   7.088   4.973   2.514  1.3772  0.0256 -0.5672
    6CHTO   C20 2440   7.143   5.175   2.501 -0.0866  0.7158  0.4469
    6CHTO   H48 2441   7.158   5.258   2.430  0.2082  1.8644  1.8133
    6CHTO   O19 2442   7.270   5.124   2.553 -0.3328  0.3089 -0.5287
    6CHTO   H35 2443   7.307   5.075   2.481 -0.7484 -0.0270 -0.5163
    6CHTO   C21 2444   7.057   5.232   2.619  0.1217 -0.1264 -0.2935
    6CHTO   H49 2445   7.030   5.150   2.686 -0.9910  0.4281 -0.0537
    6CHTO    N4 2446   7.120   5.336   2.702 -0.0683  0.4456 -0.0910
    6CHTO   H41 2447   7.047   5.366   2.776 -1.7014 -1.1723 -1.0133
    6CHTO   H42 2448   7.147   5.422   2.643 -2.2352  1.0020 -0.2812
    6CHTO   C22 2449   6.919   5.270   2.557  0.5302 -0.3596 -0.4736
    6CHTO   H50 2450   6.937   5.339   2.474  1.0370 -2.3519 -2.0894
    6CHTO   O14 2451   6.859   5.149   2.515 -0.0245  0.2796  0.8520
    6CHTO   C23 2452   6.929   5.073   2.411 -0.0757  0.0158 -0.9758
    6CHTO   H51 2453   6.913   5.129   2.317  1.3292  0.2399 -1.1006
    6CHTO   C34 2454   6.864   4.935   2.386  0.0615 -0.0503 -0.8852
    6CHTO   O23 2455   6.736   4.948   2.319 -0.5479  0.1472  0.1589
    6CHTO   H38 2456   6.730   4.872   2.264 -2.3018  0.3471  0.0535
    6CHTO   O16 2457   6.828   5.319   2.654  1.0029  0.0604  0.0062
    6CHTO   C24 2458   6.695   5.398   2.571  0.9416  0.3879 -0.5740
    6CHTO   H52 2459   6.712   5.402   2.463  0.1140  0.5171 -0.7051
    6CHTO   C26 2460   6.691   5.537   2.633  0.4127 -0.0093 -0.1952
    6CHTO   H54 2461   6.691   5.526   2.743 -0.6925  1.8851  0.0200
    6CHTO   O20 2462   6.816   5.606   2.607 -0.0369 -0.6453  0.3601
    6CHTO   H36 2463   6.811   5.700   2.605  3.0124 -0.3526  2.8603
    6CHTO   C30 2464   6.564   5.621   2.590  0.2762 -0.1118 -0.1627
    6CHTO   H58 2465   6.570   5.627   2.480 -2.6230 -0.2201 -0.3478
    6CHTO    N6 2466   6.565   5.760   2.650  0.0114 -0.8499  0.1199
    6CHTO   H45 2467   6.526   5.824   2.572 -1.0030 -1.0341  0.4758
    6CHTO   H46 2468   6.668   5.785   2.673 -0.8652  1.8810  1.2922
    6CHTO   C33 2469   6.435   5.538   2.613  0.9266  0.0057  0.5512
    6CHTO   H61 2470   6.422   5.522   2.721 -0.3144 -1.4894  0.2096
    6CHTO   O18 2471   6.451   5.410   2.543  0.3728  0.4452 -0.0318
    6CHTO   C28 2472   6.559   5.324   2.592  0.8584 -0.5113  0.2640
    6CHTO   H56 2473   6.550   5.286   2.693 -0.5402 -0.0587  0.3136
    6CHTO   C35 2474   6.549   5.194   2.505 -0.1931  0.0798  0.1662
    6CHTO   O24 2475   6.414   5.144   2.501 -0.1476 -0.1212 -0.2263
    6CHTO   H39 2476   6.410   5.062   2.457 -2.0784  0.5782 -1.4177
    6CHTO    O9 2477   6.314   5.597   2.570  0.0494 -0.0571  0.2793
    6CHTO   C13 2478   6.189   5.495   2.614  0.3848 -0.5690 -0.2044
    6CHTO   H26 2479   6.228   5.418   2.682 -0.8089 -1.7845 -0.8639
    6CHTO   C11 2480   6.131   5.435   2.478  0.2456  0.4785 -0.6945
    6CHTO   H24 2481   6.204   5.362   2.441 -1.0504 -0.5891 -1.2168
    6CHTO    O8 2482   6.103   5.541   2.381 -0.1081 -0.4628 -0.0341
    6CHTO    H3 2483   6.185   5.584   2.364 -0.7881  1.4880  1.3370
    6CHTO    C9 2484   6.002   5.352   2.517  0.3008 -0.3128 -0.5885
    6CHTO   H22 2485   6.035   5.271   2.584  1.4965  1.2638  0.7830
    6CHTO    N2 2486   5.938   5.273   2.410  0.1799 -0.5264 -0.0108
    6CHTO   H10 2487   5.929   5.338   2.325  1.9295 -1.8027 -1.2240
    6CHTO   H11 2488   5.986   5.179   2.384  0.6618 -0.3647  0.2910
    6CHTO    C7 2489   5.895   5.441   2.599  0.1101  0.0929 -0.3577
    6CHTO   H20 2490   5.875   5.377   2.687  1.6539 -0.5475 -0.4692
    6CHTO    O4 2491   5.947   5.568   2.636  0.0178  0.5053 -0.0006
    6CHTO   C14 2492   6.081   5.573   2.694  0.7335  0.0949 -0.7321
    6CHTO   H27 2493   6.072   5.534   2.797  0.1099 -0.6226 -1.0509
    6CHTO   C18 2494   6.109   5.729   2.706  0.4201  0.2886  0.3731
    6CHTO   O13 2495   6.206   5.739   2.809 -0.1271 -0.0623  0.3375
    6CHTO    H7 2496   6.283   5.777   2.772  0.6303 -2.2253 -0.3963
    6CHTO    O2 2497   5.749   5.466   2.520  0.5599  0.3047  0.1164
    6CHTO    C1 2498   5.636   5.494   2.609  0.2341 -0.4167 -0.5239
    6CHTO   H14 2499   5.547   5.523   2.550 -0.8165 -1.1118  0.6857
    6CHTO    C2 2500   5.658   5.611   2.721 -0.4885  0.2421  0.7351
    6CHTO   H15 2501   5.745   5.574   2.777  0.1681 -0.9032 -0.9840
    6CHTO    O6 2502   5.693   5.737   2.659  0.3845  0.0631  0.0964
    6CHTO    H1 2503   5.785   5.754   2.664  0.5955 -0.8341 -0.5464
    6CHTO    C3 2504   5.522   5.620   2.803 -0.0101  0.4038 -0.3999
    6CHTO   H16 2505   5.441   5.654   2.737  0.0205  1.3474  0.0380
    6CHTO    N1 2506   5.529   5.723   2.909  0.6301 -0.1072  0.0411
    6CHTO    H8 2507   5.542   5.817   2.856  0.4083 -1.0376 -1.7153
    6CHTO    H9 2508   5.439   5.716   2.968  1.5030  1.6237  1.6439
    6CHTO    C4 2509   5.472   5.481   2.856 -0.3068 -0.5331 -0.1828
    6CHTO   H17 2510   5.537   5.441   2.934 -1.3523 -4.2729 -1.1398
    6CHTO    O1 2511   5.472   5.374   2.758  0.3329  0.1498 -0.0527
    6CHTO    C5 2512   5.596   5.365   2.690  0.2629  0.1838  0.2636
    6CHTO   H18 2513   5.676   5.347   2.762  0.9496 -1.6963 -0.9571
    6CHTO   C16 2514   5.582   5.236   2.603  0.0481 -0.2358 -0.0698
    6CHTO   O11 2515   5.469   5.254   2.513  0.0940 -0.6465  0.5225
    6CHTO    H5 2516   5.395   5.240   2.569  0.5024 -1.1677  0.9391
    6CHTO    O3 2517   5.338   5.489   2.911 -0.2043 -0.2060 -0.5743
    6CHTO    C6 2518   5.310   5.378   3.004 -0.4983  1.1555  0.4597
    6CHTO   H19 2519   5.379   5.296   2.984 -2.0637 -0.2541  0.7204
    6CHTO    C8 2520   5.310   5.446   3.141 -0.2769 -0.1036 -0.6716
    6CHTO   H21 2521   5.260   5.541   3.130  0.6812  0.4820 -0.0587
    6CHTO    O7 2522   5.449   5.477   3.170 -0.0214 -0.0448 -0.1260
    6CHTO    H2 2523   5.463   5.468   3.262  0.5033  0.3344 -0.1671
    6CHTO   C12 2524   5.245   5.357   3.253 -0.1997 -0.1501  0.5665
    6CHTO   H25 2525   5.323   5.279   3.267  0.0050  0.1534  1.1553
    6CHTO    N3 2526   5.237   5.435   3.380 -0.5277 -0.4844 -0.6474
    6CHTO   H12 2527   5.198   5.358   3.445  2.3751 -1.4706  0.0021
    6CHTO   H13 2528   5.172   5.520   3.373 -0.2460 -0.2371 -0.2267
    6CHTO   C15 2529   5.115   5.292   3.204  0.3222 -0.5343  0.3221
    6CHTO   H28 2530   5.037   5.368   3.201  1.1987  0.4227  1.1222
    6CHTO   O10 2531   5.039   5.177   3.277  0.1129  0.3523 -0.1756
    6CHTO    H4 2532   5.089   5.098   3.284 -1.3668 -0.8432 -2.3132
    6CHTO    O5 2533   5.132   5.223   3.078  0.5869  0.0422 -0.1290
    6CHTO   C10 2534   5.167   5.314   2.978 -0.0271 -0.1797  0.4939
    6CHTO   H23 2535   5.093   5.394   2.974 -0.4697 -0.6796 -2.0682
    6CHTO   C17 2536   5.166   5.247   2.843 -0.2488  0.1449  0.4534
    6CHTO   O12 2537   5.188   5.336   2.735  0.2468 -0.2547  0.0271
    6CHTO    H6 2538   5.269   5.383   2.736  0.6195 -0.8094 -1.5490
    7CHTO  H203 2539   4.965   2.064   2.982 -0.4178 -0.4387 -2.1539
    7CHTO   O82 2540   5.000   2.151   2.979 -0.4442 -0.3367 -0.4657
    7CHTO  C123 2541   5.139   2.159   2.942 -0.0302  0.5496 -0.4441
    7CHTO  H227 2542   5.153   2.143   2.834  0.8005 -0.3845 -0.2049
    7CHTO   O77 2543   5.178   2.302   2.945 -0.2616 -0.5572  0.3523
    7CHTO  C118 2544   5.315   2.333   2.894  0.4801 -0.3067  0.3630
    7CHTO  H222 2545   5.321   2.298   2.790 -0.2642 -1.1944  0.6112
    7CHTO  C125 2546   5.342   2.488   2.905 -0.1468  0.1982 -0.4156
    7CHTO   O84 2547   5.231   2.556   2.842 -0.1624 -0.1914  0.4722
    7CHTO  H205 2548   5.262   2.628   2.790  0.6266 -0.5359  0.4670
    7CHTO  C114 2549   5.413   2.261   2.985 -0.0409 -0.1097  0.4982
    7CHTO  H218 2550   5.404   2.297   3.087  0.6538  0.2177  0.4441
    7CHTO  C116 2551   5.387   2.101   2.987 -0.0566 -0.1237 -0.0398
    7CHTO  H220 2552   5.406   2.063   2.884  1.3237  1.6565 -0.4611
    7CHTO   O79 2553   5.476   2.045   3.076  0.0156  0.5229  0.5610
    7CHTO  H201 2554   5.564   2.055   3.045  0.2114  2.6680  1.6786
    7CHTO  C120 2555   5.240   2.073   3.033  0.0955  0.5720 -0.1192
    7CHTO  H224 2556   5.241   2.109   3.138  1.5752 -2.5993  1.0322
    7CHTO   N21 2557   5.206   1.929   3.030  0.9541 -0.0526 -0.6432
    7CHTO  H211 2558   5.110   1.906   3.074  0.9193  0.8192 -0.2602
    7CHTO  H212 2559   5.198   1.889   2.930  1.2429 -0.2492 -0.5892
    7CHTO   O75 2560   5.537   2.296   2.924 -0.3946  0.3935 -0.3684
    7CHTO  C112 2561   5.662   2.288   3.016  0.0358  0.0888 -0.4106
    7CHTO  H216 2562   5.686   2.181   3.028  2.3028  0.5147 -0.8841
    7CHTO   O73 2563   5.645   2.353   3.139 -0.1530  0.2749 -0.2219
    7CHTO  C113 2564   5.753   2.335   3.235  0.0056  0.1091  0.2911
    7CHTO  H217 2565   5.774   2.226   3.238  0.7184  0.1939 -1.1182
    7CHTO  C124 2566   5.713   2.389   3.376 -0.2769  0.3470 -0.5730
    7CHTO   O83 2567   5.634   2.511   3.371 -0.5419 -0.0475  0.0857
    7CHTO  H204 2568   5.687   2.587   3.379 -1.6037  1.0349 -2.5062
    7CHTO  C109 2569   5.882   2.395   3.184 -1.3676 -0.4437 -0.4245
    7CHTO  H213 2570   5.864   2.502   3.169  0.9743 -0.2563 -2.2120
    7CHTO  C110 2571   5.908   2.328   3.048 -0.1482 -0.4127  0.1213
    7CHTO  H214 2572   5.926   2.222   3.069 -0.5710 -0.4221  0.4674
    7CHTO   O78 2573   6.030   2.385   2.996 -0.1491 -0.2378  0.8322
    7CHTO  H200 2574   6.034   2.423   2.911 -0.9346 -0.4176  0.7200
    7CHTO  C111 2575   5.792   2.342   2.949  0.6804 -0.0521 -0.6131
    7CHTO  H215 2576   5.782   2.449   2.927 -1.7963 -0.5532 -2.0634
    7CHTO   N19 2577   5.823   2.280   2.819  0.3630 -1.1384  0.3148
    7CHTO  H207 2578   5.855   2.178   2.828 -0.1013 -1.3679 -0.5419
    7CHTO  H208 2579   5.744   2.293   2.747  0.8831 -2.9886 -0.6083
    7CHTO   O74 2580   5.986   2.379   3.283 -0.6437  0.6169 -0.0933
    7CHTO  C115 2581   6.092   2.482   3.277  0.2264 -0.6495  1.1835
    7CHTO  H219 2582   6.093   2.539   3.184  2.1630 -0.6735  1.1586
    7CHTO   O76 2583   6.086   2.591   3.403  0.0011  0.1314  0.8466
    7CHTO  C122 2584   6.082   2.519   3.529 -0.2080  0.4260  0.4965
    7CHTO  H226 2585   5.994   2.455   3.536  0.2192 -0.1637  0.5184
    7CHTO  C126 2586   6.066   2.626   3.643  1.1132 -0.4204  0.0597
    7CHTO   O85 2587   6.097   2.577   3.772  0.1200  0.0244 -0.5449
    7CHTO  H206 2588   6.040   2.623   3.831  1.0050  1.4562 -0.7842
    7CHTO  C121 2589   6.217   2.432   3.548  0.0044 -0.3641  0.7890
    7CHTO  H225 2590   6.302   2.503   3.556 -0.1887 -0.1935  1.3099
    7CHTO   O81 2591   6.217   2.364   3.677 -0.1521 -1.0521 -0.5178
    7CHTO  H202 2592   6.267   2.409   3.742 -1.8936  0.2956 -0.0576
    7CHTO  C119 2593   6.230   2.333   3.427 -0.2881  0.4745  0.2202
    7CHTO  H223 2594   6.329   2.292   3.446 -0.2675  0.1892 -0.4940
    7CHTO  C117 2595   6.226   2.402   3.287 -0.2178  0.3043  0.4150
    7CHTO  H221 2596   6.216   2.330   3.206  1.0377  2.1666 -1.4511
    7CHTO   N20 2597   6.345   2.474   3.248 -0.4848 -0.6279  0.1316
    7CHTO  H209 2598   6.424   2.466   3.321  0.9241 -2.2865 -1.5211
    7CHTO  H210 2599   6.387   2.439   3.155 -1.4274 -1.4170 -0.0070
    7CHTO   O80 2600   6.134   2.209   3.441  0.2676  0.1364 -0.1572
    7CHTO  C103 2601   6.146   2.076   3.356 -0.0652 -0.5569 -0.2030
    7CHTO  H190 2602   6.118   2.102   3.254  1.7003 -2.4491 -1.2076
    7CHTO  C101 2603   6.288   2.014   3.356 -0.0289  0.0577  0.3264
    7CHTO  H188 2604   6.323   2.018   3.459 -0.1995 -0.2657  0.3987
    7CHTO   O68 2605   6.369   2.108   3.258  0.0689  0.2293  0.0951
    7CHTO  H168 2606   6.459   2.085   3.250 -0.3615 -2.0022  1.4338
    7CHTO   C99 2607   6.284   1.858   3.305 -0.5287 -0.2850 -0.1977
    7CHTO  H186 2608   6.263   1.861   3.196 -1.6796  0.5581  0.0375
    7CHTO   N17 2609   6.412   1.787   3.320 -0.0423 -0.3379 -0.0331
    7CHTO  H174 2610   6.409   1.693   3.268 -1.7398 -0.4722  0.2766
    7CHTO  H175 2611   6.446   1.775   3.422  2.0649 -0.9271 -0.8017
    7CHTO   C97 2612   6.167   1.784   3.368  0.0759 -0.1576  1.0845
    7CHTO  H184 2613   6.190   1.779   3.475  1.4627  0.0332  0.8129
    7CHTO   O64 2614   6.051   1.860   3.340  0.1667 -0.0301  0.7067
    7CHTO  C104 2615   6.036   1.984   3.409  0.0249  0.7062  0.3218
    7CHTO  H191 2616   6.045   1.973   3.517 -0.7637 -2.9533  0.0821
    7CHTO  C108 2617   5.900   2.040   3.378 -0.0779  0.0515  0.7242
    7CHTO   O71 2618   5.798   1.945   3.435  0.2465 -0.1435 -0.0698
    7CHTO  H171 2619   5.762   1.894   3.366 -0.8861 -0.7634  0.9663
    7CHTO   O62 2620   6.141   1.655   3.312  0.4869  0.2440 -0.1842
    7CHTO   C91 2621   6.085   1.550   3.388 -0.0920  0.1511 -0.1531
    7CHTO  H178 2622   6.061   1.468   3.320 -1.7054 -0.8970  1.6366
    7CHTO   C92 2623   5.943   1.587   3.453 -1.0299 -0.1331 -0.4891
    7CHTO  H179 2624   5.955   1.679   3.513 -1.7473 -1.1479  1.2558
    7CHTO   O66 2625   5.846   1.615   3.347 -0.1125  0.5261  0.1655
    7CHTO  H166 2626   5.773   1.668   3.374 -1.5394 -0.6605 -1.2504
    7CHTO   C93 2627   5.893   1.477   3.561  0.6783 -0.6815  0.0883
    7CHTO  H180 2628   5.856   1.398   3.494  1.5914 -1.5277  0.5623
    7CHTO   N16 2629   5.769   1.520   3.639  0.3198  0.1913 -0.1648
    7CHTO  H172 2630   5.759   1.454   3.723  2.3252 -2.4382 -1.9046
    7CHTO  H173 2631   5.784   1.620   3.676 -0.3754  0.7441 -1.3288
    7CHTO   C94 2632   6.007   1.428   3.657  0.5912  0.4535  0.0207
    7CHTO  H181 2633   6.043   1.506   3.724 -0.8380  1.2074 -0.0711
    7CHTO   O61 2634   6.130   1.397   3.586 -0.0815 -0.1860  0.1637
    7CHTO   C95 2635   6.191   1.493   3.498 -0.0106  0.0889 -0.1560
    7CHTO  H182 2636   6.226   1.577   3.558 -0.4281  1.7460 -2.2022
    7CHTO  C106 2637   6.316   1.434   3.420  0.2605 -0.2319 -0.2788
    7CHTO   O69 2638   6.407   1.388   3.513 -0.4222  0.1830  0.1420
    7CHTO  H169 2639   6.377   1.316   3.565  0.2935 -2.5600 -3.0284
    7CHTO   O63 2640   5.964   1.298   3.729 -0.4290  0.0808  0.1957
    7CHTO   C96 2641   6.000   1.304   3.880  0.3957 -0.1162 -0.2874
    7CHTO  H183 2642   5.982   1.407   3.913 -0.6061 -0.1542 -0.6994
    7CHTO   C98 2643   6.138   1.250   3.916 -0.4513 -0.4059  0.2669
    7CHTO  H185 2644   6.211   1.301   3.852 -0.5727 -1.6462 -0.8911
    7CHTO   O67 2645   6.170   1.294   4.046 -0.0231 -0.0972  0.2593
    7CHTO  H167 2646   6.120   1.241   4.105 -1.6893  0.8813 -0.2438
    7CHTO  C102 2647   6.148   1.089   3.901 -0.7190 -0.0613  0.7996
    7CHTO  H189 2648   6.239   1.060   3.956 -1.3288  0.7582  2.2696
    7CHTO   N18 2649   6.178   1.051   3.760  0.0767  0.0001 -0.1957
    7CHTO  H176 2650   6.117   1.104   3.689  0.0987  1.4736  0.8559
    7CHTO  H177 2651   6.278   1.083   3.736  0.6380  0.5655  2.6436
    7CHTO  C105 2652   6.030   1.016   3.964 -0.3976  0.1911  0.1399
    7CHTO  H192 2653   5.972   0.970   3.884 -1.7558  2.2890 -0.1252
    7CHTO   O65 2654   5.938   1.103   4.028  0.5218 -0.0701  0.6971
    7CHTO  C100 2655   5.888   1.217   3.957  0.1205 -0.4581  0.6021
    7CHTO  H187 2656   5.815   1.190   3.879  1.6011  0.8735 -1.2988
    7CHTO  C107 2657   5.809   1.304   4.059 -0.1239 -0.0550  0.1340
    7CHTO   O70 2658   5.695   1.234   4.100 -0.2107 -0.3797 -0.5030
    7CHTO  H170 2659   5.658   1.275   4.175 -1.3803 -2.0302 -0.1331
    7CHTO   O57 2660   6.090   0.914   4.056  0.2669  0.3901 -0.0157
    7CHTO   C85 2661   6.090   0.766   4.054  0.5121  0.4260  0.2325
    7CHTO  H157 2662   6.118   0.745   3.948 -0.9763 -1.8359  0.2589
    7CHTO   C83 2663   5.953   0.718   4.089  0.7119 -0.4162  0.0102
    7CHTO  H155 2664   5.891   0.765   4.012  1.9797 -1.0747 -1.4425
    7CHTO   O56 2665   5.913   0.756   4.223  0.2629  0.1163 -1.0463
    7CHTO  H135 2666   5.844   0.820   4.232  0.3864 -0.0316  1.1859
    7CHTO   C81 2667   5.951   0.566   4.069 -0.9353 -0.1931 -0.7534
    7CHTO  H153 2668   5.985   0.533   3.971  1.0237 -1.4669  0.3226
    7CHTO   N14 2669   5.820   0.506   4.065 -0.8405 -0.0888 -0.3117
    7CHTO  H141 2670   5.802   0.454   4.157 -0.5644  0.1777 -0.1087
    7CHTO  H142 2671   5.745   0.577   4.036 -0.7646 -0.0839 -0.4956
    7CHTO   C79 2672   6.052   0.503   4.181 -0.1867  0.3726 -0.6159
    7CHTO  H151 2673   6.055   0.395   4.163  0.2991  0.6791 -2.4671
    7CHTO   O52 2674   6.188   0.546   4.157 -0.8194  0.1461  0.9522
    7CHTO   C86 2675   6.194   0.694   4.151  0.0602  0.3386  0.0398
    7CHTO  H158 2676   6.175   0.719   4.258 -3.9567  0.6308 -0.6706
    7CHTO   C90 2677   6.335   0.755   4.128 -0.2124  0.2653  0.0216
    7CHTO   O60 2678   6.433   0.693   4.206 -0.0679 -0.0466 -0.1883
    7CHTO  H138 2679   6.520   0.718   4.180  0.5862 -0.6997  1.3150
    7CHTO   O50 2680   6.014   0.520   4.316  0.0193  0.0649 -0.2451
    7CHTO   C73 2681   6.030   0.432   4.426  0.2655 -0.7363 -0.3772
    7CHTO  H145 2682   6.131   0.390   4.414  0.2064 -1.0445  0.1679
    7CHTO   C74 2683   5.915   0.324   4.432  0.3043 -0.1052 -0.0370
    7CHTO  H146 2684   5.910   0.269   4.336  0.4185 -0.5283  0.1969
    7CHTO   O54 2685   5.964   0.224   4.520  0.0021  0.4955  0.9367
    7CHTO  H133 2686   5.889   0.174   4.547  0.7930 -1.1188  0.2228
    7CHTO   C75 2687   5.776   0.396   4.467  0.7900  0.1092  0.3024
    7CHTO  H147 2688   5.757   0.469   4.386 -1.3367 -1.2437 -0.4713
    7CHTO   N13 2689   5.663   0.304   4.487 -0.1444 -0.1119  0.6116
    7CHTO  H139 2690   5.579   0.356   4.529  1.3219  1.6780  1.4194
    7CHTO  H140 2691   5.691   0.224   4.553 -2.2973 -0.7300  0.8067
    7CHTO   C76 2692   5.794   0.496   4.595 -0.0194 -0.4666 -0.0225
    7CHTO  H148 2693   5.805   0.436   4.685  4.0299 -3.1991 -2.1840
    7CHTO   O49 2694   5.907   0.590   4.590 -0.0869 -0.3338 -0.1498
    7CHTO   C77 2695   6.029   0.526   4.552  0.5979 -0.5318 -0.6938
    7CHTO  H149 2696   6.067   0.473   4.639 -0.5366  2.3530  1.6677
    7CHTO   C88 2697   6.132   0.642   4.543  0.4375  0.0720  0.1629
    7CHTO   O58 2698   6.261   0.608   4.531  0.0738  0.5884 -0.2157
    7CHTO  H136 2699   6.315   0.683   4.514  1.4918 -0.2082  0.6864
    7CHTO   O51 2700   5.665   0.621   4.600  0.4268  0.3854  0.8015
    7CHTO   C78 2701   5.618   0.647   4.752 -0.7513  0.5257  0.2679
    7CHTO  H150 2702   5.691   0.601   4.822 -0.4701 -1.1221 -1.0955
    7CHTO   C80 2703   5.478   0.578   4.776 -1.0214  0.0290 -0.5414
    7CHTO  H152 2704   5.422   0.597   4.683 -1.3476  1.6617 -0.0314
    7CHTO   O55 2705   5.499   0.435   4.805 -0.4555  0.5705 -0.1024
    7CHTO  H134 2706   5.553   0.414   4.879 -1.6744 -0.1627  0.6013
    7CHTO   C84 2707   5.415   0.640   4.900  0.6847 -0.4122 -0.5876
    7CHTO  H156 2708   5.470   0.610   4.989 -2.2440 -2.2657  0.6610
    7CHTO   N15 2709   5.273   0.605   4.922  0.6551 -0.0384  0.2843
    7CHTO  H143 2710   5.235   0.546   4.842  2.7113  0.2933 -0.9564
    7CHTO  H144 2711   5.256   0.555   5.015  0.2574 -0.3915  0.0240
    7CHTO   C87 2712   5.433   0.799   4.910 -0.3231  0.0968 -0.5599
    7CHTO  H159 2713   5.379   0.830   4.821 -0.3264 -0.9149 -0.9189
    7CHTO   O53 2714   5.570   0.827   4.902  0.0552 -0.0046  0.0411
    7CHTO   C82 2715   5.618   0.798   4.770 -0.2454 -0.1287  0.1868
    7CHTO  H154 2716   5.558   0.843   4.690 -0.8338 -0.2985  0.5273
    7CHTO   C89 2717   5.758   0.849   4.753  0.3326  0.0506 -0.0795
    7CHTO   O59 2718   5.765   0.987   4.791  0.7391 -0.4496 -0.2445
    7CHTO  H137 2719   5.820   1.030   4.728  0.3258  0.2223 -0.1595
    7CHTO   O45 2720   5.371   0.861   5.055  0.1312  0.6013 -0.0339
    7CHTO   C67 2721   5.360   1.005   5.051 -0.2827  0.5774  0.2601
    7CHTO  H124 2722   5.422   1.050   4.973  0.2270  0.3048  0.5147
    7CHTO   C65 2723   5.212   1.040   5.014  0.2788  0.6119 -0.2188
    7CHTO  H122 2724   5.151   0.950   5.022  0.9420  0.3099  1.7530
    7CHTO   O44 2725   5.212   1.087   4.879  0.3319  0.3782  0.3772
    7CHTO  H102 2726   5.132   1.130   4.855  0.6352  1.8250  1.8357
    7CHTO   C63 2727   5.155   1.141   5.115  0.5298 -0.0529  0.4221
    7CHTO  H120 2728   5.163   1.102   5.216  2.6185  1.0374  0.7010
    7CHTO   N11 2729   5.021   1.201   5.092 -0.2071  0.3816 -0.2883
    7CHTO  H108 2730   4.970   1.130   5.031  1.9822 -1.1790 -0.3587
    7CHTO  H109 2731   5.043   1.290   5.038  2.5780  0.4592  0.8788
    7CHTO   C61 2732   5.264   1.248   5.132 -0.4020  0.7216 -0.0712
    7CHTO  H118 2733   5.226   1.320   5.207  0.2655  1.1431 -0.1395
    7CHTO   O40 2734   5.396   1.193   5.189 -0.2863 -0.2373 -0.7113
    7CHTO   C68 2735   5.418   1.055   5.188  0.0535 -0.5218  0.1850
    7CHTO  H125 2736   5.370   1.004   5.274  0.1352 -0.6655  0.1458
    7CHTO   C72 2737   5.565   1.034   5.201 -0.3051 -0.0040  0.1011
    7CHTO   O48 2738   5.603   0.895   5.219  0.4357  0.0951  0.3783
    7CHTO  H105 2739   5.634   0.866   5.303  0.8797 -1.9215 -0.4543
    7CHTO   O38 2740   5.289   1.317   5.011 -0.1964 -0.3840  0.1613
    7CHTO   C55 2741   5.354   1.446   5.024 -0.2972  1.0442 -0.3488
    7CHTO  H112 2742   5.415   1.452   5.115  0.8413  2.0039 -1.1562
    7CHTO   C56 2743   5.249   1.571   5.011 -0.5453  0.8693  0.6317
    7CHTO  H113 2744   5.188   1.548   4.923  0.3238  0.4124  0.1397
    7CHTO   O42 2745   5.161   1.555   5.127 -0.3090  0.6698 -0.0051
    7CHTO  H100 2746   5.121   1.637   5.147 -0.8768  1.0825 -2.6189
    7CHTO   C57 2747   5.316   1.711   5.008 -0.6435 -0.2548  0.3184
    7CHTO  H114 2748   5.353   1.745   5.105  1.4721  1.7388 -1.1261
    7CHTO   N10 2749   5.215   1.812   4.980  0.1920 -0.3058 -0.2152
    7CHTO  H106 2750   5.110   1.789   4.989 -0.3949  2.0139 -0.8793
    7CHTO  H107 2751   5.239   1.897   5.042  1.3785 -1.0271  0.3588
    7CHTO   C58 2752   5.435   1.706   4.906  0.0166 -0.1127 -0.1154
    7CHTO  H115 2753   5.384   1.677   4.811 -1.1799  1.8602 -0.1024
    7CHTO   O37 2754   5.523   1.594   4.934 -0.6766 -0.5046  0.5539
    7CHTO   C59 2755   5.461   1.462   4.920  0.5223 -0.6204  0.2553
    7CHTO  H116 2756   5.418   1.459   4.820 -0.5969  1.2590  0.6522
    7CHTO   C70 2757   5.567   1.358   4.923  1.1048  0.2827 -0.0091
    7CHTO   O46 2758   5.523   1.235   4.862  0.0649 -0.0363 -0.3361
    7CHTO  H103 2759   5.555   1.242   4.775 -0.5088 -2.0241 -0.7271
    7CHTO   O39 2760   5.500   1.856   4.901 -0.0318 -0.7476 -0.4866
    7CHTO   C60 2761   5.614   1.885   4.815  1.0188  0.0284  0.3133
    7CHTO  H117 2762   5.646   1.788   4.777  0.1349  0.7430 -2.3297
    7CHTO   C62 2763   5.568   1.975   4.694 -0.6607 -0.2615  0.4481
    7CHTO  H119 2764   5.491   1.918   4.639 -2.0964  0.0879  2.0286
    7CHTO   O43 2765   5.520   2.099   4.746  0.2888 -0.2036  0.2654
    7CHTO  H101 2766   5.485   2.079   4.830 -0.7612  2.3291  0.4722
    7CHTO   C66 2767   5.692   1.992   4.596 -0.2211 -0.1490  0.4292
    7CHTO  H123 2768   5.721   1.893   4.562  0.0222  0.8043 -2.2384
    7CHTO   N12 2769   5.651   2.071   4.477 -0.6932 -0.1515  0.4717
    7CHTO  H110 2770   5.671   2.177   4.489 -1.2786 -0.3484  3.3616
    7CHTO  H111 2771   5.683   2.025   4.384  0.8140 -1.1241  1.4567
    7CHTO   C69 2772   5.813   2.052   4.675  0.3309  0.2713  0.2864
    7CHTO  H126 2773   5.785   2.158   4.697  1.2103  1.0965 -2.3301
    7CHTO   O41 2774   5.851   1.981   4.797  0.0435  0.2744 -0.1705
    7CHTO   C64 2775   5.737   1.951   4.897 -0.3528  0.6447  0.2621
    7CHTO  H121 2776   5.705   2.049   4.940  1.0740  0.5907  1.4593
    7CHTO   C71 2777   5.792   1.857   5.002 -0.1429 -0.7726  0.0112
    7CHTO   O47 2778   5.718   1.851   5.127  0.1138  0.2775 -0.2492
    7CHTO  H104 2779   5.736   1.788   5.194 -0.5815 -0.9870 -1.2406
    7CHTO   O34 2780   5.948   2.052   4.574 -0.1141 -0.0506 -0.4336
    7CHTO   C49 2781   6.099   2.088   4.578 -0.4536 -0.4534  0.3176
    7CHTO   H91 2782   6.111   2.187   4.534 -0.4571  0.3165  1.9860
    7CHTO   C47 2783   6.187   1.981   4.506 -0.4189 -0.3479 -0.6833
    7CHTO   H89 2784   6.275   2.043   4.480 -0.3142  0.3096  1.2073
    7CHTO   O33 2785   6.112   1.949   4.384  0.2218  0.0607 -0.1810
    7CHTO   H70 2786   6.097   2.025   4.331  0.8516 -0.5484 -1.2686
    7CHTO   C45 2787   6.223   1.845   4.590 -0.3962  0.9781  0.3755
    7CHTO   H87 2788   6.159   1.766   4.549 -0.0331  0.5298  0.6638
    7CHTO    N8 2789   6.368   1.802   4.560 -0.5698 -0.5816 -0.2725
    7CHTO   H75 2790   6.415   1.880   4.502  2.7294 -1.4974  1.0518
    7CHTO   H76 2791   6.358   1.704   4.514 -0.7143 -0.1512 -1.1699
    7CHTO   C43 2792   6.182   1.869   4.734 -0.5107  0.5029  0.2162
    7CHTO   H85 2793   6.073   1.866   4.733 -0.4866 -1.9338 -2.2560
    7CHTO   O29 2794   6.231   1.992   4.782 -0.6431 -0.0650  0.0950
    7CHTO   C50 2795   6.159   2.097   4.722  0.0044  0.2225  0.9219
    7CHTO   H92 2796   6.077   2.129   4.787 -0.6260  0.1711  0.1674
    7CHTO   C54 2797   6.251   2.223   4.734 -0.2036  0.7876  0.0495
    7CHTO   O36 2798   6.256   2.284   4.865 -0.1580 -0.2279 -0.2619
    7CHTO   H72 2799   6.216   2.368   4.859  0.1469 -0.1990 -2.0727
    7CHTO   O27 2800   6.217   1.763   4.823 -0.0274 -0.3432  0.1404
    7CHTO   C37 2801   6.199   1.640   4.897  0.1421  0.2697 -0.3064
    7CHTO   H79 2802   6.145   1.658   4.992 -0.6547 -2.4384 -0.1956
    7CHTO   C38 2803   6.123   1.541   4.810  0.0910  0.6241 -0.2206
    7CHTO   H80 2804   6.164   1.549   4.708  0.5774 -0.0758 -0.0838
    7CHTO   O31 2805   5.991   1.589   4.820  0.0972 -0.3403 -0.3489
    7CHTO   H68 2806   5.932   1.545   4.761 -0.6322 -1.3888  1.1512
    7CHTO   C39 2807   6.132   1.393   4.874  0.2291  0.2202 -0.2497
    7CHTO   H81 2808   6.070   1.383   4.963 -0.8262  1.4179 -0.8428
    7CHTO    N7 2809   6.082   1.291   4.779 -0.1394 -0.7873  0.6000
    7CHTO   H73 2810   6.081   1.192   4.822 -0.6170 -0.9528  0.2141
    7CHTO   H74 2811   5.982   1.315   4.746  1.1875  2.1625 -1.5239
    7CHTO   C40 2812   6.281   1.353   4.916  0.0979  0.4881  0.2569
    7CHTO   H82 2813   6.341   1.359   4.825 -0.7495  0.2155 -0.3275
    7CHTO   O26 2814   6.320   1.460   5.006 -0.2295  0.3650 -0.4076
    7CHTO   C41 2815   6.338   1.595   4.935 -0.0706  0.3414  0.1569
    7CHTO   H83 2816   6.409   1.580   4.852  1.0511 -0.0068  1.1592
    7CHTO   C52 2817   6.402   1.693   5.040  0.7655 -0.0500  0.5089
    7CHTO   O35 2818   6.529   1.651   5.075  0.0212  0.4590  0.0237
    7CHTO   H71 2819   6.549   1.559   5.072  0.8719  0.6475  0.0079
    7CHTO   O28 2820   6.301   1.228   4.983  0.0737 -0.1790 -0.1610
    7CHTO   C42 2821   6.437   1.164   4.979 -0.0150  0.5043  0.0143
    7CHTO   H84 2822   6.433   1.090   5.058  1.1595  0.4890  0.0768
    7CHTO   C44 2823   6.560   1.262   5.015 -0.2315  0.0275 -0.4234
    7CHTO   H86 2824   6.556   1.350   4.950  1.4366 -0.5166 -1.2845
    7CHTO   O32 2825   6.546   1.297   5.153  0.3147 -0.2234 -0.0854
    7CHTO   H69 2826   6.609   1.365   5.167  0.8085 -1.1382  2.2493
    7CHTO   C48 2827   6.699   1.188   4.991 -0.4242  0.6633  0.0313
    7CHTO   H90 2828   6.718   1.119   5.073 -0.2330  0.1610 -0.4384
    7CHTO    N9 2829   6.809   1.288   5.014  0.0774 -0.0198  0.1123
    7CHTO   H77 2830   6.869   1.290   4.924 -0.1446 -0.3127 -0.0463
    7CHTO   H78 2831   6.870   1.272   5.102  1.4751  0.7644 -0.6838
    7CHTO   C51 2832   6.701   1.123   4.849 -0.0447  0.1951  0.1718
    7CHTO   H93 2833   6.684   1.198   4.771  0.7944 -0.6133 -0.8091
    7CHTO   O30 2834   6.598   1.024   4.842 -0.4767  0.1504 -0.4720
    7CHTO   C46 2835   6.460   1.094   4.848 -0.5439 -0.0153 -0.6406
    7CHTO   H88 2836   6.459   1.168   4.767 -3.0690 -0.7651 -1.3203
    7CHTO   C53 2837   6.344   0.987   4.824  0.0049 -0.0595  0.3865
    7CHTO   O72 2838   6.369   0.876   4.916  0.2626 -0.0472 -0.0501
    7CHTO  H199 2839   6.289   0.827   4.915 -0.5373  1.1787 -4.8729
    7CHTO   O22 2840   6.828   1.054   4.819 -0.2014 -0.8812  0.1391
    7CHTO   C31 2841   6.881   1.024   4.682 -0.5763 -0.2759  0.0304
    7CHTO   H59 2842   6.971   0.960   4.694 -0.0769 -0.0422 -2.2783
    7CHTO   C29 2843   6.787   0.962   4.579 -0.0330  0.1072  0.8862
    7CHTO   H57 2844   6.706   1.031   4.552 -0.7407 -1.2004 -0.4354
    7CHTO   O21 2845   6.729   0.839   4.627  0.0681 -0.1716  0.0722
    7CHTO   H37 2846   6.703   0.850   4.717  0.3808 -0.5244  0.2080
    7CHTO   C27 2847   6.875   0.923   4.447  0.1307 -0.4484 -0.4737
    7CHTO   H55 2848   6.966   0.868   4.476  1.2280  1.3701 -0.3481
    7CHTO    N5 2849   6.804   0.855   4.338  0.3072 -0.0968 -0.0446
    7CHTO   H43 2850   6.734   0.921   4.289  2.8107  2.5376 -0.2362
    7CHTO   H44 2851   6.883   0.846   4.264  1.4120 -0.8475  1.2116
    7CHTO   C25 2852   6.933   1.057   4.387 -0.1044 -0.3610 -0.1331
    7CHTO   H53 2853   6.841   1.106   4.353 -0.5826  0.4761  2.2117
    7CHTO   O17 2854   6.998   1.134   4.491 -0.5338  0.6409  0.2154
    7CHTO   C32 2855   6.934   1.157   4.617  0.4204 -0.5374  0.1366
    7CHTO   H60 2856   6.852   1.221   4.584  1.4763  1.1728  0.7517
    7CHTO   C36 2857   7.025   1.237   4.711  0.0039  0.4963 -0.3031
    7CHTO   O25 2858   7.039   1.375   4.674  0.3038 -0.2328  0.2074
    7CHTO   H40 2859   7.097   1.422   4.731  1.7038 -0.5083 -0.9777
    7CHTO   O15 2860   7.036   1.031   4.258 -0.1061 -0.1769  0.2794
    7CHTO   C19 2861   7.035   1.117   4.142  0.3119  0.7266  0.2086
    7CHTO   H47 2862   7.136   1.104   4.100  0.9360 -0.7775  2.0629
    7CHTO   C20 2863   6.940   1.061   4.030 -0.2868  0.0504 -0.4768
    7CHTO   H48 2864   6.836   1.050   4.067 -0.5472  1.3695 -0.8070
    7CHTO   O19 2865   6.996   0.933   3.990  0.1057 -0.4588  0.1370
    7CHTO   H35 2866   6.949   0.909   3.913 -0.1773  0.4959  0.0029
    7CHTO   C21 2867   6.938   1.160   3.902  0.6600 -0.5681 -0.1157
    7CHTO   H49 2868   7.039   1.161   3.861  1.0673  0.2428  0.9034
    7CHTO    N4 2869   6.834   1.112   3.805  0.6102  0.1669 -0.0290
    7CHTO   H41 2870   6.807   1.200   3.748 -0.4362 -0.3090 -0.2650
    7CHTO   H42 2871   6.864   1.033   3.738 -1.6525 -0.1699 -0.6670
    7CHTO   C22 2872   6.915   1.305   3.945 -0.0708  0.1179  0.5538
    7CHTO   H50 2873   6.811   1.317   3.975  0.8482  0.3886  3.8360
    7CHTO   O14 2874   7.003   1.343   4.048  0.6017  0.1565  0.9265
    7CHTO   C23 2875   7.009   1.271   4.167  0.0159  0.4006  0.0543
    7CHTO   H51 2876   6.910   1.291   4.211 -0.1402 -3.5059  1.6491
    7CHTO   C34 2877   7.115   1.337   4.254  0.0571 -0.1243 -0.4225
    7CHTO   O23 2878   7.075   1.474   4.289 -0.0635 -0.0094  0.1189
    7CHTO   H38 2879   7.136   1.522   4.343 -0.4353 -1.3662  1.8051
    7CHTO   O16 2880   6.950   1.382   3.828  0.0129  0.0206  0.5245
    7CHTO   C24 2881   6.867   1.526   3.832 -0.4900  0.0613 -0.0641
    7CHTO   H52 2882   6.844   1.554   3.934  1.3580  0.2661  0.3118
    7CHTO   C26 2883   6.740   1.526   3.746  0.8852 -0.2809  0.3094
    7CHTO   H54 2884   6.769   1.486   3.646 -0.5077  1.2653 -0.7339
    7CHTO   O20 2885   6.644   1.425   3.788  0.0019  0.0403  0.2809
    7CHTO   H36 2886   6.626   1.423   3.880 -1.7277 -0.2186 -0.0495
    7CHTO   C30 2887   6.674   1.669   3.736 -0.0712  0.6365  0.0688
    7CHTO   H58 2888   6.617   1.685   3.829  0.3239 -1.2480  0.6677
    7CHTO    N6 2889   6.572   1.671   3.628 -0.9415  0.5997 -0.1775
    7CHTO   H45 2890   6.605   1.615   3.542  1.1889  0.4443  0.6981
    7CHTO   H46 2891   6.547   1.771   3.597 -1.7784  0.6655  0.6931
    7CHTO   C33 2892   6.775   1.779   3.726  0.7045 -0.0056 -0.5304
    7CHTO   H61 2893   6.805   1.788   3.621 -2.5464  0.2491 -1.5163
    7CHTO   O18 2894   6.890   1.763   3.810  0.0014  0.4050  0.6458
    7CHTO   C28 2895   6.958   1.640   3.778 -0.4410 -0.5425 -0.0792
    7CHTO   H56 2896   6.981   1.629   3.672  0.4385 -0.2070  0.0730
    7CHTO   C35 2897   7.094   1.634   3.851 -0.2059  0.2057  0.3586
    7CHTO   O24 2898   7.085   1.652   3.991  0.0693  0.0753  0.6459
    7CHTO   H39 2899   7.172   1.647   4.027  0.6552 -0.2339 -0.7970
    7CHTO    O9 2900   6.712   1.906   3.752 -0.1535  0.3738 -0.1827
    7CHTO   C13 2901   6.783   2.038   3.666 -0.3636  0.1315  0.0037
    7CHTO   H26 2902   6.791   2.010   3.559  2.2792  1.7180 -0.2587
    7CHTO   C11 2903   6.923   2.070   3.725 -0.4073 -0.0471  0.2959
    7CHTO   H24 2904   6.984   1.981   3.701  2.1335  1.6251  0.3171
    7CHTO    O8 2905   6.920   2.089   3.866  0.1478 -0.5733 -0.6689
    7CHTO    H3 2906   6.886   2.175   3.882  0.2480 -0.8898  1.4236
    7CHTO    C9 2907   6.991   2.186   3.645  0.3150 -0.3583  0.2249
    7CHTO   H22 2908   6.986   2.154   3.539  1.3957  0.6233 -0.1309
    7CHTO    N2 2909   7.135   2.205   3.676 -0.0703  0.3819  0.0546
    7CHTO   H10 2910   7.139   2.271   3.761  0.5298 -0.7257  0.9048
    7CHTO   H11 2911   7.182   2.258   3.595 -0.4553  1.1224  0.3087
    7CHTO    C7 2912   6.901   2.315   3.662  0.7826  0.2740 -0.2495
    7CHTO   H20 2913   6.942   2.379   3.581 -0.6944  0.0307 -1.2208
    7CHTO    O4 2914   6.762   2.296   3.638  0.4907  0.3650 -1.1012
    7CHTO   C14 2915   6.699   2.172   3.672 -0.4340 -0.0790 -0.1017
    7CHTO   H27 2916   6.614   2.148   3.605 -0.2011 -0.4327 -0.2733
    7CHTO   C18 2917   6.631   2.188   3.810 -0.4163  0.0750  0.0430
    7CHTO   O13 2918   6.538   2.300   3.813 -0.0324 -0.2573 -0.1720
    7CHTO    H7 2919   6.511   2.329   3.728  2.5676  1.1455 -0.5897
    7CHTO    O2 2920   6.915   2.387   3.810 -0.1042 -0.2646 -0.0069
    7CHTO    C1 2921   6.883   2.523   3.820  0.0485  0.1202  0.1703
    7CHTO   H14 2922   6.796   2.546   3.755  0.4508  1.4757  0.0978
    7CHTO    C2 2923   7.006   2.615   3.777  0.3188  0.5076  0.0678
    7CHTO   H15 2924   7.092   2.584   3.837  1.0002  2.0771 -0.0810
    7CHTO    O6 2925   7.031   2.596   3.637 -0.0173  0.0543  0.1493
    7CHTO    H1 2926   7.111   2.635   3.607 -0.6114  0.9707 -0.2421
    7CHTO    C3 2927   6.980   2.773   3.799  0.3573 -0.4886 -0.1285
    7CHTO   H16 2928   6.912   2.809   3.721  0.7638 -2.3603 -1.3838
    7CHTO    N1 2929   7.096   2.857   3.788  0.2548 -0.1414 -0.1752
    7CHTO    H8 2930   7.185   2.801   3.765  0.6434  0.3914  0.0279
    7CHTO    H9 2931   7.078   2.937   3.717 -0.5538  1.6711  1.9964
    7CHTO    C4 2932   6.904   2.791   3.939  0.3028 -1.0291 -0.1933
    7CHTO   H17 2933   6.981   2.807   4.015  2.2588 -0.0020 -2.3479
    7CHTO    O1 2934   6.808   2.681   3.978 -0.3060 -0.3000  0.1679
    7CHTO    C5 2935   6.853   2.548   3.970  0.0400 -0.0214 -0.8525
    7CHTO   H18 2936   6.945   2.544   4.028  0.4369 -0.1055 -1.4759
    7CHTO   C16 2937   6.750   2.453   4.047 -0.7807  0.1518  0.0589
    7CHTO   O11 2938   6.800   2.323   4.076  0.6786 -0.1486  0.1957
    7CHTO    H5 2939   6.894   2.317   4.076  0.6448 -1.4163  2.6188
    7CHTO    O3 2940   6.816   2.912   3.929 -0.8715 -0.3528 -0.6472
    7CHTO    C6 2941   6.855   3.028   4.005 -0.1247 -0.3479  0.7277
    7CHTO   H19 2942   6.957   3.026   4.046  0.4633 -1.1315 -0.7477
    7CHTO    C8 2943   6.837   3.158   3.917 -0.2999  0.0832  0.2742
    7CHTO   H21 2944   6.754   3.142   3.849 -0.9126 -0.6481  1.1810
    7CHTO    O7 2945   6.952   3.162   3.834  0.2926 -0.1835 -0.0195
    7CHTO    H2 2946   7.025   3.178   3.891  0.9600  0.9193 -1.1533
    7CHTO   C12 2947   6.825   3.288   4.004 -0.0207 -0.5803  0.5128
    7CHTO   H25 2948   6.928   3.306   4.043 -0.7458 -0.1896  2.3164
    7CHTO    N3 2949   6.790   3.395   3.913 -1.0450  0.3017 -0.1035
    7CHTO   H12 2950   6.684   3.412   3.926 -0.8688 -0.2605  2.3336
    7CHTO   H13 2951   6.847   3.485   3.926 -1.0054  0.0798  1.2989
    7CHTO   C15 2952   6.724   3.279   4.129 -0.1039  0.0477  0.3368
    7CHTO   H28 2953   6.620   3.284   4.099  0.5609  0.1202 -2.0829
    7CHTO   O10 2954   6.746   3.380   4.239 -0.2572  0.2780 -0.7579
    7CHTO    H4 2955   6.670   3.398   4.290 -1.1273 -0.6312 -1.7203
    7CHTO    O5 2956   6.753   3.158   4.201  0.5145 -0.6297 -0.4594
    7CHTO   C10 2957   6.758   3.032   4.127  0.1906 -0.6511  0.7096
    7CHTO   H23 2958   6.662   3.007   4.084  1.0339 -0.1750 -1.4824
    7CHTO   C17 2959   6.783   2.916   4.218 -0.2119  0.3139  0.2468
    7CHTO   O12 2960   6.674   2.880   4.304 -0.8297 -0.6477  0.2780
    7CHTO    H6 2961   6.670   2.789   4.324  0.5525 -0.5148  1.2547
    8CHTO  H203 2962   7.400   6.572   0.174 -0.0105 -1.4519  0.8145
    8CHTO   O82 2963   7.433   6.649   0.216 -0.4632 -0.9290  0.2183
    8CHTO  C123 2964   7.379   6.651   0.345  1.4025 -0.6152 -0.5879
    8CHTO  H227 2965   7.439   6.586   0.410 -0.9423 -1.6706  0.5869
    8CHTO   O77 2966   7.389   6.790   0.383 -0.0807  0.2803 -0.2486
    8CHTO  C118 2967   7.320   6.836   0.500 -0.8089  0.5070 -0.6800
    8CHTO  H222 2968   7.366   6.785   0.586 -1.4593  1.1538  0.0672
    8CHTO  C125 2969   7.342   6.990   0.521  0.2949 -0.2377 -0.1861
    8CHTO   O84 2970   7.290   7.053   0.401 -0.3784  0.3246 -0.0881
    8CHTO  H205 2971   7.278   7.144   0.421  0.0130  0.7148 -1.5403
    8CHTO  C114 2972   7.171   6.800   0.492  0.9448 -0.3404 -0.2054
    8CHTO  H218 2973   7.130   6.837   0.398 -0.3207 -0.6798  0.2022
    8CHTO  C116 2974   7.147   6.651   0.469 -0.4034 -0.3912  0.1133
    8CHTO  H220 2975   7.184   6.586   0.551 -1.6875  1.1616  1.9471
    8CHTO   O79 2976   7.011   6.624   0.470 -0.2627  0.1490 -0.0205
    8CHTO  H201 2977   6.982   6.628   0.559  0.0424  0.1863  0.0745
    8CHTO  C120 2978   7.223   6.603   0.338  0.6914  0.0343 -0.0548
    8CHTO  H224 2979   7.172   6.663   0.260  2.3133  1.2711 -0.1821
    8CHTO   N21 2980   7.207   6.456   0.306  0.3230  0.3540  0.0641
    8CHTO  H211 2981   7.233   6.434   0.203 -1.6564  0.6366 -0.5124
    8CHTO  H212 2982   7.103   6.431   0.314  0.0861  1.0714 -0.6372
    8CHTO   O75 2983   7.107   6.855   0.610 -0.0524  0.6496  0.3097
    8CHTO  C112 2984   6.962   6.944   0.566  0.2252 -0.1544 -0.2776
    8CHTO  H216 2985   6.914   6.882   0.489  1.1574 -1.7708  0.4264
    8CHTO   O73 2986   7.002   7.069   0.517 -0.5737 -0.0098  0.7669
    8CHTO  C113 2987   6.894   7.158   0.483 -0.6643  0.0561 -0.0762
    8CHTO  H217 2988   6.828   7.111   0.407  0.9675 -2.1337 -0.2116
    8CHTO  C124 2989   6.971   7.266   0.414 -0.4149 -0.5253  0.1975
    8CHTO   O83 2990   7.092   7.317   0.475 -0.3436 -0.1240  0.4851
    8CHTO  H204 2991   7.069   7.396   0.521 -0.0746  0.4340 -0.3128
    8CHTO  C109 2992   6.820   7.195   0.608 -0.5537  0.0502 -0.0243
    8CHTO  H213 2993   6.891   7.249   0.674 -1.8283 -0.4095  1.7612
    8CHTO  C110 2994   6.774   7.061   0.680  0.6788 -0.8696 -0.3907
    8CHTO  H214 2995   6.704   7.008   0.615  0.5450 -0.5669 -0.4937
    8CHTO   O78 2996   6.703   7.103   0.798 -0.2008  0.2911  0.0031
    8CHTO  H200 2997   6.615   7.127   0.777 -0.4543  0.2673  0.9957
    8CHTO  C111 2998   6.885   6.961   0.704 -0.0013  0.3182 -0.4148
    8CHTO  H215 2999   6.953   7.005   0.778  1.3006  2.3157 -2.7161
    8CHTO   N19 3000   6.845   6.827   0.762 -0.1877  0.6042  0.2559
    8CHTO  H207 3001   6.754   6.837   0.819  0.1792  2.7765  0.4949
    8CHTO  H208 3002   6.923   6.761   0.796 -0.7151  0.6118  1.5031
    8CHTO   O74 3003   6.705   7.282   0.581  0.3217 -0.0224 -0.3476
    8CHTO  C115 3004   6.678   7.410   0.688  0.1096 -0.5152  0.2674
    8CHTO  H219 3005   6.576   7.408   0.728  0.1436 -1.7524  0.3106
    8CHTO   O76 3006   6.773   7.408   0.813  0.3867 -0.4598  0.4914
    8CHTO  C122 3007   6.750   7.511   0.910 -0.6863 -0.1051  0.6822
    8CHTO  H226 3008   6.823   7.491   0.988  2.9657 -3.7278 -3.3482
    8CHTO  C126 3009   6.609   7.485   0.982 -0.4018 -0.2815  0.2365
    8CHTO   O85 3010   6.624   7.417   1.108 -0.3159 -0.2350  0.2831
    8CHTO  H206 3011   6.547   7.413   1.162 -0.1874 -2.5375  0.3555
    8CHTO  C121 3012   6.752   7.662   0.858 -0.2495  0.3339  0.2529
    8CHTO  H225 3013   6.695   7.727   0.928  0.5653 -0.2805  1.5014
    8CHTO   O81 3014   6.888   7.711   0.849  0.3744 -0.0840 -0.2222
    8CHTO  H202 3015   6.880   7.803   0.864  0.1737 -0.1473  0.0809
    8CHTO  C119 3016   6.690   7.671   0.719  0.3903  0.1113 -0.1500
    8CHTO  H223 3017   6.584   7.670   0.747  0.4335 -0.2448  0.0079
    8CHTO  C117 3018   6.709   7.549   0.618  0.5156  0.0602 -0.1195
    8CHTO  H221 3019   6.810   7.536   0.580  0.4065 -0.4800 -0.2333
    8CHTO   N20 3020   6.626   7.559   0.503  0.2792  0.5871 -0.0394
    8CHTO  H209 3021   6.635   7.473   0.438  2.6531  0.9115 -0.2036
    8CHTO  H210 3022   6.526   7.578   0.537 -0.0283 -1.2523  0.1484
    8CHTO   O80 3023   6.703   7.816   0.657 -0.6164  0.5244  0.0538
    8CHTO  C103 3024   6.635   7.927   0.723 -0.4422 -0.5254 -0.4554
    8CHTO  H190 3025   6.569   7.885   0.799  1.2020  2.0892  2.5580
    8CHTO  C101 3026   6.728   8.034   0.777  0.2347  0.6051 -0.2457
    8CHTO  H188 3027   6.802   8.058   0.701  0.2533  0.6376 -0.2173
    8CHTO   O68 3028   6.812   7.985   0.913  0.0429  0.4058 -0.0084
    8CHTO  H168 3029   6.796   7.895   0.933  0.5539  0.5810  1.1795
    8CHTO   C99 3030   6.655   8.169   0.814  0.2262 -0.0681  0.1778
    8CHTO  H186 3031   6.603   8.146   0.910  1.0391 -0.2394  0.5808
    8CHTO   N17 3032   6.746   8.289   0.843  0.3715 -0.1098 -0.4431
    8CHTO  H174 3033   6.823   8.272   0.917 -0.5473  3.3568  1.4240
    8CHTO  H175 3034   6.783   8.334   0.752 -1.3570  1.4891 -0.3672
    8CHTO   C97 3035   6.548   8.211   0.705  0.3348 -0.2444 -0.1241
    8CHTO  H184 3036   6.601   8.252   0.619  1.6503  1.0752  1.2946
    8CHTO   O64 3037   6.469   8.098   0.670 -0.1567 -0.0749  0.0174
    8CHTO  C104 3038   6.542   7.989   0.613 -0.2428 -0.6615 -0.2675
    8CHTO  H191 3039   6.604   8.022   0.530 -2.9547  0.4538 -1.9009
    8CHTO  C108 3040   6.437   7.891   0.550 -0.2294 -0.6111 -0.2339
    8CHTO   O71 3041   6.355   7.945   0.441  0.2170 -0.2854 -0.0007
    8CHTO  H171 3042   6.313   8.022   0.474  0.2032  1.0027 -2.8698
    8CHTO   O62 3043   6.446   8.302   0.765  0.5856 -0.2162 -0.0032
    8CHTO   C91 3044   6.460   8.446   0.736 -0.5202  0.0454 -0.5217
    8CHTO  H178 3045   6.568   8.462   0.735 -0.4670  0.0057  2.1680
    8CHTO   C92 3046   6.402   8.520   0.853  0.1942 -0.8140  0.0389
    8CHTO  H179 3047   6.303   8.479   0.875 -0.8698  0.9927 -1.2537
    8CHTO   O66 3048   6.480   8.485   0.969 -0.3665 -0.9457  0.0081
    8CHTO  H166 3049   6.422   8.495   1.042  1.3654  0.4398  1.2364
    8CHTO   C93 3050   6.408   8.676   0.822  0.2278 -0.1319  0.0191
    8CHTO  H180 3051   6.514   8.705   0.826 -0.2674  1.7453  0.2028
    8CHTO   N16 3052   6.346   8.749   0.934  0.2629 -0.3945  0.4424
    8CHTO  H172 3053   6.260   8.809   0.907  1.1807  0.5246 -0.4807
    8CHTO  H173 3054   6.411   8.805   0.999  1.5079 -3.8980  2.3137
    8CHTO   C94 3055   6.350   8.718   0.682  0.3115  0.5070  0.0406
    8CHTO  H181 3056   6.242   8.703   0.680  0.4000 -0.7746  2.3179
    8CHTO   O61 3057   6.395   8.630   0.574 -0.5165 -0.2901  0.1593
    8CHTO   C95 3058   6.374   8.492   0.611  0.0098  0.2827 -0.5492
    8CHTO  H182 3059   6.268   8.481   0.631 -0.0469  0.6649 -0.6443
    8CHTO  C106 3060   6.415   8.415   0.475  0.0016 -0.3049 -0.3325
    8CHTO   O69 3061   6.548   8.438   0.438 -0.2402  0.5730 -0.1797
    8CHTO  H169 3062   6.604   8.363   0.440 -0.5102  0.3291 -1.3864
    8CHTO   O63 3063   6.415   8.870   0.649 -0.3110 -0.1645 -0.1546
    8CHTO   C96 3064   6.371   8.932   0.506  0.1880 -0.2350  0.4574
    8CHTO  H183 3065   6.302   8.867   0.452  0.9765  1.0979 -2.2794
    8CHTO   C98 3066   6.497   8.958   0.416 -0.1444 -0.1037 -0.0734
    8CHTO  H185 3067   6.580   9.003   0.473  0.7045 -0.8336 -0.7220
    8CHTO   O67 3068   6.537   8.825   0.375 -0.2102  0.4401 -0.4852
    8CHTO  H167 3069   6.572   8.815   0.288 -2.9124 -0.5717 -1.5062
    8CHTO  C102 3070   6.452   9.045   0.285 -0.2200 -0.3181 -0.4590
    8CHTO  H189 3071   6.390   8.973   0.230 -0.4345 -1.2311  0.9463
    8CHTO   N18 3072   6.576   9.075   0.204 -0.2474 -0.4316 -1.0091
    8CHTO  H176 3073   6.608   9.178   0.206  1.0757 -0.8371 -0.9877
    8CHTO  H177 3074   6.573   9.050   0.099  0.6564 -0.8275 -0.9463
    8CHTO  C105 3075   6.367   9.168   0.326  0.2567 -0.5365  0.1667
    8CHTO  H192 3076   6.424   9.258   0.301  0.3424 -0.5359  0.3709
    8CHTO   O65 3077   6.341   9.175   0.469 -0.0866 -0.2724 -0.3433
    8CHTO  C100 3078   6.288   9.059   0.536  0.3522 -0.7364 -0.3646
    8CHTO  H187 3079   6.297   9.077   0.645  1.2880 -1.4607 -0.3205
    8CHTO  C107 3080   6.137   9.035   0.502 -0.2224 -0.3539  0.4038
    8CHTO   O70 3081   6.078   8.947   0.591  0.0648 -0.7355 -0.4851
    8CHTO  H170 3082   6.024   8.884   0.547 -0.8333  0.4346 -1.0812
    8CHTO   O57 3083   6.252   9.159   0.249  0.2151  0.2817 -0.8704
    8CHTO   C85 3084   6.223   9.246   0.142 -0.3955 -0.6039  0.1475
    8CHTO  H157 3085   6.314   9.271   0.085 -0.1018 -0.9260  0.4738
    8CHTO   C83 3086   6.173   9.383   0.195  1.2425  0.0094  0.2058
    8CHTO  H155 3087   6.262   9.434   0.232  1.3366 -0.4349  0.5913
    8CHTO   O56 3088   6.075   9.362   0.303 -0.6105 -0.1350  0.2325
    8CHTO  H135 3089   6.004   9.307   0.275  0.3894  0.8156 -4.6818
    8CHTO   C81 3090   6.117   9.469   0.077  0.0026  0.4526  0.1772
    8CHTO  H153 3091   6.197   9.473   0.003  1.6658 -0.7086  1.8761
    8CHTO   N14 3092   6.085   9.611   0.117  0.0590 -0.0920 -0.4667
    8CHTO  H141 3093   6.005   9.613   0.189  0.8314  0.4981  0.3737
    8CHTO  H142 3094   6.060   9.673   0.034  0.2537 -0.8469 -1.0974
    8CHTO   C79 3095   5.997   9.396   0.012 -0.8684  0.1956  0.6260
    8CHTO  H151 3096   5.976   9.450  -0.080  2.6889  1.3604  0.4357
    8CHTO   O52 3097   6.039   9.264  -0.036  0.0521  0.5283  0.0470
    8CHTO   C86 3098   6.116   9.175   0.054  0.3821 -0.2609  0.4924
    8CHTO  H158 3099   6.031   9.137   0.114 -0.6454  0.8032 -0.2523
    8CHTO   C90 3100   6.172   9.063  -0.029  0.0434 -0.5679  0.0550
    8CHTO   O60 3101   6.251   9.101  -0.139  0.6028 -0.6083 -0.3645
    8CHTO  H138 3102   6.275   9.025  -0.188  2.8334 -1.7207  2.2839
    8CHTO   O50 3103   5.876   9.391   0.090 -0.2764 -0.3064 -0.2641
    8CHTO   C73 3104   5.734   9.421   0.075  0.2312  0.2535 -0.1802
    8CHTO  H145 3105   5.712   9.408  -0.031  0.5920 -2.2754  0.0240
    8CHTO   C74 3106   5.690   9.566   0.115  0.0283  0.6134 -0.3880
    8CHTO  H146 3107   5.746   9.631   0.047  1.6577 -1.3463 -0.9557
    8CHTO   O54 3108   5.548   9.575   0.082 -0.0969 -0.0588 -0.2852
    8CHTO  H133 3109   5.506   9.658   0.095  1.1343  0.5321 -0.0116
    8CHTO   C75 3110   5.730   9.587   0.262 -0.9073 -0.0364 -0.1799
    8CHTO  H147 3111   5.838   9.566   0.275 -1.0168 -0.6901 -0.3363
    8CHTO   N13 3112   5.703   9.730   0.304 -0.0065 -0.2911 -0.0175
    8CHTO  H139 3113   5.603   9.758   0.276 -1.1570 -2.7476  1.4412
    8CHTO  H140 3114   5.769   9.803   0.258 -0.9199  0.9433  0.5957
    8CHTO   C76 3115   5.649   9.476   0.352  0.1549 -0.2699 -0.4125
    8CHTO  H148 3116   5.542   9.499   0.351 -0.1548 -1.4826  1.4742
    8CHTO   O49 3117   5.667   9.348   0.297  0.2612  0.5163  0.0465
    8CHTO   C77 3118   5.642   9.327   0.158 -0.0882  0.6325  0.0906
    8CHTO  H149 3119   5.539   9.359   0.138 -0.4722 -1.1234 -0.8304
    8CHTO   C88 3120   5.654   9.175   0.131  0.1601 -0.0723  0.2609
    8CHTO   O58 3121   5.638   9.155   0.017 -0.3915 -0.0041 -0.1026
    8CHTO  H136 3122   5.562   9.101   0.010 -0.9505  0.9180 -1.1708
    8CHTO   O51 3123   5.700   9.465   0.499  0.3001  0.3597 -0.6963
    8CHTO   C78 3124   5.617   9.381   0.590  0.3388  0.1296  0.5575
    8CHTO  H150 3125   5.546   9.320   0.530  0.3928 -0.4301  1.0607
    8CHTO   C80 3126   5.539   9.467   0.694  0.2338 -0.6562 -0.0172
    8CHTO  H152 3127   5.610   9.533   0.749 -0.6219  1.7821 -1.7351
    8CHTO   O55 3128   5.463   9.563   0.623 -0.0538  0.0932 -0.3766
    8CHTO  H134 3129   5.377   9.575   0.659  0.1034 -0.2709  0.1233
    8CHTO   C84 3130   5.461   9.387   0.802 -0.6120 -0.1274 -0.0871
    8CHTO  H156 3131   5.383   9.344   0.739 -1.5420 -0.9746  1.6253
    8CHTO   N15 3132   5.388   9.467   0.912 -0.6936 -0.3270  0.3652
    8CHTO  H143 3133   5.392   9.571   0.886  0.6308 -0.5292 -0.2927
    8CHTO  H144 3134   5.291   9.425   0.897  0.6944 -3.3169 -0.5345
    8CHTO   C87 3135   5.553   9.277   0.857  0.2441 -0.0194  0.7558
    8CHTO  H159 3136   5.622   9.337   0.916  0.7331 -1.8371  2.0896
    8CHTO   O53 3137   5.631   9.200   0.750 -0.0742  0.1714 -0.6656
    8CHTO   C82 3138   5.705   9.279   0.652 -0.1851 -0.3649 -0.4766
    8CHTO  H154 3139   5.782   9.333   0.707  0.4252  0.5700 -2.2325
    8CHTO   C89 3140   5.776   9.180   0.554 -0.7357 -0.1339 -0.4946
    8CHTO   O59 3141   5.872   9.243   0.474 -0.1749 -0.4438 -0.3019
    8CHTO  H137 3142   5.957   9.211   0.494  0.4784  1.3881 -0.0401
    8CHTO   O45 3143   5.464   9.168   0.972  0.6113 -0.0285  0.1288
    8CHTO   C67 3144   5.531   9.049   1.009 -0.8865  0.0450  0.1111
    8CHTO  H124 3145   5.631   9.053   0.966 -0.0838 -1.8404  1.7458
    8CHTO   C65 3146   5.545   9.046   1.163 -0.1989 -0.2714  0.2111
    8CHTO  H122 3147   5.458   9.105   1.192 -1.0839 -1.2609 -0.3625
    8CHTO   O44 3148   5.654   9.127   1.201 -0.1103 -0.2253 -0.0587
    8CHTO  H102 3149   5.646   9.216   1.171  0.4937 -0.2753 -0.3790
    8CHTO   C63 3150   5.527   8.902   1.218 -0.1915  0.3556 -0.3361
    8CHTO  H120 3151   5.421   8.875   1.221  0.0297 -0.5038 -0.1264
    8CHTO   N11 3152   5.559   8.880   1.361 -0.6681 -0.0128 -0.2534
    8CHTO  H108 3153   5.665   8.871   1.375 -0.6327  3.1123  2.1216
    8CHTO  H109 3154   5.508   8.791   1.392  0.2431 -1.0490 -1.6747
    8CHTO   C61 3155   5.598   8.797   1.121 -0.1335  0.1953 -0.0686
    8CHTO  H118 3156   5.572   8.697   1.159  2.1387 -0.3818 -0.0141
    8CHTO   O40 3157   5.549   8.803   0.989  0.3548 -0.3544 -0.1784
    8CHTO   C68 3158   5.464   8.919   0.956 -0.5981 -0.2334  0.5484
    8CHTO  H125 3159   5.365   8.917   1.006 -1.4186 -0.7440 -1.0445
    8CHTO   C72 3160   5.439   8.923   0.805 -0.6396 -0.1526  0.2249
    8CHTO   O48 3161   5.357   8.816   0.760 -0.3448 -0.3362 -0.0969
    8CHTO  H105 3162   5.280   8.814   0.814  1.4648 -1.2210  2.5120
    8CHTO   O38 3163   5.737   8.819   1.107 -0.2488  0.6979  0.5872
    8CHTO   C55 3164   5.806   8.694   1.078 -0.2739 -0.2087  0.9564
    8CHTO  H112 3165   5.743   8.614   1.037 -0.7978 -0.5490  2.3883
    8CHTO   C56 3166   5.884   8.646   1.203  0.3407 -0.1740 -0.1719
    8CHTO  H113 3167   5.955   8.726   1.227  0.7122 -0.1564 -1.3008
    8CHTO   O42 3168   5.788   8.634   1.311 -0.3266 -0.0752  0.3140
    8CHTO  H100 3169   5.781   8.712   1.363 -1.1691  0.5161 -0.6821
    8CHTO   C57 3170   5.956   8.511   1.160  0.5374  0.1226  0.3704
    8CHTO  H114 3171   5.871   8.442   1.153  0.6119  0.0925 -0.3046
    8CHTO   N10 3172   6.036   8.452   1.268  0.4486 -0.7902 -0.3390
    8CHTO  H106 3173   5.983   8.375   1.322 -0.5493  0.3338  0.2953
    8CHTO  H107 3174   6.062   8.531   1.337 -0.2538 -0.8535  0.0027
    8CHTO   C58 3175   6.032   8.514   1.025  0.5109  0.5516 -0.0950
    8CHTO  H115 3176   6.125   8.570   1.047 -0.3700  1.4669  1.4500
    8CHTO   O37 3177   5.958   8.584   0.926 -0.3324 -0.2554 -0.3751
    8CHTO   C59 3178   5.916   8.711   0.968 -0.0774 -0.2436  0.4444
    8CHTO  H116 3179   5.997   8.779   0.996  1.1358 -1.5894  0.2975
    8CHTO   C70 3180   5.855   8.765   0.835  0.5271 -0.3342  0.3000
    8CHTO   O46 3181   5.836   8.908   0.825 -0.2060  0.3745 -0.0688
    8CHTO  H103 3182   5.762   8.924   0.771  0.1942  0.0572 -0.7218
    8CHTO   O39 3183   6.082   8.351   0.981  0.1253  0.4261 -0.2794
    8CHTO   C60 3184   5.983   8.296   0.893 -0.4608 -0.3406 -0.0359
    8CHTO  H117 3185   5.892   8.355   0.888  0.5445  1.1225 -1.7330
    8CHTO   C62 3186   6.033   8.301   0.747 -0.5645  0.7460 -0.5470
    8CHTO  H119 3187   6.057   8.408   0.732  2.4012  0.2046  0.1534
    8CHTO   O43 3188   6.150   8.212   0.739 -0.2008 -0.4689  0.3925
    8CHTO  H101 3189   6.212   8.230   0.807  1.3002 -1.5188 -0.6617
    8CHTO   C66 3190   5.915   8.253   0.643  0.0776 -0.0361 -0.6555
    8CHTO  H123 3191   5.834   8.325   0.652  1.8059  1.7045  1.6601
    8CHTO   N12 3192   5.964   8.258   0.505  0.2156 -0.2149  0.2201
    8CHTO  H110 3193   5.984   8.358   0.468  0.2467  0.5153  2.1980
    8CHTO  H111 3194   5.887   8.208   0.448 -1.7801  0.9253  1.8588
    8CHTO   C69 3195   5.865   8.117   0.695  0.1630  0.3762  0.6455
    8CHTO  H126 3196   5.941   8.040   0.668 -0.4139 -0.6840  1.9597
    8CHTO   O41 3197   5.835   8.106   0.833 -0.0466  0.6380 -0.2894
    8CHTO   C64 3198   5.942   8.155   0.937 -0.3442 -0.1363  0.1198
    8CHTO  H121 3199   6.027   8.084   0.931 -0.2498  0.1606 -2.5363
    8CHTO   C71 3200   5.890   8.140   1.085 -0.3125  0.4422 -0.7434
    8CHTO   O47 3201   5.762   8.202   1.106 -0.3949  0.4382 -0.2904
    8CHTO  H104 3202   5.773   8.289   1.138 -0.2346  0.2936  0.0411
    8CHTO   O34 3203   5.729   8.085   0.623 -0.4292  0.7063  0.0183
    8CHTO   C49 3204   5.573   8.110   0.643  0.0120 -0.0305 -0.3345
    8CHTO   H91 3205   5.522   8.061   0.560 -1.2471 -0.0651  0.4310
    8CHTO   C47 3206   5.534   8.262   0.635  0.0248  0.2265 -0.9797
    8CHTO   H89 3207   5.424   8.259   0.629 -0.2030 -0.1745  2.5366
    8CHTO   O33 3208   5.593   8.316   0.508  0.7263  0.1251  0.6107
    8CHTO   H70 3209   5.685   8.319   0.524  0.7566 -1.3707  0.7918
    8CHTO   C45 3210   5.580   8.345   0.766 -0.6473 -0.4811 -0.4185
    8CHTO   H87 3211   5.683   8.322   0.796 -0.4312  0.6023 -0.3251
    8CHTO    N8 3212   5.562   8.489   0.773  0.0084 -0.2614  0.0561
    8CHTO   H75 3213   5.490   8.524   0.846 -0.0550  1.5352 -0.8559
    8CHTO   H76 3214   5.656   8.538   0.793  0.3524 -1.1827  0.7308
    8CHTO   C43 3215   5.504   8.276   0.891 -0.2228  0.1454  0.0750
    8CHTO   H85 3216   5.545   8.322   0.981 -0.3470 -4.1846  2.4698
    8CHTO   O29 3217   5.538   8.136   0.895  0.3197 -0.4663  0.5761
    8CHTO   C50 3218   5.521   8.054   0.780 -0.1351 -0.0367 -0.2238
    8CHTO   H92 3219   5.585   7.967   0.801  0.4259  0.7059  1.1815
    8CHTO   C54 3220   5.383   7.995   0.767 -0.0329 -0.2114  0.0247
    8CHTO   O36 3221   5.327   7.951   0.888 -0.0990  0.5973  0.1952
    8CHTO   H72 3222   5.341   7.859   0.902  0.2717  0.6640  0.2638
    8CHTO   O27 3223   5.358   8.287   0.892  0.1645  0.0552 -0.0811
    8CHTO   C37 3224   5.245   8.373   0.927  0.4718 -0.4621 -0.9672
    8CHTO   H79 3225   5.172   8.299   0.963 -0.7471  1.4150  0.4409
    8CHTO   C38 3226   5.279   8.475   1.037 -0.8729  0.4799  0.3998
    8CHTO   H80 3227   5.372   8.527   1.011  0.5961 -2.6555 -0.7702
    8CHTO   O31 3228   5.308   8.396   1.157  0.2642  0.8103  0.2011
    8CHTO   H68 3229   5.370   8.441   1.210  0.8669 -0.9300  1.0256
    8CHTO   C39 3230   5.151   8.573   1.064 -0.4935 -0.8261 -0.2520
    8CHTO   H81 3231   5.068   8.512   1.102 -0.2847 -0.7602  0.3188
    8CHTO    N7 3232   5.190   8.681   1.160  0.0199  0.2499 -0.0159
    8CHTO   H73 3233   5.097   8.717   1.201  0.3497 -2.2462  3.1571
    8CHTO   H74 3234   5.226   8.763   1.100  0.5464  0.3199  0.3889
    8CHTO   C40 3235   5.102   8.624   0.920 -0.6087  0.0677 -0.0894
    8CHTO   H82 3236   5.174   8.694   0.878  2.0216 -2.4809  0.0825
    8CHTO   O26 3237   5.064   8.525   0.833  0.1476 -0.2755  0.2626
    8CHTO   C41 3238   5.189   8.456   0.799 -0.1703  0.4527 -0.1416
    8CHTO   H83 3239   5.257   8.531   0.756 -1.1579  1.0286 -0.7338
    8CHTO   C52 3240   5.145   8.364   0.678 -0.5551  0.2426  0.5829
    8CHTO   O35 3241   5.068   8.430   0.567  0.5035  0.0523  0.3218
    8CHTO   H71 3242   5.099   8.515   0.542  2.0763 -0.2994  1.0059
    8CHTO   O28 3243   4.986   8.704   0.940 -0.0069 -0.4094  0.1456
    8CHTO   C42 3244   4.935   8.802   0.835  0.4694 -0.6414 -0.3125
    8CHTO   H84 3245   4.839   8.838   0.872  0.0866 -0.9114 -1.0475
    8CHTO   C44 3246   4.905   8.745   0.684  0.0840  0.0035  0.4885
    8CHTO   H86 3247   4.997   8.707   0.638  0.5339 -0.7539  1.9773
    8CHTO   O32 3248   4.805   8.642   0.701 -0.1353 -0.3034 -0.2730
    8CHTO   H69 3249   4.841   8.556   0.691 -0.2049 -0.2047 -1.4473
    8CHTO   C48 3250   4.850   8.859   0.589  0.1416  0.6636  0.3410
    8CHTO   H90 3251   4.749   8.886   0.620  0.3037  1.6070  0.0586
    8CHTO    N9 3252   4.840   8.814   0.442  0.0111 -0.0571  0.4087
    8CHTO   H77 3253   4.898   8.725   0.418 -0.3542  0.0876 -1.0833
    8CHTO   H78 3254   4.870   8.895   0.377 -0.2301 -2.8528 -3.3453
    8CHTO   C51 3255   4.938   8.991   0.608  0.2329 -0.2884 -0.3426
    8CHTO   H93 3256   5.031   8.979   0.552  0.6949  0.8884  0.1411
    8CHTO   O30 3257   4.963   9.033   0.743 -0.2486 -0.3931 -0.5415
    8CHTO   C46 3258   5.031   8.922   0.829 -0.3198  0.1908  0.0336
    8CHTO   H88 3259   5.124   8.895   0.778  0.4502  0.5688  1.2124
    8CHTO   C53 3260   5.058   8.987   0.968 -0.4495 -0.2870  0.6392
    8CHTO   O72 3261   5.140   9.108   0.956 -0.3729  0.0823  0.1981
    8CHTO  H199 3262   5.160   9.154   1.035 -1.6407  0.2082  0.4564
    8CHTO   O22 3263   4.863   9.103   0.557 -0.6561 -0.3959 -0.6714
    8CHTO   C31 3264   4.914   9.195   0.455  0.7222  0.8561 -0.4479
    8CHTO   H59 3265   4.842   9.279   0.466 -0.3443  0.2445 -2.4502
    8CHTO   C29 3266   5.058   9.249   0.473 -0.2493  0.4068 -0.0768
    8CHTO   H57 3267   5.119   9.159   0.488 -0.5789  0.0953 -0.6057
    8CHTO   O21 3268   5.063   9.318   0.597  0.1292 -0.2192 -0.6054
    8CHTO   H37 3269   5.084   9.255   0.662 -0.9422 -0.9651 -0.9625
    8CHTO   C27 3270   5.111   9.336   0.361  0.7331 -0.2481 -0.6076
    8CHTO   H55 3271   5.051   9.428   0.364 -0.1281 -0.8216 -0.3233
    8CHTO    N5 3272   5.259   9.380   0.355  0.5664  0.5496  0.3533
    8CHTO   H43 3273   5.297   9.374   0.456  2.1197 -1.9898 -0.3510
    8CHTO   H44 3274   5.315   9.324   0.281 -0.9981 -1.4852  0.6495
    8CHTO   C25 3275   5.076   9.268   0.219 -0.3467 -0.2596 -0.3999
    8CHTO   H53 3276   5.125   9.170   0.214 -1.1273 -0.7800  1.4358
    8CHTO   O17 3277   4.940   9.236   0.213 -0.0270 -0.0501  0.4619
    8CHTO   C32 3278   4.894   9.143   0.308 -0.0330 -0.0571  0.7945
    8CHTO   H60 3279   4.950   9.050   0.296 -0.5132 -0.4804  1.7683
    8CHTO   C36 3280   4.745   9.114   0.274 -0.3602 -0.2507 -0.1014
    8CHTO   O25 3281   4.740   9.038   0.155 -0.2760 -0.2503  0.3725
    8CHTO   H40 3282   4.781   8.954   0.168  1.8233  0.5707 -0.7004
    8CHTO   O15 3283   5.107   9.350   0.108 -0.5353 -0.8013 -0.1081
    8CHTO   C19 3284   5.171   9.354  -0.019  0.5092  0.1992  0.6668
    8CHTO   H47 3285   5.090   9.323  -0.086 -0.9185 -0.5438  2.6569
    8CHTO   C20 3286   5.218   9.490  -0.076 -0.2062  0.0795  0.5772
    8CHTO   H48 3287   5.290   9.537  -0.007  0.2921  0.3655 -0.1204
    8CHTO   O19 3288   5.107   9.571  -0.111  0.0813  0.2729 -0.4411
    8CHTO   H35 3289   5.102   9.660  -0.083 -2.2701  0.5204 -1.5083
    8CHTO   C21 3290   5.298   9.475  -0.215 -0.2065 -0.2787 -0.2771
    8CHTO   H49 3291   5.231   9.445  -0.296 -1.7484  1.9778  0.1045
    8CHTO    N4 3292   5.346   9.604  -0.269  0.5747  0.0123 -0.4814
    8CHTO   H41 3293   5.261   9.642  -0.324 -0.0096 -0.2481  0.2361
    8CHTO   H42 3294   5.363   9.669  -0.185  0.0680 -3.2376  2.2238
    8CHTO   C22 3295   5.408   9.368  -0.205  0.1470 -0.4639  0.1910
    8CHTO   H50 3296   5.478   9.397  -0.126 -0.4488 -0.3941  0.7038
    8CHTO   O14 3297   5.339   9.247  -0.169  0.0813  0.1929 -0.5906
    8CHTO   C23 3298   5.284   9.249  -0.035 -0.0168 -0.4479 -0.2026
    8CHTO   H51 3299   5.367   9.265   0.036 -0.4260 -1.5575  0.5407
    8CHTO   C34 3300   5.234   9.102  -0.028 -0.1686 -0.7429  0.3116
    8CHTO   O23 3301   5.347   9.014  -0.009 -0.2027 -0.2817 -0.1698
    8CHTO   H38 3302   5.399   9.046   0.063 -0.2695 -2.7727  1.0446
    8CHTO   O16 3303   5.475   9.338  -0.334  0.3497 -0.3979  0.1284
    8CHTO   C24 3304   5.599   9.254  -0.324 -0.4584 -0.0733 -0.1174
    8CHTO   H52 3305   5.615   9.216  -0.223 -2.9561  1.3152  0.8535
    8CHTO   C26 3306   5.716   9.343  -0.361 -0.1865  0.0240 -0.0220
    8CHTO   H54 3307   5.704   9.384  -0.464  0.1170 -2.8696 -1.2362
    8CHTO   O20 3308   5.719   9.456  -0.276  0.3292 -0.4230 -0.4187
    8CHTO   H36 3309   5.721   9.419  -0.191  2.7285  1.2195  0.2914
    8CHTO   C30 3310   5.852   9.254  -0.358  0.9109 -0.3645 -0.0253
    8CHTO   H58 3311   5.868   9.214  -0.256  0.4648  0.3732  0.3380
    8CHTO    N6 3312   5.973   9.333  -0.399  0.1134 -0.5254 -0.8430
    8CHTO   H45 3313   5.957   9.426  -0.347  0.1096  0.1878 -2.0904
    8CHTO   H46 3314   5.963   9.361  -0.503 -1.2795  1.6760 -0.1337
    8CHTO   C33 3315   5.828   9.130  -0.450 -0.2976 -0.2992  0.0729
    8CHTO   H61 3316   5.801   9.162  -0.551 -2.6303 -1.6723  0.2231
    8CHTO   O18 3317   5.717   9.057  -0.397 -0.5198 -0.2590  0.5083
    8CHTO   C28 3318   5.597   9.134  -0.413 -0.0007 -0.5859 -0.1573
    8CHTO   H56 3319   5.590   9.173  -0.514  0.9146  0.4770  0.1771
    8CHTO   C35 3320   5.479   9.035  -0.396  0.3718 -0.8442  0.5752
    8CHTO   O24 3321   5.490   8.941  -0.284  0.1930  0.8830  0.0353
    8CHTO   H39 3322   5.493   8.995  -0.208  0.4927 -0.0605  0.7073
    8CHTO    O9 3323   5.940   9.039  -0.458  0.0105  0.3641 -0.7842
    8CHTO   C13 3324   5.955   8.962  -0.578  0.0473 -0.5621  0.0973
    8CHTO   H26 3325   5.946   9.037  -0.659 -1.2325  0.8287  1.5016
    8CHTO   C11 3326   5.850   8.850  -0.595  0.2014 -1.2288  0.0355
    8CHTO   H24 3327   5.750   8.892  -0.612  1.3349  0.4732 -2.7060
    8CHTO    O8 3328   5.833   8.761  -0.486  0.4061  0.6708  0.4689
    8CHTO    H3 3329   5.860   8.807  -0.408 -0.8477  1.6343  0.3613
    8CHTO    C9 3330   5.882   8.778  -0.725  0.0977 -0.3139 -0.4257
    8CHTO   H22 3331   5.900   8.857  -0.800 -0.8021 -1.3161 -1.7156
    8CHTO    N2 3332   5.767   8.688  -0.774 -0.3126 -0.0000 -0.0637
    8CHTO   H10 3333   5.705   8.726  -0.853  1.8864 -0.3254 -2.0001
    8CHTO   H11 3334   5.789   8.583  -0.784  0.8106  0.0090  1.8833
    8CHTO    C7 3335   6.019   8.704  -0.717 -0.1530  0.2421 -0.0692
    8CHTO   H20 3336   6.033   8.670  -0.821 -1.3796  1.0070 -0.4875
    8CHTO    O4 3337   6.131   8.795  -0.692 -0.6403  0.6942 -0.1762
    8CHTO   C14 3338   6.104   8.897  -0.592 -0.4853  0.0267  0.3443
    8CHTO   H27 3339   6.176   8.973  -0.630  1.1743 -1.7563 -0.1475
    8CHTO   C18 3340   6.165   8.844  -0.461  0.6768  0.4220 -0.0115
    8CHTO   O13 3341   6.149   8.941  -0.361 -0.8174 -0.2704  0.4023
    8CHTO    H7 3342   6.185   8.899  -0.285  1.2309 -0.0044 -0.4036
    8CHTO    O2 3343   6.029   8.578  -0.596 -0.6621  0.1070 -0.3540
    8CHTO    C1 3344   6.126   8.473  -0.619  0.1693 -0.6033 -0.5812
    8CHTO   H14 3345   6.127   8.415  -0.524 -0.7743  0.1007 -0.1331
    8CHTO    C2 3346   6.273   8.517  -0.656  0.5966  0.4188  0.4969
    8CHTO   H15 3347   6.260   8.590  -0.737  0.6458 -1.5525 -1.3230
    8CHTO    O6 3348   6.332   8.575  -0.541  0.7462  1.0313 -0.0237
    8CHTO    H1 3349   6.306   8.664  -0.527  0.3696  0.9320 -0.0891
    8CHTO    C3 3350   6.372   8.394  -0.688  0.0713  0.0132 -0.6765
    8CHTO   H16 3351   6.404   8.339  -0.599  0.2817  0.1623 -0.6590
    8CHTO    N1 3352   6.498   8.442  -0.760  0.4754 -0.0638  0.0533
    8CHTO    H8 3353   6.563   8.357  -0.768  0.1823 -0.2506 -0.3614
    8CHTO    H9 3354   6.562   8.513  -0.709  3.1111 -0.4229 -2.6390
    8CHTO    C4 3355   6.294   8.289  -0.781  0.2241 -0.1233 -0.1985
    8CHTO   H17 3356   6.288   8.326  -0.883  1.8976  1.3093  0.2079
    8CHTO    O1 3357   6.161   8.270  -0.728 -0.6047 -0.2400 -0.0042
    8CHTO    C5 3358   6.070   8.384  -0.727 -0.0071 -0.0045 -0.0320
    8CHTO   H18 3359   6.066   8.443  -0.818  1.2249  0.3620  0.1367
    8CHTO   C16 3360   5.933   8.338  -0.691  0.4487  0.0917  0.4756
    8CHTO   O11 3361   5.876   8.272  -0.802 -0.1097  0.2742  0.1224
    8CHTO    H5 3362   5.938   8.220  -0.849  0.2834  1.0139 -0.1788
    8CHTO    O3 3363   6.365   8.161  -0.768  0.4334 -0.5178  0.3032
    8CHTO    C6 3364   6.338   8.064  -0.873 -0.0537  0.5042 -0.1165
    8CHTO   H19 3365   6.282   8.099  -0.959  0.6176 -0.4842 -0.9740
    8CHTO    C8 3366   6.482   8.009  -0.926  0.1969 -0.3918 -0.0766
    8CHTO   H21 3367   6.537   7.958  -0.847 -0.3278 -0.0286  0.5383
    8CHTO    O7 3368   6.543   8.125  -0.981  0.1657  0.1844 -0.5402
    8CHTO    H2 3369   6.567   8.185  -0.913  1.3396 -0.7776 -0.0923
    8CHTO   C12 3370   6.462   7.905  -1.035  0.5735  0.3572  0.2446
    8CHTO   H25 3371   6.409   7.957  -1.117 -2.0354  0.7561  2.1273
    8CHTO    N3 3372   6.586   7.847  -1.093  0.3072  0.0597  0.5326
    8CHTO   H12 3373   6.664   7.921  -1.102 -1.8869  2.1505 -2.2341
    8CHTO   H13 3374   6.555   7.790  -1.179 -0.2617  2.2200 -0.7406
    8CHTO   C15 3375   6.369   7.792  -0.984 -0.1282 -0.0200  0.4325
    8CHTO   H28 3376   6.414   7.731  -0.906 -0.1222  0.1074  0.5287
    8CHTO   O10 3377   6.301   7.711  -1.103 -0.2807  0.5998 -0.0764
    8CHTO    H4 3378   6.215   7.676  -1.089 -0.6536  0.7023 -1.9630
    8CHTO    O5 3379   6.247   7.847  -0.930  0.1472  0.4343  0.6463
    8CHTO   C10 3380   6.262   7.939  -0.821 -0.0307 -0.1520  0.2776
    8CHTO   H23 3381   6.333   7.889  -0.754  0.6956  1.6989  0.9323
    8CHTO   C17 3382   6.119   7.961  -0.761 -0.3939  0.0312  0.5540
    8CHTO   O12 3383   6.129   8.003  -0.623 -0.0493 -0.4310 -0.3299
    8CHTO    H6 3384   6.067   7.952  -0.574  1.5650 -1.6992  0.4691
    9CHTO  H203 3385   6.746   3.865   3.964 -0.4471  1.1955 -1.1320
    9CHTO   O82 3386   6.758   3.823   3.881  0.0840 -0.2145 -0.3457
    9CHTO  C123 3387   6.884   3.866   3.828 -0.7833 -0.2191  0.3619
    9CHTO  H227 3388   6.942   3.916   3.907 -0.7500  0.6075 -0.1788
    9CHTO   O77 3389   6.949   3.747   3.789  0.9523  0.4585 -0.3375
    9CHTO  C118 3390   7.081   3.762   3.743 -0.9589 -0.3499  0.7884
    9CHTO  H222 3391   7.143   3.808   3.821 -0.1804  1.2818 -0.7498
    9CHTO  C125 3392   7.135   3.613   3.725 -0.0240 -0.3359  0.0459
    9CHTO   O84 3393   7.275   3.623   3.682  0.2024 -0.0302  0.0152
    9CHTO  H205 3394   7.324   3.675   3.743  0.4356 -1.3287  0.9425
    9CHTO  C114 3395   7.087   3.846   3.615 -0.2296  0.0209 -0.5245
    9CHTO  H218 3396   7.015   3.805   3.543 -0.3924 -0.7666  0.0826
    9CHTO  C116 3397   7.026   3.987   3.654 -0.5070 -0.2905 -0.0443
    9CHTO  H220 3398   7.081   4.035   3.738  0.8817  1.0511 -1.6924
    9CHTO   O79 3399   7.029   4.068   3.536 -0.5857 -0.0484 -0.1403
    9CHTO  H201 3400   7.067   4.151   3.557 -0.7232 -0.2556  0.9656
    9CHTO  C120 3401   6.876   3.962   3.707  0.1378  0.7886  0.7499
    9CHTO  H224 3402   6.816   3.906   3.633  2.5488 -1.3289  0.3257
    9CHTO   N21 3403   6.799   4.088   3.733  0.4450 -0.4983  0.3169
    9CHTO  H211 3404   6.707   4.072   3.787 -0.2121  1.6361 -0.1303
    9CHTO  H212 3405   6.795   4.158   3.651 -3.0625 -0.7611  0.1826
    9CHTO   O75 3406   7.220   3.852   3.568 -0.0488 -0.0798  0.9492
    9CHTO  C112 3407   7.231   3.815   3.411 -0.0642  0.3151  0.0553
    9CHTO  H216 3408   7.143   3.858   3.361 -0.8628 -0.6457  0.6383
    9CHTO   O73 3409   7.236   3.672   3.401 -0.1505 -0.3361  0.2707
    9CHTO  C113 3410   7.234   3.627   3.263  0.1651  0.2967  0.3782
    9CHTO  H217 3411   7.148   3.676   3.215  0.0386 -0.2166  0.0736
    9CHTO  C124 3412   7.220   3.479   3.251  0.3180 -0.3132 -0.6452
    9CHTO   O83 3413   7.306   3.413   3.347 -0.0741  0.7822  0.5022
    9CHTO  H204 3414   7.385   3.401   3.297 -1.3268 -1.9540 -0.9041
    9CHTO  C109 3415   7.365   3.686   3.193  0.3267 -0.0554 -0.1204
    9CHTO  H213 3416   7.447   3.631   3.241 -0.1963 -0.2466  0.5553
    9CHTO  C110 3417   7.363   3.840   3.204 -0.2543 -0.1414 -0.1757
    9CHTO  H214 3418   7.275   3.871   3.147 -1.7502  0.0348  2.1423
    9CHTO   O78 3419   7.473   3.904   3.128 -0.4972  0.3406 -0.0021
    9CHTO  H200 3420   7.549   3.849   3.127 -2.0727 -1.9519  1.6911
    9CHTO  C111 3421   7.355   3.884   3.347 -0.4706 -0.4916  0.0446
    9CHTO  H215 3422   7.448   3.858   3.400  0.9862  1.2541 -1.5886
    9CHTO   N19 3423   7.342   4.029   3.360 -0.5522  1.2643 -0.1628
    9CHTO  H207 3424   7.431   4.078   3.324  0.2831  1.1979  1.7317
    9CHTO  H208 3425   7.317   4.053   3.462 -3.0277  0.2759 -0.5037
    9CHTO   O74 3426   7.364   3.642   3.058  0.4422  0.5938  0.0527
    9CHTO  C115 3427   7.509   3.597   3.011  0.0610 -0.7523  0.0178
    9CHTO  H219 3428   7.584   3.670   3.040  0.0496 -0.8402  0.2662
    9CHTO   O76 3429   7.554   3.449   3.074  0.3490  0.2046 -0.0163
    9CHTO  C122 3430   7.476   3.341   3.020 -0.1125  0.1210  0.0753
    9CHTO  H226 3431   7.369   3.353   3.033  0.1849  1.9350  1.0300
    9CHTO  C126 3432   7.520   3.208   3.087  0.7431  0.0536 -0.5120
    9CHTO   O85 3433   7.489   3.205   3.223  0.5685  0.1503  0.2279
    9CHTO  H206 3434   7.564   3.175   3.271  0.7469 -0.4609 -0.4403
    9CHTO  C121 3435   7.495   3.339   2.864  0.1186 -0.1243 -0.0160
    9CHTO  H225 3436   7.603   3.328   2.840 -0.0521  0.9634 -1.3133
    9CHTO   O81 3437   7.415   3.229   2.818 -0.2602 -0.1760  0.6002
    9CHTO  H202 3438   7.451   3.150   2.851  0.2826 -0.1076  0.1847
    9CHTO  C119 3439   7.445   3.473   2.803 -0.3115  0.0718 -0.0140
    9CHTO  H223 3440   7.463   3.460   2.696 -0.6439 -0.3836 -0.0146
    9CHTO  C117 3441   7.512   3.598   2.854 -0.4393 -0.4294  1.0108
    9CHTO  H221 3442   7.466   3.693   2.827 -1.4978 -0.6090  2.1271
    9CHTO   N20 3443   7.651   3.606   2.802  0.2213 -0.1197 -0.4443
    9CHTO  H209 3444   7.684   3.695   2.855  1.3381 -0.9746  0.3073
    9CHTO  H210 3445   7.645   3.619   2.695 -1.8980 -0.4091 -0.3758
    9CHTO   O80 3446   7.301   3.479   2.804 -0.3407 -0.0367  0.2498
    9CHTO  C103 3447   7.222   3.560   2.694 -0.0794  0.5551  0.4938
    9CHTO  H190 3448   7.244   3.666   2.709 -1.7683  1.1030 -0.7374
    9CHTO  C101 3449   7.230   3.522   2.541  0.2511  0.0580  0.7813
    9CHTO  H188 3450   7.194   3.419   2.535  1.1692 -0.1704 -0.9555
    9CHTO   O68 3451   7.398   3.527   2.497  0.1556 -0.4102  0.6122
    9CHTO  H168 3452   7.422   3.579   2.423  0.7305  0.6907  1.5546
    9CHTO   C99 3453   7.137   3.616   2.447  0.3320 -0.1952  0.5001
    9CHTO  H186 3454   7.174   3.719   2.467 -1.8403  0.7371 -0.1065
    9CHTO   N17 3455   7.140   3.588   2.301 -0.2016 -0.1859  0.1526
    9CHTO  H174 3456   7.066   3.657   2.263  1.7252  1.3734 -0.8776
    9CHTO  H175 3457   7.104   3.488   2.279  0.1841  0.1131 -1.9840
    9CHTO   C97 3458   6.997   3.616   2.515  0.3347 -0.0490  0.6822
    9CHTO  H184 3459   6.950   3.522   2.483  1.3822 -1.1181  2.1992
    9CHTO   O64 3460   6.992   3.632   2.655 -0.3343 -0.3771 -0.4999
    9CHTO  C104 3461   7.071   3.534   2.726  0.4762  0.0158 -0.2337
    9CHTO  H191 3462   7.040   3.432   2.704  0.8163  0.0181 -0.7187
    9CHTO  C108 3463   7.053   3.551   2.877  0.3245 -0.2254 -0.1481
    9CHTO   O71 3464   6.926   3.519   2.914  0.3497 -0.4066 -0.2106
    9CHTO  H171 3465   6.937   3.467   2.992 -0.0535  1.2059  0.9507
    9CHTO   O62 3466   6.927   3.730   2.456 -0.4641  0.0378 -0.1482
    9CHTO   C91 3467   6.812   3.694   2.384 -0.0981 -0.7283  0.3607
    9CHTO  H178 3468   6.840   3.620   2.309 -0.6139 -0.7855  0.2206
    9CHTO   C92 3469   6.758   3.815   2.299 -0.1949  0.3985 -0.4356
    9CHTO  H179 3470   6.848   3.866   2.262  1.2565 -1.5891  0.2803
    9CHTO   O66 3471   6.685   3.764   2.183  0.0673  0.2009 -0.0553
    9CHTO  H166 3472   6.734   3.761   2.103  0.9439  5.3709  0.1620
    9CHTO   C93 3473   6.654   3.912   2.376 -0.2339 -0.1211 -1.0899
    9CHTO  H180 3474   6.595   3.961   2.297  1.2048  0.3771 -1.8565
    9CHTO   N16 3475   6.726   4.021   2.445 -0.0473  0.1898 -0.1069
    9CHTO  H172 3476   6.798   4.065   2.378 -0.5601 -1.3012 -1.6802
    9CHTO  H173 3477   6.773   3.997   2.539  1.4176  0.8522 -0.6673
    9CHTO   C94 3478   6.554   3.834   2.474 -0.5360  0.0369 -0.1631
    9CHTO  H181 3479   6.564   3.867   2.577 -1.5759  3.1733 -1.0038
    9CHTO   O61 3480   6.566   3.691   2.474 -0.1201  0.1147 -0.2233
    9CHTO   C95 3481   6.696   3.634   2.477  0.0595  0.4495 -0.2534
    9CHTO  H182 3482   6.735   3.637   2.579 -1.7957 -1.2012  0.5390
    9CHTO  C106 3483   6.668   3.482   2.446  0.1775  0.4561  0.9496
    9CHTO   O69 3484   6.642   3.468   2.302 -0.1729 -0.2484  0.3622
    9CHTO  H169 3485   6.721   3.433   2.264 -0.0925 -0.2144  0.4972
    9CHTO   O63 3486   6.408   3.880   2.429 -0.2862 -0.1920  0.3929
    9CHTO   C96 3487   6.313   3.880   2.537  0.1793  0.5400  0.1554
    9CHTO  H183 3488   6.366   3.890   2.632  0.7231  0.0639 -0.0987
    9CHTO   C98 3489   6.219   3.760   2.539 -0.3630 -0.1485 -0.2153
    9CHTO  H185 3490   6.174   3.746   2.439  1.5009  1.4119 -1.2886
    9CHTO   O67 3491   6.303   3.644   2.560  0.5158 -0.9582 -0.1468
    9CHTO  H167 3492   6.349   3.642   2.642  1.1783  0.8550 -0.4650
    9CHTO  C102 3493   6.105   3.773   2.649  0.4756  0.5084 -0.0817
    9CHTO  H189 3494   6.152   3.758   2.747 -1.3143 -2.6302  0.3692
    9CHTO   N18 3495   6.005   3.666   2.649 -0.5491 -0.1640 -0.2551
    9CHTO  H176 3496   6.045   3.571   2.680 -0.3722  0.5387  1.7631
    9CHTO  H177 3497   5.954   3.677   2.555 -0.4802 -0.4076 -0.3221
    9CHTO  C105 3498   6.037   3.905   2.638  0.1610 -0.4926 -0.5489
    9CHTO  H192 3499   5.986   3.905   2.542 -0.3831  0.4761 -0.2593
    9CHTO   O65 3500   6.126   4.018   2.651 -0.3725  0.1142  0.2638
    9CHTO  C100 3501   6.226   4.016   2.545  0.2127 -0.1150  0.0552
    9CHTO  H187 3502   6.168   4.020   2.452 -1.0187 -0.5059  0.8101
    9CHTO  C107 3503   6.311   4.147   2.576  0.0557  0.2110  0.1156
    9CHTO   O70 3504   6.261   4.268   2.525 -0.3842 -0.4143  0.3035
    9CHTO  H170 3505   6.177   4.282   2.564 -1.1536 -0.6909 -1.2246
    9CHTO   O57 3506   5.928   3.923   2.762 -0.2141  0.0543  0.2125
    9CHTO   C85 3507   5.814   4.014   2.746 -0.0884 -0.3029  0.0294
    9CHTO  H157 3508   5.756   3.971   2.662  0.5629 -0.2630 -0.4472
    9CHTO   C83 3509   5.855   4.163   2.708 -0.0118  0.7027 -0.2157
    9CHTO  H155 3510   5.890   4.161   2.604 -0.3303 -1.9118 -0.2887
    9CHTO   O56 3511   5.967   4.198   2.793  0.9071  0.1182  0.6182
    9CHTO  H135 3512   5.937   4.239   2.872  0.0895  0.5541  0.0829
    9CHTO   C81 3513   5.732   4.253   2.720 -0.1105  0.7224  0.5911
    9CHTO  H153 3514   5.659   4.221   2.646  2.4877  0.4828 -2.0025
    9CHTO   N14 3515   5.761   4.391   2.671 -0.0636 -0.1823  0.4416
    9CHTO  H141 3516   5.851   4.409   2.725 -0.4422 -1.3435  1.5124
    9CHTO  H142 3517   5.684   4.453   2.711  0.0759 -0.3669  1.0052
    9CHTO   C79 3518   5.668   4.253   2.860 -0.4862 -0.0682  0.5083
    9CHTO  H151 3519   5.576   4.313   2.854 -0.4136  0.0110  0.1826
    9CHTO   O52 3520   5.622   4.117   2.879 -0.1725  0.5826  0.3920
    9CHTO   C86 3521   5.730   4.021   2.876  0.4072  0.1054  1.0664
    9CHTO  H158 3522   5.799   4.047   2.959 -0.1926 -0.8470  1.8750
    9CHTO   C90 3523   5.679   3.877   2.909  0.7893  0.1192  0.0567
    9CHTO   O60 3524   5.592   3.824   2.802 -0.1348  0.2017  0.4695
    9CHTO  H138 3525   5.547   3.750   2.837  0.4203 -0.2565  0.2389
    9CHTO   O50 3526   5.751   4.290   2.969 -0.2452  0.2510  0.2654
    9CHTO   C73 3527   5.768   4.372   3.088 -0.5857  0.0167 -0.4246
    9CHTO  H145 3528   5.675   4.384   3.146 -0.5603 -1.2018 -0.1376
    9CHTO   C74 3529   5.822   4.516   3.056  0.1272  1.1302 -0.0472
    9CHTO  H146 3530   5.752   4.549   2.977 -0.6454 -0.3695  0.0101
    9CHTO   O54 3531   5.800   4.592   3.178  0.0834  0.5822 -0.2109
    9CHTO  H133 3532   5.821   4.684   3.171 -0.9754  0.8808  0.4768
    9CHTO   C75 3533   5.970   4.509   3.001  0.1980  0.3022  0.0682
    9CHTO  H147 3534   5.964   4.462   2.903 -0.9795  1.6323 -0.5181
    9CHTO   N13 3535   6.035   4.643   2.979  0.0446 -0.6469  0.3624
    9CHTO  H139 3536   6.124   4.632   2.918 -0.4062 -3.1343  0.0866
    9CHTO  H140 3537   6.044   4.702   3.069 -0.8711 -0.4237  0.3155
    9CHTO   C76 3538   6.068   4.406   3.079  0.3527  0.0197  0.2940
    9CHTO  H148 3539   6.110   4.450   3.169  3.1966 -0.7854 -0.6132
    9CHTO   O49 3540   5.998   4.281   3.121  0.2201  0.4117  0.3631
    9CHTO   C77 3541   5.869   4.303   3.182 -0.8418 -0.2769 -0.1783
    9CHTO  H149 3542   5.878   4.357   3.276 -1.0639 -0.5256 -0.0113
    9CHTO   C88 3543   5.811   4.170   3.229 -0.1576 -0.2356 -0.3090
    9CHTO   O58 3544   5.677   4.194   3.319  0.0256 -0.2346 -0.5280
    9CHTO  H136 3545   5.632   4.113   3.335 -1.9854  0.7807 -0.8759
    9CHTO   O51 3546   6.179   4.362   2.980 -0.6417 -0.3558 -0.7359
    9CHTO   C78 3547   6.339   4.368   3.038 -0.2448 -0.3186 -0.0757
    9CHTO  H150 3548   6.333   4.347   3.147 -2.4399 -0.9096 -0.2897
    9CHTO   C80 3549   6.408   4.503   3.021  0.1325 -0.7071 -0.3919
    9CHTO  H152 3550   6.400   4.543   2.918  1.2692  0.3776 -0.0859
    9CHTO   O55 3551   6.339   4.598   3.106 -0.4523  0.0797 -0.0856
    9CHTO  H134 3552   6.371   4.683   3.084  0.7977 -0.4347 -0.2816
    9CHTO   C84 3553   6.558   4.505   3.067  0.2385 -0.0267  0.1673
    9CHTO  H156 3554   6.553   4.492   3.176  1.5616 -2.0109  0.0341
    9CHTO   N15 3555   6.626   4.638   3.035 -0.5401 -0.0367  0.6577
    9CHTO  H143 3556   6.548   4.707   3.008 -0.1308 -0.2083 -1.0531
    9CHTO  H144 3557   6.675   4.683   3.118 -2.8327  2.8133  0.5512
    9CHTO   C87 3558   6.629   4.387   3.000 -0.2146 -0.2904 -0.1064
    9CHTO  H159 3559   6.627   4.393   2.891 -2.5640  0.6252 -0.0343
    9CHTO   O53 3560   6.549   4.261   3.045  0.2838 -0.5850 -0.2005
    9CHTO   C82 3561   6.422   4.254   2.974 -0.6406  0.4832 -0.1997
    9CHTO  H154 3562   6.424   4.262   2.866 -1.0893  0.7071 -0.1907
    9CHTO   C89 3563   6.350   4.126   3.008 -0.0380 -0.1481  0.3160
    9CHTO   O59 3564   6.239   4.088   2.925 -0.0691  0.1586 -0.0077
    9CHTO  H137 3565   6.240   3.994   2.919  1.2553  0.1858 -0.5080
    9CHTO   O45 3566   6.811   4.372   3.056 -0.0670  0.3075  0.4751
    9CHTO   C67 3567   6.849   4.238   3.092 -0.3733  0.4069 -0.7692
    9CHTO  H124 3568   6.766   4.189   3.143  0.4350 -1.2426 -1.0058
    9CHTO   C65 3569   6.887   4.154   2.967  0.0318  0.3959  0.3693
    9CHTO  H122 3570   6.959   4.207   2.905  0.4210  0.0294  0.5042
    9CHTO   O44 3571   6.767   4.119   2.894 -0.0608  0.0279  0.1878
    9CHTO  H102 3572   6.742   4.191   2.840 -1.8629 -2.9371 -3.1001
    9CHTO   C63 3573   6.967   4.023   3.013  0.1608 -0.2450 -0.3529
    9CHTO  H120 3574   7.072   4.049   3.020  0.5009 -1.9058  0.9890
    9CHTO   N11 3575   6.969   3.903   2.919 -0.1033  0.4502 -0.2300
    9CHTO  H108 3576   7.000   3.941   2.824 -1.0572 -1.1694 -1.2092
    9CHTO  H109 3577   6.865   3.883   2.903 -0.0576 -1.6430  1.7412
    9CHTO   C61 3578   6.938   3.981   3.168 -0.1874  0.0376 -0.1200
    9CHTO  H118 3579   7.008   3.902   3.200  2.8526  2.0882 -1.5325
    9CHTO   O40 3580   6.965   4.101   3.260  0.3085 -0.0540  0.4698
    9CHTO   C68 3581   6.965   4.237   3.198 -0.0681 -0.2193 -0.5279
    9CHTO  H125 3582   7.059   4.259   3.144 -0.7727  0.1438 -1.6246
    9CHTO   C72 3583   6.958   4.341   3.312  0.0996  0.0329  0.0913
    9CHTO   O48 3584   6.831   4.340   3.384 -0.2084 -0.1197  0.5618
    9CHTO  H105 3585   6.855   4.315   3.471  1.5379  0.4827  0.2669
    9CHTO   O38 3586   6.804   3.936   3.182  0.1411  0.5399  0.7450
    9CHTO   C55 3587   6.761   3.900   3.318  0.1357 -0.3019  0.1719
    9CHTO  H112 3588   6.823   3.962   3.384 -0.8477  3.7310 -2.4912
    9CHTO   C56 3589   6.771   3.741   3.344 -0.2472 -0.2253  0.4165
    9CHTO  H113 3590   6.713   3.698   3.261  0.1373 -1.5433  0.8084
    9CHTO   O42 3591   6.908   3.707   3.317  0.1617  0.0894 -0.1556
    9CHTO  H100 3592   6.918   3.616   3.341  1.7124  0.3971  0.4485
    9CHTO   C57 3593   6.709   3.695   3.476  0.5587  0.1036  0.1202
    9CHTO  H114 3594   6.774   3.730   3.556 -0.3640 -0.1513  0.9830
    9CHTO   N10 3595   6.703   3.550   3.494  0.4618  0.6314  0.7226
    9CHTO  H106 3596   6.719   3.517   3.595  3.5360  1.6409  0.6173
    9CHTO  H107 3597   6.603   3.524   3.461  0.5403  0.4902  0.5983
    9CHTO   C58 3598   6.566   3.761   3.487 -0.1377  0.2875 -0.5292
    9CHTO  H115 3599   6.499   3.723   3.407 -2.5648  4.2408 -0.4902
    9CHTO   O37 3600   6.567   3.906   3.471 -0.3064 -0.0330  0.1423
    9CHTO   C59 3601   6.614   3.945   3.344 -0.4080 -0.1080  0.0574
    9CHTO  H116 3602   6.547   3.913   3.265 -0.7129  0.3000  0.1456
    9CHTO   C70 3603   6.614   4.101   3.339  0.8473  0.2863  0.0461
    9CHTO   O46 3604   6.476   4.150   3.315 -0.0830  0.1273  0.1493
    9CHTO  H103 3605   6.478   4.241   3.295  1.2354  0.5130  1.9198
    9CHTO   O39 3606   6.496   3.728   3.641 -0.0654  0.4659 -0.1915
    9CHTO   C60 3607   6.355   3.732   3.635  0.3378 -0.3713  0.0598
    9CHTO  H117 3608   6.316   3.823   3.589  1.0035  0.8661  1.8709
    9CHTO   C62 3609   6.287   3.607   3.574  0.0269 -0.0426  0.1507
    9CHTO  H119 3610   6.311   3.600   3.466 -0.3309  0.1524  0.0601
    9CHTO   O43 3611   6.347   3.482   3.626 -0.1999  0.6866  0.2156
    9CHTO  H101 3612   6.391   3.493   3.708  1.1826 -1.6177 -0.1667
    9CHTO   C66 3613   6.129   3.612   3.584 -0.2855  0.1293 -0.0254
    9CHTO  H123 3614   6.092   3.701   3.535  1.0770  1.3491  1.1165
    9CHTO   N12 3615   6.051   3.515   3.499  0.2261 -0.5873  0.0393
    9CHTO  H110 3616   6.068   3.530   3.393  1.1922 -2.4232 -0.0829
    9CHTO  H111 3617   6.062   3.410   3.519 -1.0987 -1.3169 -2.7291
    9CHTO   C69 3618   6.088   3.605   3.734 -0.5566 -0.2804  0.2181
    9CHTO  H126 3619   6.131   3.511   3.776 -1.1409 -0.2444  0.9095
    9CHTO   O41 3620   6.150   3.729   3.800 -1.0626  0.1993  0.3439
    9CHTO   C64 3621   6.307   3.735   3.782 -0.0876 -0.2003  0.2451
    9CHTO  H121 3622   6.348   3.643   3.829  1.2988  0.1945 -0.1583
    9CHTO   C71 3623   6.353   3.872   3.841 -0.4045  0.1648  0.1030
    9CHTO   O47 3624   6.335   3.893   3.980  0.1947  0.2081  0.7362
    9CHTO  H104 3625   6.411   3.855   4.020 -0.5003 -1.5093  0.4784
    9CHTO   O34 3626   5.932   3.605   3.757  0.3659 -0.3169 -0.4375
    9CHTO   C49 3627   5.795   3.603   3.838  0.5026  0.1023  0.2332
    9CHTO   H91 3628   5.714   3.634   3.772 -0.1620  0.7230  1.3271
    9CHTO   C47 3629   5.797   3.713   3.949 -0.3900  0.7571  0.1068
    9CHTO   H89 3630   5.690   3.713   3.979 -0.7279 -2.1799 -0.9186
    9CHTO   O33 3631   5.826   3.847   3.903  0.5865 -0.3667  0.3322
    9CHTO   H70 3632   5.912   3.860   3.866 -0.6514  1.4074 -2.0558
    9CHTO   C45 3633   5.905   3.672   4.063  0.0911  0.7336  0.0570
    9CHTO   H87 3634   5.999   3.719   4.033  0.5465 -0.3783 -0.2666
    9CHTO    N8 3635   5.861   3.732   4.195 -0.0405  0.4455  0.3189
    9CHTO   H75 3636   5.758   3.702   4.209  0.0009  0.8938  1.7788
    9CHTO   H76 3637   5.851   3.840   4.193 -2.3766  0.2730  0.3573
    9CHTO   C43 3638   5.925   3.509   4.074 -0.1736  0.0009  0.1376
    9CHTO   H85 3639   5.997   3.480   3.998 -1.6835 -2.3900 -0.4205
    9CHTO   O29 3640   5.795   3.455   4.046 -0.1224  0.0547  0.2681
    9CHTO   C50 3641   5.769   3.466   3.902 -0.4860 -0.3575 -0.0578
    9CHTO   H92 3642   5.838   3.401   3.846 -0.1790  1.8525 -2.3212
    9CHTO   C54 3643   5.623   3.418   3.881  0.0192  0.3013 -0.1628
    9CHTO   O36 3644   5.520   3.513   3.910  0.1405  0.0959 -0.5732
    9CHTO   H72 3645   5.442   3.468   3.886  0.0593 -0.2692  0.3635
    9CHTO   O27 3646   5.991   3.459   4.193  0.0888 -0.0013 -0.0135
    9CHTO   C37 3647   6.126   3.460   4.238  0.8679  0.0350  0.1764
    9CHTO   H79 3648   6.157   3.363   4.279 -0.5581 -0.6887 -0.4151
    9CHTO   C38 3649   6.234   3.483   4.133 -0.3178 -0.6900  0.2281
    9CHTO   H80 3650   6.197   3.561   4.065  2.0285  1.0172  0.8524
    9CHTO   O31 3651   6.236   3.362   4.058 -0.1770  0.0872 -0.3680
    9CHTO   H68 3652   6.285   3.295   4.102 -0.2978  0.8699  0.9930
    9CHTO   C39 3653   6.379   3.527   4.184 -0.5645  0.1155 -0.0683
    9CHTO   H81 3654   6.428   3.441   4.232  0.1640  0.3693 -0.3577
    9CHTO    N7 3655   6.470   3.572   4.074  0.0876 -0.2257  0.6751
    9CHTO   H73 3656   6.442   3.675   4.057 -0.3397 -0.2589  1.1581
    9CHTO   H74 3657   6.568   3.565   4.119  0.3843 -1.8371 -0.1856
    9CHTO   C40 3658   6.358   3.633   4.293 -1.0422  0.1631  0.2701
    9CHTO   H82 3659   6.317   3.727   4.258 -0.1775  0.6464  0.5249
    9CHTO   O26 3660   6.276   3.579   4.394 -0.3171 -0.0450 -0.1102
    9CHTO   C41 3661   6.136   3.574   4.347  0.4141 -0.3078  0.6331
    9CHTO   H83 3662   6.114   3.677   4.315  0.1038 -0.0843  1.5390
    9CHTO   C52 3663   6.053   3.536   4.479 -0.3781  0.1342 -0.1691
    9CHTO   O35 3664   5.912   3.470   4.442 -0.0982  0.5193  0.2093
    9CHTO   H71 3665   5.853   3.540   4.421  0.1408  0.2799 -1.3424
    9CHTO   O28 3666   6.479   3.659   4.370 -0.0142  0.3086 -0.3655
    9CHTO   C42 3667   6.498   3.791   4.428  0.3581 -0.2115 -0.1325
    9CHTO   H84 3668   6.582   3.768   4.493 -0.8434 -0.7624  1.2591
    9CHTO   C44 3669   6.390   3.846   4.531  0.0517  0.0092  0.0163
    9CHTO   H86 3670   6.294   3.802   4.504  1.0007 -2.3257  0.3087
    9CHTO   O32 3671   6.418   3.782   4.651 -0.1306 -0.2461 -0.5139
    9CHTO   H69 3672   6.338   3.766   4.698 -0.3432  0.4061 -0.6394
    9CHTO   C48 3673   6.376   4.000   4.553 -0.9126  0.7195 -0.1644
    9CHTO   H90 3674   6.460   4.021   4.620  0.3814 -1.4751 -1.0522
    9CHTO    N9 3675   6.247   4.047   4.617  0.8839 -0.2354 -0.0496
    9CHTO   H77 3676   6.197   4.112   4.547  2.1488 -0.1019 -0.8407
    9CHTO   H78 3677   6.259   4.100   4.710  0.0055 -0.5559  0.2487
    9CHTO   C51 3678   6.408   4.071   4.415 -0.1352  0.1239 -0.6519
    9CHTO   H93 3679   6.330   4.033   4.348 -2.0767  0.0445  1.5557
    9CHTO   O30 3680   6.537   4.034   4.374 -0.3845 -0.0282  0.8980
    9CHTO   C46 3681   6.541   3.898   4.322  0.3814  0.2006 -0.4303
    9CHTO   H88 3682   6.476   3.898   4.234 -1.2229  0.7165  0.7285
    9CHTO   C53 3683   6.688   3.861   4.279  0.3993 -0.4523 -0.1350
    9CHTO   O72 3684   6.719   3.939   4.165  0.2524  0.3449  0.1721
    9CHTO  H199 3685   6.696   4.030   4.169 -0.0142  0.3771 -1.8717
    9CHTO   O22 3686   6.403   4.212   4.414  0.2006 -0.3556  0.8512
    9CHTO   C31 3687   6.380   4.286   4.286  0.4111  0.3880  0.8097
    9CHTO   H59 3688   6.382   4.394   4.308  0.7683  0.5047  0.2146
    9CHTO   C29 3689   6.482   4.266   4.172  0.3584  0.2568 -0.1227
    9CHTO   H57 3690   6.501   4.159   4.162 -0.2069  0.2941 -1.6437
    9CHTO   O21 3691   6.599   4.329   4.228 -0.3489 -0.6180 -0.0569
    9CHTO   H37 3692   6.587   4.395   4.294 -0.3286 -0.5519 -0.1210
    9CHTO   C27 3693   6.443   4.320   4.031  0.7392  0.5830  0.4153
    9CHTO   H55 3694   6.433   4.429   4.042  0.0441  0.3520  2.2711
    9CHTO    N5 3695   6.545   4.294   3.929  0.0917 -0.9271  0.1693
    9CHTO   H43 3696   6.635   4.334   3.973 -0.9648  0.1768  1.3691
    9CHTO   H44 3697   6.521   4.360   3.848  0.3259  0.3055  1.1014
    9CHTO   C25 3698   6.305   4.260   4.001 -1.0311 -0.1537  0.6106
    9CHTO   H53 3699   6.315   4.151   3.997 -0.3420 -0.1903  2.8720
    9CHTO   O17 3700   6.210   4.317   4.098  0.0444 -0.4571 -0.1379
    9CHTO   C32 3701   6.235   4.260   4.228 -0.3841  0.2320  0.3355
    9CHTO   H60 3702   6.212   4.153   4.227 -0.5727  0.2746 -0.0757
    9CHTO   C36 3703   6.129   4.333   4.320 -0.3659 -0.0707  0.2664
    9CHTO   O25 3704   5.997   4.294   4.299 -0.1597 -0.4766 -0.4451
    9CHTO   H40 3705   5.951   4.310   4.379  1.4934 -1.7140  0.7983
    9CHTO   O15 3706   6.235   4.305   3.869 -0.4649 -0.2278  0.0172
    9CHTO   C19 3707   6.141   4.260   3.766  0.0286  0.4414 -0.3596
    9CHTO   H47 3708   6.100   4.353   3.725 -2.0334  0.2127  1.1326
    9CHTO   C20 3709   6.197   4.176   3.649 -0.1687  0.4173 -0.0288
    9CHTO   H48 3710   6.247   4.085   3.687 -2.0115 -0.2187  0.9451
    9CHTO   O19 3711   6.306   4.254   3.593  0.3605  0.6150 -0.1127
    9CHTO   H35 3712   6.376   4.261   3.655 -0.2177  0.6998  0.5276
    9CHTO   C21 3713   6.088   4.147   3.541 -0.6835 -0.1459 -0.0158
    9CHTO   H49 3714   6.049   4.240   3.500 -2.0322 -0.6216  0.1742
    9CHTO    N4 3715   6.136   4.071   3.423 -0.1758  0.5298  0.0928
    9CHTO   H41 3716   6.199   4.137   3.364 -0.1358 -0.6412 -1.1933
    9CHTO   H42 3717   6.050   4.051   3.361  0.4064  0.4834 -0.7024
    9CHTO   C22 3718   5.969   4.072   3.611 -0.2584 -0.2815 -0.4503
    9CHTO   H50 3719   6.015   3.977   3.639 -0.1387  0.0414  0.4584
    9CHTO   O14 3720   5.923   4.152   3.722 -0.0802 -0.0308  0.3764
    9CHTO   C23 3721   6.020   4.177   3.826  0.2633  0.1014 -0.2437
    9CHTO   H51 3722   6.053   4.081   3.867 -0.0890  0.0243 -0.1378
    9CHTO   C34 3723   5.961   4.243   3.941 -0.1864 -0.3515 -0.0535
    9CHTO   O23 3724   5.908   4.147   4.035  0.0140  0.0254 -0.2769
    9CHTO   H38 3725   5.894   4.182   4.121 -1.0380 -0.0898 -0.4027
    9CHTO   O16 3726   5.849   4.055   3.531  0.4922  0.2410  0.2865
    9CHTO   C24 3727   5.777   3.929   3.571  0.2061  0.2189 -0.2264
    9CHTO   H52 3728   5.820   3.880   3.658 -0.1387  1.3241  0.5713
    9CHTO   C26 3729   5.782   3.839   3.443  0.8532  0.1200  0.3201
    9CHTO   H54 3730   5.739   3.893   3.356  0.9994  0.2062  0.3028
    9CHTO   O20 3731   5.920   3.811   3.414 -0.1658  0.5207  0.3904
    9CHTO   H36 3732   5.933   3.759   3.337  0.1837  0.8128  0.2503
    9CHTO   C30 3733   5.701   3.707   3.476  0.3466  0.6020  0.4800
    9CHTO   H58 3734   5.746   3.652   3.559 -0.5586 -0.7914  0.0803
    9CHTO    N6 3735   5.700   3.616   3.355 -0.2827  0.0722 -0.6859
    9CHTO   H45 3736   5.797   3.597   3.312 -0.2518 -1.7461  0.1319
    9CHTO   H46 3737   5.651   3.521   3.373  0.1144  0.1568  0.9340
    9CHTO   C33 3738   5.559   3.736   3.524 -1.1303 -0.0992  0.2981
    9CHTO   H61 3739   5.496   3.788   3.450 -2.8396 -2.4410  0.0539
    9CHTO   O18 3740   5.574   3.827   3.637 -0.8055 -0.3569 -0.0917
    9CHTO   C28 3741   5.632   3.954   3.606 -0.0145 -0.4310  0.8400
    9CHTO   H56 3742   5.580   3.998   3.521 -0.4798  1.0082  1.8534
    9CHTO   C35 3743   5.619   4.048   3.732 -0.8860 -0.1763  0.2707
    9CHTO   O24 3744   5.488   4.058   3.776  0.3221 -0.1717 -0.7458
    9CHTO   H39 3745   5.481   4.128   3.838 -0.1002 -0.0215 -0.9574
    9CHTO    O9 3746   5.482   3.616   3.563  0.1731  0.3706  0.6692
    9CHTO   C13 3747   5.343   3.607   3.461 -0.2663  0.2270 -0.2702
    9CHTO   H26 3748   5.373   3.609   3.354  0.6704 -1.0465 -0.0381
    9CHTO   C11 3749   5.239   3.719   3.496 -0.6851  0.2212 -0.0755
    9CHTO   H24 3750   5.264   3.804   3.430  1.3008 -0.8331 -0.7380
    9CHTO    O8 3751   5.244   3.753   3.634  0.1876  0.4806 -0.1645
    9CHTO    H3 3752   5.245   3.846   3.642 -2.5359  0.6332 -1.0067
    9CHTO    C9 3753   5.091   3.673   3.469  0.2352 -0.3819 -0.0276
    9CHTO   H22 3754   5.092   3.632   3.367  0.3193  0.5023 -0.3825
    9CHTO    N2 3755   4.994   3.784   3.476 -0.3839  0.4781  0.1601
    9CHTO   H10 3756   4.921   3.780   3.556  0.3003 -2.1374  0.6671
    9CHTO   H11 3757   4.939   3.797   3.383 -0.0132 -0.9415 -0.2618
    9CHTO    C7 3758   5.055   3.551   3.559 -0.1376 -0.2464 -0.1302
    9CHTO   H20 3759   4.969   3.502   3.510 -1.6006  0.2746  1.8387
    9CHTO    O4 3760   5.163   3.458   3.565 -0.1940  0.1642  0.0497
    9CHTO   C14 3761   5.277   3.462   3.474 -0.0751 -0.5369 -0.0396
    9CHTO   H27 3762   5.232   3.438   3.376  0.1368 -0.3107 -0.1927
    9CHTO   C18 3763   5.382   3.348   3.505  0.1172  0.1168 -0.2478
    9CHTO   O13 3764   5.426   3.356   3.645  0.5794  0.6375  0.2576
    9CHTO    H7 3765   5.504   3.306   3.658  1.3108  1.7351  0.0895
    9CHTO    O2 3766   5.020   3.591   3.718  0.4363 -0.0550 -0.5336
    9CHTO    C1 3767   4.943   3.491   3.790 -0.3722 -0.2175 -0.7769
    9CHTO   H14 3768   4.950   3.390   3.743  1.8402  0.2504 -1.5038
    9CHTO    C2 3769   4.800   3.535   3.805 -0.2563  0.5909 -0.3059
    9CHTO   H15 3770   4.792   3.629   3.861  0.8561  0.0068  0.8294
    9CHTO    O6 3771   4.742   3.547   3.678 -0.2784  0.0157  0.2745
    9CHTO    H1 3772   4.740   3.465   3.631 -1.5080  0.2536 -0.1146
    9CHTO    C3 3773   4.717   3.422   3.893  0.4903 -0.0729 -0.0929
    9CHTO   H16 3774   4.718   3.330   3.833  0.3374 -0.4346  0.4639
    9CHTO    N1 3775   4.570   3.459   3.912  0.3364  0.5704  0.1365
    9CHTO    H8 3776   4.555   3.566   3.917 -0.8572  0.4372 -0.6008
    9CHTO    H9 3777   4.536   3.416   4.005 -0.5480  3.0780  1.0245
    9CHTO    C4 3778   4.790   3.388   4.026  0.2559  0.3337 -0.3574
    9CHTO   H17 3779   4.777   3.471   4.095 -0.7075 -0.9572  1.0300
    9CHTO    O1 3780   4.927   3.361   3.994 -0.2518  0.1194 -0.3093
    9CHTO    C5 3781   4.997   3.471   3.934 -0.5825  0.6140  0.7637
    9CHTO   H18 3782   4.980   3.564   3.989 -1.8090  0.2801  0.9728
    9CHTO   C16 3783   5.150   3.444   3.939  0.1510 -0.5447 -0.8849
    9CHTO   O11 3784   5.186   3.308   3.914 -0.7685  0.1111  0.1987
    9CHTO    H5 3785   5.276   3.282   3.923 -0.6279  0.7295  0.6130
    9CHTO    O3 3786   4.728   3.271   4.097  0.1536 -0.5713 -0.2265
    9CHTO    C6 3787   4.778   3.269   4.235 -0.0547  0.0218  0.5663
    9CHTO   H19 3788   4.865   3.329   4.261 -0.0148  0.2671 -0.1240
    9CHTO    C8 3789   4.673   3.314   4.340 -0.0332  0.2062  0.6756
    9CHTO   H21 3790   4.587   3.246   4.337  1.0401 -1.1377 -0.5301
    9CHTO    O7 3791   4.625   3.448   4.312  0.0332  0.0896  0.2320
    9CHTO    H2 3792   4.591   3.457   4.225  0.7166  2.3151  0.1504
    9CHTO   C12 3793   4.741   3.292   4.480 -0.0369  0.1643 -0.4415
    9CHTO   H25 3794   4.814   3.375   4.491  2.9343 -2.2104 -1.7021
    9CHTO    N3 3795   4.643   3.311   4.588 -0.2097  0.7253 -0.0458
    9CHTO   H12 3796   4.684   3.273   4.681  1.1371  0.2287 -0.8221
    9CHTO   H13 3797   4.549   3.260   4.572  0.6564 -1.9065  2.5707
    9CHTO   C15 3798   4.817   3.153   4.497  0.4227 -0.1644 -0.2797
    9CHTO   H28 3799   4.753   3.067   4.518 -1.2781  1.0388 -0.4032
    9CHTO   O10 3800   4.940   3.172   4.619 -0.1112  0.2114 -0.1747
    9CHTO    H4 3801   4.923   3.257   4.655 -1.3632  0.8309 -2.1774
    9CHTO    O5 3802   4.888   3.113   4.380  0.0009  0.1938 -0.2615
    9CHTO   C10 3803   4.822   3.119   4.259  0.0152 -0.7911  0.3557
    9CHTO   H23 3804   4.731   3.059   4.257  1.1628 -2.5558  0.5051
    9CHTO   C17 3805   4.917   3.052   4.157 -0.5974 -0.5672 -0.1067
    9CHTO   O12 3806   5.040   3.117   4.138 -0.5798 -0.0037 -0.3303
    9CHTO    H6 3807   5.088   3.116   4.218 -0.5209 -0.9907 -0.3692
   10CHTO  H203 3808   5.229   6.360   3.193  0.6350 -0.7663 -3.1857
   10CHTO   O82 3809   5.213   6.269   3.212  0.7435 -0.2274 -0.2931
   10CHTO  C123 3810   5.092   6.253   3.286  0.7467  0.5316 -0.0596
   10CHTO  H227 3811   5.016   6.226   3.211 -0.5885 -2.7845  2.3745
   10CHTO   O77 3812   5.114   6.132   3.360 -0.0251  0.2524  0.3756
   10CHTO  C118 3813   5.004   6.090   3.439 -0.4160  0.4421 -0.2821
   10CHTO  H222 3814   4.921   6.063   3.373  0.8142 -1.0553 -1.2540
   10CHTO  C125 3815   5.063   5.961   3.507  0.2970  0.2784  0.3953
   10CHTO   O84 3816   5.091   5.867   3.403 -0.3233 -0.2452 -0.5536
   10CHTO  H205 3817   5.174   5.824   3.415 -0.6943 -0.8638 -0.1520
   10CHTO  C114 3818   4.970   6.194   3.546  0.9554 -0.2642  0.1658
   10CHTO  H218 3819   5.058   6.209   3.608  0.5298 -0.6785  0.8633
   10CHTO  C116 3820   4.934   6.330   3.480 -0.0547  0.3341 -0.5055
   10CHTO  H220 3821   4.843   6.311   3.420  0.7243 -3.9772 -0.5255
   10CHTO   O79 3822   4.899   6.423   3.581 -0.0508  0.4496  0.2433
   10CHTO  H201 3823   4.974   6.475   3.604  0.0976  0.4625 -0.2611
   10CHTO  C120 3824   5.049   6.374   3.380 -0.2321 -0.3043  0.9060
   10CHTO  H224 3825   5.126   6.407   3.454 -0.7013  1.6052  0.5802
   10CHTO   N21 3826   5.008   6.494   3.309 -0.3598  0.1563  0.2823
   10CHTO  H211 3827   5.094   6.552   3.280 -0.9001 -0.5736 -3.0294
   10CHTO  H212 3828   4.931   6.552   3.357 -2.2198 -1.4641 -0.6669
   10CHTO   O75 3829   4.864   6.140   3.614 -0.4743 -0.2964 -0.1432
   10CHTO  C112 3830   4.861   6.151   3.782  0.6862  0.4044 -0.0171
   10CHTO  H216 3831   4.922   6.235   3.818  0.9298  0.2077  0.0335
   10CHTO   O73 3832   4.905   6.029   3.835  0.1123  0.1881  0.4401
   10CHTO  C113 3833   4.875   6.017   3.975 -0.5215 -0.3419 -0.4243
   10CHTO  H217 3834   4.910   6.110   4.023 -1.5236 -0.1918  0.0368
   10CHTO  C124 3835   4.959   5.903   4.030 -0.4917  0.5826  0.0746
   10CHTO   O83 3836   4.909   5.770   4.006  0.1621  0.0834 -0.1230
   10CHTO  H204 3837   4.986   5.719   3.992  1.2082  1.4073  0.6630
   10CHTO  C109 3838   4.725   6.000   3.997  0.1749  0.1096  0.2625
   10CHTO  H213 3839   4.685   5.920   3.933 -1.2324  0.1700  1.0438
   10CHTO  C110 3840   4.662   6.134   3.962 -0.8505 -0.3497 -0.1425
   10CHTO  H214 3841   4.696   6.211   4.030  2.9986  0.2254 -2.5757
   10CHTO   O78 3842   4.518   6.124   3.965 -0.5390 -0.3542 -0.2229
   10CHTO  H200 3843   4.477   6.198   3.925  0.9613  0.1860 -0.7893
   10CHTO  C111 3844   4.707   6.165   3.816 -0.0960 -0.5527 -0.4096
   10CHTO  H215 3845   4.653   6.101   3.744 -1.6037  1.3997 -1.0672
   10CHTO   N19 3846   4.669   6.303   3.788  0.3049  0.9645 -0.3811
   10CHTO  H207 3847   4.741   6.375   3.822  1.3863 -0.9727  1.5124
   10CHTO  H208 3848   4.578   6.326   3.842  2.1285  0.4963  3.0181
   10CHTO   O74 3849   4.698   5.968   4.133  0.4082  0.3524  0.0103
   10CHTO  C115 3850   4.565   5.879   4.148  0.6009 -0.7056 -0.8302
   10CHTO  H219 3851   4.481   5.928   4.100  0.9503 -0.8137 -1.5558
   10CHTO   O76 3852   4.590   5.724   4.071  0.2817 -0.1830  0.5628
   10CHTO  C122 3853   4.465   5.645   4.074  0.3983  0.0190  0.3515
   10CHTO  H226 3854   4.477   5.551   4.021  1.4202  0.9795 -1.1315
   10CHTO  C126 3855   4.349   5.714   3.999 -0.4109  0.3568  0.1142
   10CHTO   O85 3856   4.319   5.680   3.864 -0.8121 -0.0640  0.3061
   10CHTO  H206 3857   4.255   5.612   3.851 -0.8367  0.0864 -0.4087
   10CHTO  C121 3858   4.428   5.613   4.226  0.8214 -0.2550  0.4112
   10CHTO  H225 3859   4.327   5.566   4.227  1.3184 -1.3411  0.0046
   10CHTO   O81 3860   4.522   5.526   4.273  0.0069  0.1316  0.2441
   10CHTO  H202 3861   4.596   5.567   4.313  1.4377 -2.1566  0.0273
   10CHTO  C119 3862   4.411   5.753   4.309 -0.0031 -0.1716 -0.2413
   10CHTO  H223 3863   4.335   5.802   4.248  1.1348 -1.5015 -2.7867
   10CHTO  C117 3864   4.527   5.854   4.302 -0.2450 -0.1324 -0.2254
   10CHTO  H221 3865   4.615   5.827   4.360  0.1590  2.4165  0.4123
   10CHTO   N20 3866   4.478   5.984   4.364 -0.4209  0.1151 -0.0760
   10CHTO  H209 3867   4.417   5.962   4.451 -1.0628 -2.0598 -1.0542
   10CHTO  H210 3868   4.433   6.058   4.301 -0.4692 -1.0442 -1.4111
   10CHTO   O80 3869   4.339   5.738   4.459 -0.3148 -0.1168  0.5362
   10CHTO  C103 3870   4.192   5.640   4.479  0.2442 -0.3485 -0.1233
   10CHTO  H190 3871   4.161   5.596   4.384 -0.4152 -0.1930  0.0154
   10CHTO  C101 3872   4.196   5.525   4.583 -0.4460 -0.4026  0.1547
   10CHTO  H188 3873   4.235   5.567   4.676 -0.5889 -0.7411  0.3655
   10CHTO   O68 3874   4.299   5.434   4.525 -0.1193  0.4126  0.4071
   10CHTO  H168 3875   4.300   5.343   4.549 -1.5448  0.0182 -0.9314
   10CHTO   C99 3876   4.060   5.449   4.612  0.3611  0.9678 -0.2862
   10CHTO  H186 3877   4.031   5.403   4.515 -1.4983 -0.3018  0.8456
   10CHTO   N17 3878   4.057   5.342   4.714  0.6413 -0.0510  0.0124
   10CHTO  H174 3879   4.068   5.249   4.661  2.3384  1.3080 -2.1216
   10CHTO  H175 3880   4.133   5.346   4.791  1.1481 -0.0952 -0.4810
   10CHTO   C97 3881   3.948   5.558   4.637  0.2894  0.1655 -0.5301
   10CHTO  H184 3882   3.953   5.578   4.745  0.5279  0.1204 -0.5320
   10CHTO   O64 3883   3.959   5.675   4.558  0.7286  0.3018  0.0925
   10CHTO  C104 3884   4.077   5.739   4.516  0.4917  0.3372  0.0016
   10CHTO  H191 3885   4.106   5.800   4.602 -2.1104  1.3327  0.2036
   10CHTO  C108 3886   4.052   5.841   4.399  0.2347 -0.5781  0.1469
   10CHTO   O71 3887   3.941   5.929   4.416  0.0979 -0.1559 -0.3606
   10CHTO  H171 3888   3.880   5.890   4.475  0.1689  0.1146 -0.1097
   10CHTO   O62 3889   3.819   5.511   4.610 -0.2117  0.2113 -0.6890
   10CHTO   C91 3890   3.725   5.514   4.725 -0.1447  0.1494  0.4746
   10CHTO  H178 3891   3.762   5.541   4.824  0.1791 -0.3662  0.4920
   10CHTO   C92 3892   3.657   5.372   4.734  0.2552  0.2110 -0.2008
   10CHTO  H179 3893   3.608   5.350   4.637 -2.2367 -0.4067  1.1380
   10CHTO   O66 3894   3.755   5.275   4.757 -0.0660  0.6194 -0.1045
   10CHTO  H166 3895   3.806   5.257   4.681  0.8709  0.7883  0.4781
   10CHTO   C93 3896   3.535   5.371   4.840 -0.3274  0.7313 -0.0344
   10CHTO  H180 3897   3.580   5.383   4.939 -0.5066  0.8988  0.0284
   10CHTO   N16 3898   3.459   5.242   4.838 -0.2622  0.4829 -0.0577
   10CHTO  H172 3899   3.421   5.218   4.740  0.6866  2.0718 -0.8384
   10CHTO  H173 3900   3.521   5.162   4.875 -1.1705 -1.4056 -2.4358
   10CHTO   C94 3901   3.441   5.495   4.825  0.3900  0.0530  0.3191
   10CHTO  H181 3902   3.383   5.487   4.733 -1.0075 -0.4398  1.2277
   10CHTO   O61 3903   3.522   5.612   4.812 -0.0176  0.7191  0.0058
   10CHTO   C95 3904   3.611   5.619   4.703 -0.0048  0.1891 -0.6235
   10CHTO  H182 3905   3.552   5.600   4.613 -1.6813  0.5121  0.3791
   10CHTO  C106 3906   3.664   5.772   4.682 -0.1098 -0.5542 -0.0692
   10CHTO   O69 3907   3.570   5.865   4.644 -0.2253  0.1309  0.6142
   10CHTO  H169 3908   3.609   5.929   4.588  0.1884  1.9580  2.9159
   10CHTO   O63 3909   3.347   5.515   4.956 -0.0609 -0.1357  0.5316
   10CHTO   C96 3910   3.422   5.543   5.085 -0.7608 -0.2542 -0.6184
   10CHTO  H183 3911   3.531   5.544   5.072 -0.8831 -0.2841 -1.7435
   10CHTO   C98 3912   3.406   5.438   5.197  0.3358  0.1347  0.4134
   10CHTO  H185 3913   3.303   5.436   5.234  0.9703 -1.8485  2.1695
   10CHTO   O67 3914   3.431   5.307   5.140  0.2092 -0.3878  0.4021
   10CHTO  H167 3915   3.468   5.255   5.208 -3.0927  0.9363  3.3159
   10CHTO  C102 3916   3.501   5.477   5.321 -0.4610 -0.5983  0.4802
   10CHTO  H189 3917   3.603   5.491   5.282 -0.0931  1.1085  1.9826
   10CHTO   N18 3918   3.516   5.383   5.431 -0.5082  0.1570 -0.9154
   10CHTO  H176 3919   3.518   5.451   5.516 -2.5231 -1.6945  0.6724
   10CHTO  H177 3920   3.420   5.334   5.432  0.1567 -1.1454  1.0546
   10CHTO  C105 3921   3.457   5.617   5.361 -0.5528  0.4422 -0.0751
   10CHTO  H192 3922   3.358   5.608   5.407 -0.7320  0.6504 -0.4193
   10CHTO   O65 3923   3.453   5.713   5.252  0.3291  0.1568  0.5670
   10CHTO  C100 3924   3.374   5.676   5.143  0.2714  0.3715  0.1961
   10CHTO  H187 3925   3.273   5.665   5.186 -0.3070  0.3544 -1.1421
   10CHTO  C107 3926   3.382   5.792   5.052  0.1154 -0.7355 -0.3163
   10CHTO   O70 3927   3.264   5.796   4.974 -0.2299  0.3865  0.1787
   10CHTO  H170 3928   3.291   5.783   4.886  1.8513  1.0825  0.6660
   10CHTO   O57 3929   3.572   5.666   5.470 -0.1175 -0.2364  0.7192
   10CHTO   C85 3930   3.549   5.790   5.545 -0.0642 -0.1039  0.3944
   10CHTO  H157 3931   3.439   5.806   5.556  0.1014 -0.0163  1.9685
   10CHTO   C83 3932   3.595   5.909   5.453 -0.3870 -0.0261  0.5184
   10CHTO  H155 3933   3.531   5.919   5.366 -2.3943 -1.5916  1.7640
   10CHTO   O56 3934   3.719   5.868   5.389 -0.2544 -0.0274 -0.8567
   10CHTO  H135 3935   3.768   5.808   5.441 -1.4684  0.9176  1.4230
   10CHTO   C81 3936   3.601   6.040   5.530 -0.1793 -0.2328  0.7067
   10CHTO  H153 3937   3.505   6.056   5.580  0.1517  1.4721  0.8162
   10CHTO   N14 3938   3.622   6.163   5.445  1.0717  0.4625 -0.4065
   10CHTO  H141 3939   3.536   6.167   5.381  1.1914 -0.6259 -0.6534
   10CHTO  H142 3940   3.629   6.255   5.499 -2.3765  0.1509  0.6686
   10CHTO   C79 3941   3.699   6.022   5.652  0.7407  0.2432 -0.4504
   10CHTO  H151 3942   3.693   6.114   5.709  0.0879  0.0856 -0.2673
   10CHTO   O52 3943   3.645   5.924   5.749 -0.2882  0.1514 -0.0867
   10CHTO   C86 3944   3.616   5.791   5.685 -0.1387  0.6115  0.1334
   10CHTO  H158 3945   3.719   5.750   5.680 -0.9076 -1.4604  0.9012
   10CHTO   C90 3946   3.539   5.697   5.785  0.2996 -0.2896  0.5804
   10CHTO   O60 3947   3.414   5.753   5.806  0.2773  0.3349 -0.2532
   10CHTO  H138 3948   3.376   5.701   5.874 -0.8786  1.7114  0.1786
   10CHTO   O50 3949   3.840   5.998   5.627 -0.4047 -0.5859 -0.5654
   10CHTO   C73 3950   3.956   5.933   5.586 -0.1388 -0.4764 -0.1148
   10CHTO  H145 3951   3.945   5.889   5.486 -0.2522 -1.0229  0.1372
   10CHTO   C74 3952   4.004   5.821   5.685 -0.3281 -0.3405  0.0626
   10CHTO  H146 3953   3.921   5.749   5.687  0.5219 -1.3036  0.8959
   10CHTO   O54 3954   4.129   5.761   5.640 -0.1053 -0.0828  0.0498
   10CHTO  H133 3955   4.182   5.833   5.613 -3.0677  1.8746 -0.8151
   10CHTO   C75 3956   4.019   5.897   5.827  0.2545 -0.1100 -0.0359
   10CHTO  H147 3957   3.917   5.927   5.855 -0.5002  1.4641 -4.0579
   10CHTO   N13 3958   4.072   5.805   5.930  0.4034  0.1062  0.9271
   10CHTO  H139 3959   4.179   5.820   5.936  0.6371 -1.3457  0.6269
   10CHTO  H140 3960   4.043   5.830   6.031 -0.5239  1.3234  0.3666
   10CHTO   C76 3961   4.113   6.024   5.810 -1.2408 -0.2652  0.2153
   10CHTO  H148 3962   4.216   5.992   5.794 -1.4763  0.4122 -2.9004
   10CHTO   O49 3963   4.077   6.112   5.701  0.2987  0.4056 -0.3266
   10CHTO   C77 3964   4.064   6.044   5.578  0.3118 -0.0138  0.5875
   10CHTO  H149 3965   4.161   6.001   5.556 -1.3229 -3.4407 -0.3414
   10CHTO   C88 3966   4.047   6.141   5.458 -0.3769  0.1948  0.1015
   10CHTO   O58 3967   4.165   6.215   5.420  0.4503 -0.4543 -0.1844
   10CHTO  H136 3968   4.190   6.270   5.492 -0.0298  1.5614 -1.5182
   10CHTO   O51 3969   4.077   6.126   5.936  0.4351  0.0649  0.1303
   10CHTO   C78 3970   4.202   6.207   6.007  0.6356  0.4815  1.1109
   10CHTO  H150 3971   4.290   6.199   5.939  0.0995 -1.6655  0.6377
   10CHTO   C80 3972   4.240   6.163   6.146  0.3187 -0.5545 -0.2468
   10CHTO  H152 3973   4.153   6.179   6.212 -2.2489  0.3732 -3.7466
   10CHTO   O55 3974   4.254   6.021   6.163 -0.5331 -0.2705 -0.0951
   10CHTO  H134 3975   4.307   5.979   6.098  0.3056  1.8742 -0.8303
   10CHTO   C84 3976   4.353   6.240   6.223 -0.4900 -0.2243  0.2723
   10CHTO  H156 3977   4.451   6.213   6.184  0.6476  0.7851  2.3568
   10CHTO   N15 3978   4.376   6.209   6.367  0.2717 -0.6502 -0.3845
   10CHTO  H143 3979   4.344   6.294   6.422 -1.5139 -1.3827 -0.2749
   10CHTO  H144 3980   4.480   6.189   6.386  0.3509 -0.0192 -0.1595
   10CHTO   C87 3981   4.323   6.395   6.210  0.3437  1.3354  0.0688
   10CHTO  H159 3982   4.247   6.416   6.285  0.2556 -1.8221  0.9113
   10CHTO   O53 3983   4.286   6.439   6.065  0.0683 -0.2919  0.4196
   10CHTO   C82 3984   4.177   6.363   6.012 -0.2086  0.7356 -0.1188
   10CHTO  H154 3985   4.090   6.374   6.076 -0.6096 -2.0877 -0.1105
   10CHTO   C89 3986   4.137   6.409   5.870 -0.2447  1.2571  0.3099
   10CHTO   O59 3987   4.082   6.538   5.878  0.1069  0.2336  0.0712
   10CHTO  H137 3988   4.067   6.567   5.790 -0.3689  1.1354  0.4406
   10CHTO   O45 3989   4.470   6.492   6.225 -0.3514  0.1764  0.1056
   10CHTO   C67 3990   4.439   6.625   6.268  0.7113 -0.3837  0.6043
   10CHTO  H124 3991   4.332   6.631   6.286  0.4413  0.3440 -1.1691
   10CHTO   C65 3992   4.516   6.684   6.397 -0.2159 -0.7479 -0.0399
   10CHTO  H122 3993   4.503   6.612   6.477 -0.4185  0.9649  1.5059
   10CHTO   O44 3994   4.457   6.807   6.450  0.1110 -0.2137  0.2894
   10CHTO  H102 3995   4.510   6.849   6.514 -1.5865  1.7055  0.5219
   10CHTO   C63 3996   4.661   6.691   6.367 -0.0947 -0.0905  0.4424
   10CHTO  H120 3997   4.695   6.595   6.330  0.9163  0.6163 -0.5252
   10CHTO   N11 3998   4.765   6.725   6.467 -0.1461  0.2445 -0.0334
   10CHTO  H108 3999   4.817   6.815   6.438  0.0667  0.4252  0.8741
   10CHTO  H109 4000   4.831   6.647   6.499 -1.0546  0.0338  1.3828
   10CHTO   C61 4001   4.684   6.784   6.235  0.7101 -0.4848 -0.0095
   10CHTO  H118 4002   4.783   6.758   6.195  0.4061  1.0957 -1.8268
   10CHTO   O40 4003   4.585   6.765   6.123 -0.1601  0.5986 -0.1410
   10CHTO   C68 4004   4.452   6.708   6.136 -0.1709 -0.1492  0.5568
   10CHTO  H125 4005   4.443   6.641   6.049 -0.3303  2.0104 -1.1252
   10CHTO   C72 4006   4.347   6.823   6.113  0.2169 -0.0705 -0.1030
   10CHTO   O48 4007   4.214   6.769   6.100  0.0547 -0.4037 -0.4120
   10CHTO  H105 4008   4.184   6.736   6.182 -0.5420 -1.6906 -1.1359
   10CHTO   O38 4009   4.675   6.924   6.262  0.2631 -0.8775 -0.2175
   10CHTO   C55 4010   4.766   7.013   6.197  0.1277  0.4020 -0.4802
   10CHTO  H112 4011   4.793   6.965   6.102 -0.9406  0.4234 -0.7984
   10CHTO   C56 4012   4.896   7.047   6.284  0.0694  0.1606 -0.5005
   10CHTO  H113 4013   4.871   7.065   6.389  2.3842 -1.1850  0.3099
   10CHTO   O42 4014   4.991   6.940   6.280  0.0024 -0.1413  0.1044
   10CHTO  H100 4015   5.058   6.952   6.345 -0.8120 -1.1970  1.1586
   10CHTO   C57 4016   4.971   7.168   6.219 -0.3568 -0.0037 -0.0310
   10CHTO  H114 4017   5.031   7.123   6.140  0.3094  0.2924  0.3060
   10CHTO   N10 4018   5.070   7.224   6.313  0.2116 -0.0705  0.1209
   10CHTO  H106 4019   5.092   7.325   6.281  0.5228 -0.1571  0.0546
   10CHTO  H107 4020   5.160   7.163   6.308 -0.1216 -0.5367 -0.2595
   10CHTO   C58 4021   4.881   7.270   6.150 -0.2571 -0.3920 -0.9335
   10CHTO  H115 4022   4.839   7.330   6.234 -1.1684 -1.1959 -0.8069
   10CHTO   O37 4023   4.775   7.217   6.080  0.1323  0.1065 -0.1277
   10CHTO   C59 4024   4.682   7.142   6.155 -0.0634 -0.2723 -0.1807
   10CHTO  H116 4025   4.648   7.199   6.241 -0.7247 -1.5071  0.4004
   10CHTO   C70 4026   4.567   7.104   6.058 -0.0669  0.1088 -0.2948
   10CHTO   O46 4027   4.478   7.209   6.012 -0.4921  0.1666  0.0665
   10CHTO  H103 4028   4.401   7.166   5.981 -0.9682  1.8652 -1.1720
   10CHTO   O39 4029   4.967   7.358   6.052 -0.1085 -0.4224 -0.0235
   10CHTO   C60 4030   4.919   7.497   6.057 -0.8082 -0.6866 -0.0529
   10CHTO  H117 4031   4.824   7.503   6.111  0.7630 -1.9003  2.9802
   10CHTO   C62 4032   5.021   7.592   6.125 -0.0627 -0.1587 -0.1161
   10CHTO  H119 4033   5.049   7.557   6.227  0.8107  0.2426 -0.2176
   10CHTO   O43 4034   5.144   7.585   6.047 -0.1606  0.5269 -0.2549
   10CHTO  H101 4035   5.215   7.630   6.090  0.8146 -2.1931  1.0938
   10CHTO   C66 4036   4.956   7.741   6.135 -0.9008  0.2569  0.3345
   10CHTO  H123 4037   4.860   7.739   6.187 -0.9089  2.3234  0.4550
   10CHTO   N12 4038   5.039   7.841   6.208  0.0697  0.3435  0.0838
   10CHTO  H110 4039   4.999   7.940   6.196 -1.7403 -0.3521  0.2434
   10CHTO  H111 4040   5.146   7.830   6.192  0.4786  3.5018  0.3572
   10CHTO   C69 4041   4.921   7.790   5.988 -0.9012 -0.0366  0.7217
   10CHTO  H126 4042   5.015   7.804   5.930 -0.6446  1.3290  1.4229
   10CHTO   O41 4043   4.838   7.685   5.929  0.2313 -0.1994  0.3512
   10CHTO   C64 4044   4.895   7.548   5.915 -0.1190 -0.2138 -0.0711
   10CHTO  H121 4045   4.989   7.545   5.856  1.0110  0.4045  1.6345
   10CHTO   C71 4046   4.795   7.456   5.844 -1.0928  0.4578  0.7004
   10CHTO   O47 4047   4.674   7.439   5.912 -0.0590  0.3830  0.0579
   10CHTO  H104 4048   4.634   7.358   5.885  0.7924  0.3122 -1.0483
   10CHTO   O34 4049   4.823   7.928   5.996 -0.4641 -0.1581  0.0432
   10CHTO   C49 4050   4.867   8.068   5.961 -0.5107 -0.3576 -0.4046
   10CHTO   H91 4051   4.975   8.059   5.967 -0.7995 -4.0558  0.9949
   10CHTO   C47 4052   4.802   8.178   6.052  0.0495  0.3506  0.2676
   10CHTO   H89 4053   4.857   8.269   6.018  1.5027 -1.1748 -1.6095
   10CHTO   O33 4054   4.847   8.151   6.184  0.0613 -0.6880 -0.2705
   10CHTO   H70 4055   4.771   8.151   6.240 -0.1551  2.8157 -0.4556
   10CHTO   C45 4056   4.646   8.180   6.032 -0.3153 -0.4013 -0.0954
   10CHTO   H87 4057   4.608   8.077   6.037 -1.1802 -0.0889 -0.1768
   10CHTO    N8 4058   4.575   8.262   6.132  0.0091 -0.2624 -0.1218
   10CHTO   H75 4059   4.508   8.200   6.190  0.0467 -1.3467 -1.2151
   10CHTO   H76 4060   4.523   8.348   6.093  0.8400  0.2234 -0.1613
   10CHTO   C43 4061   4.617   8.215   5.878  0.4229  0.3655 -0.6816
   10CHTO   H85 4062   4.509   8.204   5.864  0.5604 -0.1024 -1.4069
   10CHTO   O29 4063   4.690   8.125   5.790 -0.0642  0.0508 -0.2926
   10CHTO   C50 4064   4.829   8.097   5.819 -0.4184  0.6253 -0.2981
   10CHTO   H92 4065   4.842   8.000   5.769 -2.2030  0.8880 -1.3050
   10CHTO   C54 4066   4.926   8.189   5.751  0.1546 -0.0423 -0.1151
   10CHTO   O36 4067   4.898   8.325   5.775  0.3004  0.0891  0.0371
   10CHTO   H72 4068   4.807   8.339   5.756  0.4378  0.5270 -0.3056
   10CHTO   O27 4069   4.625   8.357   5.845  0.0275 -0.2532 -0.0704
   10CHTO   C37 4070   4.614   8.476   5.766  0.7818  0.0108  0.7919
   10CHTO   H79 4071   4.696   8.484   5.692 -0.7255 -0.7274 -0.9983
   10CHTO   C38 4072   4.478   8.473   5.686 -0.5347  0.3357  0.5061
   10CHTO   H80 4073   4.394   8.490   5.755 -2.7630 -1.1865 -1.7545
   10CHTO   O31 4074   4.465   8.345   5.628  0.3849 -0.1577 -0.0564
   10CHTO   H68 4075   4.510   8.339   5.545  3.3174 -1.2344  1.5316
   10CHTO   C39 4076   4.476   8.596   5.589  1.2496  0.3462  0.0906
   10CHTO   H81 4077   4.556   8.595   5.514  1.8321  1.4075  0.6886
   10CHTO    N7 4078   4.345   8.607   5.510  0.6812  0.1562  0.5644
   10CHTO   H73 4079   4.266   8.607   5.583 -1.6537  0.1420 -1.8929
   10CHTO   H74 4080   4.336   8.698   5.453 -1.1392 -1.1052 -1.2282
   10CHTO   C40 4081   4.496   8.728   5.670  0.2370 -0.4793 -0.6906
   10CHTO   H82 4082   4.404   8.760   5.717  1.0935  1.7829 -0.4903
   10CHTO   O26 4083   4.602   8.721   5.760  0.6300 -0.8474 -0.3845
   10CHTO   C41 4084   4.612   8.603   5.850 -0.5385 -0.1009 -0.6602
   10CHTO   H83 4085   4.528   8.604   5.920 -1.2453  2.5253 -1.5066
   10CHTO   C52 4086   4.743   8.597   5.931 -0.5254 -0.3933  0.1690
   10CHTO   O35 4087   4.774   8.737   5.982 -0.0706  0.4711 -0.2316
   10CHTO   H71 4088   4.792   8.793   5.909 -2.6356 -0.8034 -1.9184
   10CHTO   O28 4089   4.544   8.834   5.586  0.0418  0.0531  0.5137
   10CHTO   C42 4090   4.503   8.974   5.557 -0.1504 -0.2292  0.0680
   10CHTO   H84 4091   4.413   8.986   5.617  0.1565 -0.8690  0.6649
   10CHTO   C44 4092   4.459   8.994   5.408 -0.1616 -0.0325 -0.1938
   10CHTO   H86 4093   4.543   8.962   5.346 -0.3540  0.6032 -0.7902
   10CHTO   O32 4094   4.346   8.903   5.405  0.3172 -0.5670 -0.3801
   10CHTO   H69 4095   4.377   8.814   5.399 -0.5156 -1.0531  2.0502
   10CHTO   C48 4096   4.412   9.140   5.375  0.1295 -0.1909  0.5009
   10CHTO   H90 4097   4.321   9.162   5.431 -0.6820 -1.5378 -0.2765
   10CHTO    N9 4098   4.380   9.162   5.232  0.0472  0.0287 -0.7938
   10CHTO   H77 4099   4.433   9.086   5.176 -0.2571 -1.3096  0.7067
   10CHTO   H78 4100   4.274   9.153   5.215 -0.0040 -0.8783  0.0105
   10CHTO   C51 4101   4.529   9.237   5.425 -0.3583 -0.8112 -0.1021
   10CHTO   H93 4102   4.622   9.216   5.371 -0.5882  2.3163 -1.8364
   10CHTO   O30 4103   4.547   9.217   5.565  0.1709  0.6232 -0.0442
   10CHTO   C46 4104   4.602   9.076   5.603 -0.5209 -0.2356  0.3560
   10CHTO   H88 4105   4.696   9.060   5.549  0.2638  1.7537  1.1080
   10CHTO   C53 4106   4.622   9.077   5.753  0.4453 -1.0308  0.1996
   10CHTO   O72 4107   4.754   9.120   5.770  0.5021  0.0589  0.0426
   10CHTO  H199 4108   4.779   9.100   5.859 -1.4025  0.7079  0.7545
   10CHTO   O22 4109   4.495   9.373   5.425  0.3030  0.2159  0.0854
   10CHTO   C31 4110   4.591   9.489   5.420  0.0470  1.0340 -0.3263
   10CHTO   H59 4111   4.528   9.576   5.451 -2.0548 -1.0610  1.4289
   10CHTO   C29 4112   4.706   9.485   5.522  1.2915 -0.6232 -0.0525
   10CHTO   H57 4113   4.764   9.394   5.502  1.2903 -0.1430 -2.4193
   10CHTO   O21 4114   4.655   9.481   5.659 -0.2855 -0.2306  0.4471
   10CHTO   H37 4115   4.715   9.439   5.718  2.2313  2.5373 -0.0119
   10CHTO   C27 4116   4.801   9.609   5.507  1.1745  0.0906  0.6625
   10CHTO   H55 4117   4.744   9.695   5.545  1.4635 -0.2821  1.9800
   10CHTO    N5 4118   4.923   9.599   5.579 -0.2575  0.0443  0.0240
   10CHTO   H43 4119   4.921   9.567   5.682 -1.6022  0.3118  0.0904
   10CHTO   H44 4120   5.000   9.671   5.558 -0.3922 -0.0693 -0.8831
   10CHTO   C25 4121   4.829   9.641   5.348 -0.2084 -0.2026 -0.9835
   10CHTO   H53 4122   4.880   9.554   5.304 -0.1317  0.1445 -1.5975
   10CHTO   O17 4123   4.702   9.655   5.272 -0.9210  0.1095  0.2274
   10CHTO   C32 4124   4.638   9.523   5.274  0.1255 -0.1382  0.1230
   10CHTO   H60 4125   4.696   9.438   5.238 -0.4453 -1.1139  1.4856
   10CHTO   C36 4126   4.525   9.546   5.174  0.0175 -0.1292  0.1826
   10CHTO   O25 4127   4.437   9.666   5.206 -0.1124  0.6348  0.4197
   10CHTO   H40 4128   4.480   9.731   5.259  0.9906 -0.0548  0.3799
   10CHTO   O15 4129   4.912   9.769   5.319  0.3578  0.0123  0.0745
   10CHTO   C19 4130   4.971   9.895   5.264  0.3028 -0.1440 -0.6783
   10CHTO   H47 4131   4.977   9.892   5.155  2.5949 -0.7065 -0.5618
   10CHTO   C20 4132   4.889  10.022   5.300  1.3466  0.3416 -0.3840
   10CHTO   H48 4133   4.868  10.023   5.408  0.6196 -1.4780 -0.4865
   10CHTO   O19 4134   4.763  10.007   5.239  0.0879  0.7497  0.0431
   10CHTO   H35 4135   4.693  10.053   5.282 -1.8998 -1.3228 -0.8529
   10CHTO   C21 4136   4.961  10.157   5.257  0.3438 -0.8031 -0.0722
   10CHTO   H49 4137   4.948  10.174   5.150 -0.0436 -1.6250 -0.1649
   10CHTO    N4 4138   4.899  10.282   5.317 -0.6521 -0.6370  0.5932
   10CHTO   H41 4139   4.983  10.347   5.338 -0.8906 -0.3107  0.5364
   10CHTO   H42 4140   4.844  10.281   5.409 -1.7792  0.3695 -0.0431
   10CHTO   C22 4141   5.115  10.153   5.282  0.1696 -0.4166  0.7288
   10CHTO   H50 4142   5.133  10.163   5.389  3.2051  0.1761  0.2014
   10CHTO   O14 4143   5.178  10.027   5.250 -0.1467  0.1026 -0.8423
   10CHTO   C23 4144   5.122   9.914   5.311  0.5319  0.3578 -0.1624
   10CHTO   H51 4145   5.131   9.935   5.419  0.1255  0.4622 -0.1483
   10CHTO   C34 4146   5.205   9.792   5.265  0.4773 -0.2280  0.4048
   10CHTO   O23 4147   5.344   9.836   5.274  0.2951  0.7705 -0.0073
   10CHTO   H38 4148   5.392   9.796   5.203  0.3292 -1.6400  1.3149
   10CHTO   O16 4149   5.177  10.256   5.205 -0.4608  0.5616 -0.4984
   10CHTO   C24 4150   5.343  10.253   5.219 -0.2160  0.2226 -0.1975
   10CHTO   H52 4151   5.379  10.171   5.282 -1.2579  0.3052  0.5159
   10CHTO   C26 4152   5.385  10.390   5.283 -0.0246  0.4947 -0.2884
   10CHTO   H54 4153   5.352  10.471   5.215  1.2773 -0.2924 -1.9103
   10CHTO   O20 4154   5.321  10.382   5.412  0.1823 -0.3185  0.3384
   10CHTO   H36 4155   5.306  10.468   5.447 -2.1044 -0.4314 -0.2889
   10CHTO   C30 4156   5.543  10.395   5.294  0.6053 -0.0818  0.0528
   10CHTO   H58 4157   5.585  10.317   5.359 -0.4167 -0.9814 -0.3524
   10CHTO    N6 4158   5.586  10.520   5.355 -0.3832 -0.1552 -0.2086
   10CHTO   H45 4159   5.690  10.549   5.349 -0.6599  0.7708 -0.5166
   10CHTO   H46 4160   5.524  10.601   5.321 -0.3538 -0.3316 -0.6856
   10CHTO   C33 4161   5.601  10.368   5.150 -0.0718  0.0594 -0.5612
   10CHTO   H61 4162   5.566  10.447   5.081  0.0335  2.7598  2.3508
   10CHTO   O18 4163   5.556  10.242   5.096  0.9229  0.6876  0.1088
   10CHTO   C28 4164   5.414  10.233   5.079 -0.0324  0.0104  0.1611
   10CHTO   H56 4165   5.383  10.309   5.007 -0.2581  0.8819  1.1701
   10CHTO   C35 4166   5.389  10.092   5.017  0.3360 -0.3778  0.7645
   10CHTO   O24 4167   5.255  10.087   4.972 -0.2658 -0.0355  0.1586
   10CHTO   H39 4168   5.236  10.135   4.894  0.6643 -1.1027 -0.7629
   10CHTO    O9 4169   5.739  10.377   5.143 -0.2228  0.2943  0.2372
   10CHTO   C13 4170   5.814  10.350   5.007 -0.0208 -0.2236 -0.2054
   10CHTO   H26 4171   5.736  10.356   4.929 -2.4093 -1.7491  2.0125
   10CHTO   C11 4172   5.874  10.207   5.020 -0.6068  0.0400 -0.2774
   10CHTO   H24 4173   5.788  10.138   5.021  1.2641 -2.4063  2.6379
   10CHTO    O8 4174   5.953  10.202   5.142  0.0214  0.2550  0.2506
   10CHTO    H3 4175   6.013  10.273   5.129 -0.1742  1.1783  3.8992
   10CHTO    C9 4176   5.965  10.179   4.898 -0.5658 -0.7759 -0.3820
   10CHTO   H22 4177   5.897  10.187   4.812 -0.7394 -2.2885 -0.3835
   10CHTO    N2 4178   6.000  10.042   4.887 -0.4590  0.2376  0.1162
   10CHTO   H10 4179   6.033   9.999   4.980 -0.3510 -1.5438 -0.7071
   10CHTO   H11 4180   6.084  10.029   4.820  0.0365  0.1582  0.7495
   10CHTO    C7 4181   6.080  10.281   4.896  0.0532 -0.2364  0.1795
   10CHTO   H20 4182   6.080  10.315   4.791  0.2564 -0.6104  0.0590
   10CHTO    O4 4183   6.059  10.393   4.984 -0.0196  0.1833  0.6387
   10CHTO   C14 4184   5.927  10.448   4.967  0.0013  0.0315 -0.5671
   10CHTO   H27 4185   5.929  10.471   4.858 -0.9592  0.0631 -0.5798
   10CHTO   C18 4186   5.923  10.578   5.034  0.1987  0.1364 -0.4704
   10CHTO   O13 4187   5.931  10.579   5.176 -0.0683 -0.0666  0.2350
   10CHTO    H7 4188   5.856  10.602   5.227 -1.9469 -4.1198 -0.5599
   10CHTO    O2 4189   6.247  10.211   4.936 -0.0045  0.8023  0.1952
   10CHTO    C1 4190   6.338  10.316   4.989  0.5370  0.9046  0.2363
   10CHTO   H14 4191   6.280  10.391   5.045 -1.7018 -0.3423 -0.3649
   10CHTO    C2 4192   6.420  10.394   4.879 -0.3657  0.0689 -0.0532
   10CHTO   H15 4193   6.463  10.310   4.824 -1.6744 -1.0264  0.5670
   10CHTO    O6 4194   6.324  10.478   4.810  0.3627  0.1249 -0.1694
   10CHTO    H1 4195   6.313  10.443   4.724  0.6796  0.0429 -0.1762
   10CHTO    C3 4196   6.538  10.485   4.947  0.5011  0.1013  0.3792
   10CHTO   H16 4197   6.493  10.577   4.987  0.3932  0.5751 -0.8117
   10CHTO    N1 4198   6.628  10.542   4.835 -0.7411 -0.3190  0.4001
   10CHTO    H8 4199   6.663  10.472   4.761  1.9133  1.8795 -0.5288
   10CHTO    H9 4200   6.582  10.627   4.786  0.8463  0.1197 -0.3517
   10CHTO    C4 4201   6.610  10.409   5.063 -0.5173 -0.7606 -0.1567
   10CHTO   H17 4202   6.682  10.339   5.021  1.2112 -0.2986  1.9474
   10CHTO    O1 4203   6.516  10.345   5.145 -0.0724 -0.5113 -0.4906
   10CHTO    C5 4204   6.437  10.245   5.082  0.3207 -0.1883 -0.0180
   10CHTO   H18 4205   6.493  10.173   5.023  0.6686  0.1100 -0.0572
   10CHTO   C16 4206   6.369  10.172   5.203  0.1187 -0.3072 -0.5062
   10CHTO   O11 4207   6.264  10.076   5.177 -0.1407  0.1151 -0.1233
   10CHTO    H5 4208   6.237  10.068   5.088  0.5118 -1.1004 -0.2258
   10CHTO    O3 4209   6.670  10.505   5.159  0.2208  0.3042 -0.4469
   10CHTO    C6 4210   6.817  10.503   5.168  0.1736  0.2414  0.4395
   10CHTO   H19 4211   6.873  10.437   5.102 -1.0772  0.0547 -0.4494
   10CHTO    C8 4212   6.883  10.644   5.154 -0.0245  0.1869 -0.7062
   10CHTO   H21 4213   6.842  10.711   5.228  0.1466  1.1517 -1.4744
   10CHTO    O7 4214   6.847  10.685   5.023 -0.2128 -0.3026 -0.2527
   10CHTO    H2 4215   6.753  10.690   5.022 -0.1114  2.2536 -0.4059
   10CHTO   C12 4216   7.040  10.622   5.175 -0.2538 -0.3305  0.0948
   10CHTO   H25 4217   7.076  10.556   5.093  0.5863  0.6875 -0.3767
   10CHTO    N3 4218   7.109  10.757   5.162  0.3718 -0.0188  0.1223
   10CHTO   H12 4219   7.050  10.832   5.111  2.4004  1.8036  0.3933
   10CHTO   H13 4220   7.138  10.791   5.261 -0.5271  0.2084  0.3187
   10CHTO   C15 4221   7.061  10.546   5.313 -0.3906  0.1324 -0.8888
   10CHTO   H28 4222   7.047  10.612   5.398  2.8237 -0.3841  0.0760
   10CHTO   O10 4223   7.225  10.493   5.335 -0.2380 -0.0351  0.2238
   10CHTO    H4 4224   7.285  10.565   5.329 -0.8990  0.4504 -0.7902
   10CHTO    O5 4225   6.984  10.423   5.338  0.6849  0.1190 -0.2354
   10CHTO   C10 4226   6.843  10.445   5.315 -0.4678 -0.5747 -0.1973
   10CHTO   H23 4227   6.817  10.512   5.396  1.8101 -0.6291  0.5976
   10CHTO   C17 4228   6.786  10.301   5.345 -0.0994 -0.4538 -0.0194
   10CHTO   O12 4229   6.830  10.195   5.261  0.5532  0.2039  0.1888
   10CHTO    H6 4230   6.767  10.178   5.193  2.2080 -0.5061 -1.2222
   11CHTO  H203 4231   6.733   4.596   4.543 -2.1720 -0.9246 -1.7100
   11CHTO   O82 4232   6.684   4.675   4.528 -0.7515  0.2055 -0.5980
   11CHTO  C123 4233   6.541   4.641   4.525 -0.2796  0.0136  0.5256
   11CHTO  H227 4234   6.520   4.562   4.452  0.6911  0.3866 -0.1578
   11CHTO   O77 4235   6.520   4.600   4.661 -0.1877  0.9217  0.0229
   11CHTO  C118 4236   6.381   4.570   4.688  0.6674  0.3869 -0.3016
   11CHTO  H222 4237   6.345   4.505   4.606  2.5584  0.6808 -1.3887
   11CHTO  C125 4238   6.373   4.491   4.828 -0.5135 -0.2253 -0.2445
   11CHTO   O84 4239   6.400   4.573   4.942 -0.2272 -0.6863 -0.0628
   11CHTO  H205 4240   6.347   4.539   5.011 -0.6296 -0.8551 -0.4555
   11CHTO  C114 4241   6.300   4.698   4.686  0.7566 -0.4662 -0.2428
   11CHTO  H218 4242   6.346   4.772   4.751 -0.5825 -0.8491  1.1576
   11CHTO  C116 4243   6.301   4.749   4.544 -0.2886 -0.2833 -0.0612
   11CHTO  H220 4244   6.267   4.668   4.476 -1.7859  1.7357 -1.8161
   11CHTO   O79 4245   6.222   4.866   4.532  0.2195  0.5882  0.1936
   11CHTO  H201 4246   6.224   4.910   4.450 -1.5737  3.0170  1.3661
   11CHTO  C120 4247   6.457   4.770   4.505  0.0563  0.2466  0.4799
   11CHTO  H224 4248   6.482   4.848   4.580 -2.1533  0.2993  1.2086
   11CHTO   N21 4249   6.471   4.810   4.360  0.0241 -0.2692 -0.4504
   11CHTO  H211 4250   6.512   4.910   4.361 -0.8499  0.1144 -1.8698
   11CHTO  H212 4251   6.373   4.805   4.315  0.2748  1.5382 -1.2605
   11CHTO   O75 4252   6.168   4.654   4.729  0.2197 -0.0952 -0.0339
   11CHTO  C112 4253   6.122   4.749   4.857 -0.7952 -0.3876 -0.2778
   11CHTO  H216 4254   6.189   4.834   4.876 -1.7675  0.1354  0.9164
   11CHTO   O73 4255   6.123   4.661   4.969  0.4927 -0.1939  0.2427
   11CHTO  C113 4256   6.098   4.734   5.091 -0.0633 -0.3560 -0.3358
   11CHTO  H217 4257   6.174   4.813   5.104  0.5246 -1.0459  0.5225
   11CHTO  C124 4258   6.112   4.638   5.211 -0.1045 -0.2518  0.8091
   11CHTO   O83 4259   6.238   4.567   5.219  0.2944 -0.0042  0.1441
   11CHTO  H204 4260   6.230   4.507   5.147 -0.1883 -2.1369  1.9116
   11CHTO  C109 4261   5.962   4.793   5.104 -0.5569 -0.0332  0.5967
   11CHTO  H213 4262   5.892   4.708   5.113 -0.5809 -0.0471  0.2859
   11CHTO  C110 4263   5.923   4.873   4.981 -0.1193 -0.1107  0.9283
   11CHTO  H214 4264   5.961   4.974   4.994  2.2394 -0.7882 -0.3835
   11CHTO   O78 4265   5.778   4.897   4.990  0.4576 -0.0380 -0.4588
   11CHTO  H200 4266   5.751   4.931   5.073 -0.1116  0.6094 -0.9080
   11CHTO  C111 4267   5.973   4.808   4.850 -0.5269  0.2426  0.2817
   11CHTO  H215 4268   5.909   4.719   4.836  1.2306 -1.2546  1.5198
   11CHTO   N19 4269   5.951   4.902   4.737 -0.1575 -0.3127 -0.6587
   11CHTO  H207 4270   5.847   4.890   4.708 -0.2368  0.1591 -0.5708
   11CHTO  H208 4271   5.944   5.003   4.774 -0.0078 -1.1675  1.8111
   11CHTO   O74 4272   5.949   4.880   5.228 -0.5012 -0.2318 -0.4566
   11CHTO  C115 4273   5.810   4.869   5.298  0.1715 -0.0778 -0.5891
   11CHTO  H219 4274   5.728   4.850   5.229  1.5343  0.3929 -2.3745
   11CHTO   O76 4275   5.812   4.741   5.404 -0.2355 -0.0497 -0.7752
   11CHTO  C122 4276   5.686   4.728   5.477 -0.2739  0.4947  0.0916
   11CHTO  H226 4277   5.698   4.662   5.562 -0.4495 -1.7275 -1.5598
   11CHTO  C126 4278   5.574   4.662   5.384 -0.2355  0.0067  0.3591
   11CHTO   O85 4279   5.606   4.532   5.340  0.0159  0.1202 -0.0415
   11CHTO  H206 4280   5.527   4.501   5.299 -0.8399  0.7827  1.0920
   11CHTO  C121 4281   5.640   4.861   5.547  0.4179  0.4574  0.3228
   11CHTO  H225 4282   5.537   4.839   5.581  0.4113  0.5464  0.3603
   11CHTO   O81 4283   5.719   4.892   5.665  0.1540  0.6846  0.7020
   11CHTO  H202 4284   5.809   4.916   5.654  0.3359  1.7815  3.9551
   11CHTO  C119 4285   5.642   4.983   5.457  0.0869  0.8704  0.5286
   11CHTO  H223 4286   5.568   4.959   5.381  0.3784 -0.4977  0.6699
   11CHTO  C117 4287   5.779   5.004   5.382  0.3542  0.1226 -0.1236
   11CHTO  H221 4288   5.866   5.017   5.447 -0.8666 -0.6556  1.7081
   11CHTO   N20 4289   5.773   5.118   5.283 -0.6175 -0.1104  0.2014
   11CHTO  H209 4290   5.800   5.210   5.332  0.8182 -1.1515  1.3939
   11CHTO  H210 4291   5.681   5.121   5.226 -0.8169 -0.1503  0.5184
   11CHTO   O80 4292   5.570   5.118   5.531 -0.1763  0.5866  0.0063
   11CHTO  C103 4293   5.627   5.178   5.668 -0.0407 -0.3317 -0.1926
   11CHTO  H190 4294   5.615   5.101   5.745  0.9505 -0.0426  0.2561
   11CHTO  C101 4295   5.775   5.231   5.653  0.0840  0.0254 -0.1682
   11CHTO  H188 4296   5.785   5.264   5.549 -2.0273  1.9453  0.1991
   11CHTO   O68 4297   5.882   5.112   5.672  0.2376 -0.2724  0.2394
   11CHTO  H168 4298   5.954   5.143   5.621  0.7474  0.5573  1.4184
   11CHTO   C99 4299   5.814   5.343   5.764  0.2612  0.1761 -0.7571
   11CHTO  H186 4300   5.821   5.297   5.865  0.4274  0.5147 -0.6144
   11CHTO   N17 4301   5.945   5.403   5.728  0.3270 -0.7233  0.3959
   11CHTO  H174 4302   6.021   5.332   5.758 -0.2814 -1.2555  0.6939
   11CHTO  H175 4303   5.951   5.419   5.622  1.4171  0.4619  0.6234
   11CHTO   C97 4304   5.698   5.448   5.781 -0.1014  0.5749 -0.0291
   11CHTO  H184 4305   5.694   5.504   5.687  2.5744  0.8656 -0.0061
   11CHTO   O64 4306   5.577   5.374   5.814 -0.1262  0.1211 -0.0807
   11CHTO  C104 4307   5.530   5.294   5.703 -0.8245  0.7404  0.0600
   11CHTO  H191 4308   5.525   5.360   5.616  0.3316 -0.3180 -0.8401
   11CHTO  C108 4309   5.381   5.264   5.729 -0.2109  0.1353  0.1879
   11CHTO   O71 4310   5.360   5.187   5.845  0.2163 -0.0040 -0.0758
   11CHTO  H171 4311   5.280   5.208   5.889  0.0571 -3.2878  1.2992
   11CHTO   O62 4312   5.714   5.536   5.895 -0.0326 -0.2826  0.1886
   11CHTO   C91 4313   5.671   5.674   5.895  0.8143  0.2071  0.2845
   11CHTO  H178 4314   5.591   5.677   5.821  0.4983  1.2314  0.6491
   11CHTO   C92 4315   5.793   5.758   5.828 -0.2122  0.2172 -0.3856
   11CHTO  H179 4316   5.886   5.708   5.857  0.1753  1.1649  0.0514
   11CHTO   O66 4317   5.795   5.744   5.682  0.7682  0.4216 -0.5489
   11CHTO  H166 4318   5.782   5.653   5.665  0.9041  0.1094  0.8998
   11CHTO   C93 4319   5.798   5.910   5.866 -0.2095 -0.1937 -0.1304
   11CHTO  H180 4320   5.720   5.961   5.808  0.2381  1.9114  1.0538
   11CHTO   N16 4321   5.927   5.976   5.820  0.0751  0.3740  0.7030
   11CHTO  H172 4322   5.925   5.973   5.712 -2.3089  0.2485  0.7204
   11CHTO  H173 4323   6.004   5.911   5.859 -0.4727 -0.2784  0.6941
   11CHTO   C94 4324   5.774   5.930   6.016  0.2652 -0.3719 -0.6002
   11CHTO  H181 4325   5.847   5.873   6.074  0.0626  1.2052  1.2441
   11CHTO   O61 4326   5.641   5.884   6.042  0.4245  0.0224 -0.5469
   11CHTO   C95 4327   5.625   5.742   6.028 -0.7117  0.3069 -0.6435
   11CHTO  H182 4328   5.683   5.696   6.108 -0.9772  0.9905 -0.0611
   11CHTO  C106 4329   5.474   5.716   6.057  0.7269  0.8178 -0.7067
   11CHTO   O69 4330   5.448   5.576   6.078 -0.2331 -0.3461  0.2404
   11CHTO  H169 4331   5.358   5.565   6.101 -0.6300  0.2619 -1.0091
   11CHTO   O63 4332   5.777   6.087   6.057  0.1379 -0.3676 -0.0760
   11CHTO   C96 4333   5.800   6.101   6.218 -0.3327  0.3042  0.5550
   11CHTO  H183 4334   5.831   6.002   6.253 -2.0512  0.0469  1.4231
   11CHTO   C98 4335   5.678   6.152   6.301  0.3803  0.4658  0.0773
   11CHTO  H185 4336   5.634   6.242   6.255  0.9567 -0.5651 -2.6004
   11CHTO   O67 4337   5.577   6.050   6.288  0.0195  0.1473  0.3645
   11CHTO  H167 4338   5.621   5.969   6.274  2.6998  1.9720 -2.3365
   11CHTO  C102 4339   5.719   6.175   6.459 -0.0681  0.4168  0.0023
   11CHTO  H189 4340   5.752   6.077   6.497  1.6550  0.9738 -0.0032
   11CHTO   N18 4341   5.609   6.212   6.549  0.0395 -0.1218  0.5273
   11CHTO  H176 4342   5.565   6.307   6.523 -2.5095 -0.3536  3.6438
   11CHTO  H177 4343   5.540   6.128   6.552  2.0136 -1.7579  1.6080
   11CHTO  C105 4344   5.839   6.274   6.458  0.1818 -0.3125 -1.0413
   11CHTO  H192 4345   5.806   6.372   6.422  1.1270  0.1235 -0.7420
   11CHTO   O65 4346   5.938   6.209   6.379  0.6562 -0.5765 -0.4860
   11CHTO  C100 4347   5.922   6.198   6.242  0.3879 -0.2803  0.2934
   11CHTO  H187 4348   5.896   6.292   6.191  2.5466 -0.1868 -0.6837
   11CHTO  C107 4349   6.057   6.151   6.170  0.3859  0.0452 -0.0177
   11CHTO   O70 4350   6.101   6.016   6.206  0.4801 -0.3962 -0.1016
   11CHTO  H170 4351   6.098   6.006   6.300  1.3735  0.3898  0.0201
   11CHTO   O57 4352   5.892   6.285   6.620 -0.0458 -0.4751 -0.1341
   11CHTO   C85 4353   6.008   6.360   6.653  0.5582 -0.0129 -0.0408
   11CHTO  H157 4354   6.021   6.358   6.763  1.6589  1.6875 -0.1323
   11CHTO   C83 4355   5.977   6.512   6.633  0.2148  0.4951  0.5591
   11CHTO  H155 4356   5.891   6.539   6.695 -1.2009 -4.2231  0.8360
   11CHTO   O56 4357   5.936   6.542   6.502  0.4693 -0.3582  0.0958
   11CHTO  H135 4358   5.876   6.613   6.516 -1.2589 -1.6783 -0.4270
   11CHTO   C81 4359   6.109   6.594   6.677 -0.1752 -0.2820  0.4560
   11CHTO  H153 4360   6.129   6.578   6.783 -0.6257  0.7214  0.7043
   11CHTO   N14 4361   6.096   6.743   6.673 -0.2128  0.1273  0.0914
   11CHTO  H141 4362   6.065   6.782   6.767  1.5321 -1.0622  1.2017
   11CHTO  H142 4363   6.029   6.775   6.596  0.6409  2.9119  0.4361
   11CHTO   C79 4364   6.235   6.549   6.596  0.3570 -0.1939 -0.1623
   11CHTO  H151 4365   6.317   6.606   6.639  0.4378  1.2458 -2.1684
   11CHTO   O52 4366   6.258   6.407   6.612  0.2066 -0.2985 -0.3664
   11CHTO   C86 4367   6.142   6.317   6.577 -0.5938  0.8640  0.7972
   11CHTO  H158 4368   6.135   6.331   6.467  0.4947  0.2820  0.6526
   11CHTO   C90 4369   6.184   6.169   6.604 -0.0199 -0.1870 -0.3144
   11CHTO   O60 4370   6.088   6.080   6.547  0.0354 -0.1808  0.3010
   11CHTO  H138 4371   6.004   6.096   6.586 -0.4989  0.1126 -0.9619
   11CHTO   O50 4372   6.232   6.585   6.456 -0.5666  0.1481  0.0857
   11CHTO   C73 4373   6.316   6.644   6.355 -0.2272  0.4199  0.2383
   11CHTO  H145 4374   6.326   6.752   6.377  2.2220  0.5562 -1.3592
   11CHTO   C74 4375   6.253   6.629   6.206 -0.5595 -0.2090 -0.0718
   11CHTO  H146 4376   6.153   6.675   6.197  0.2563  1.2611 -2.0507
   11CHTO   O54 4377   6.332   6.716   6.124  0.0363 -0.1711 -0.5469
   11CHTO  H133 4378   6.425   6.705   6.135 -0.1607 -2.5577 -0.9111
   11CHTO   C75 4379   6.257   6.482   6.159  0.7053  0.2598 -0.1897
   11CHTO  H147 4380   6.193   6.422   6.224 -1.3580  2.6006 -0.0024
   11CHTO   N13 4381   6.200   6.461   6.020 -0.9047  0.4002  0.9791
   11CHTO  H139 4382   6.220   6.548   5.959 -1.5929  0.5814  1.0073
   11CHTO  H140 4383   6.093   6.452   6.029 -0.8063 -1.7633  0.1040
   11CHTO   C76 4384   6.406   6.414   6.164 -0.6908 -0.5032  0.1446
   11CHTO  H148 4385   6.464   6.452   6.080 -0.0494 -0.3571  0.6601
   11CHTO   O49 4386   6.459   6.451   6.296  0.2020  0.3794  0.5805
   11CHTO   C77 4387   6.457   6.583   6.352 -1.0162  0.4320  0.4568
   11CHTO  H149 4388   6.519   6.651   6.293  0.5844  0.7195  2.4266
   11CHTO   C88 4389   6.524   6.568   6.485 -0.2068 -0.0899 -0.3632
   11CHTO   O58 4390   6.535   6.709   6.563  0.0984 -0.2530  1.1997
   11CHTO  H136 4391   6.563   6.695   6.651  3.4656 -0.3147  0.1782
   11CHTO   O51 4392   6.390   6.263   6.168  0.0838 -0.5071 -0.2476
   11CHTO   C78 4393   6.509   6.158   6.103  0.0419  0.6936 -0.8706
   11CHTO  H150 4394   6.595   6.213   6.059  0.1585  1.1264 -0.1071
   11CHTO   C80 4395   6.442   6.068   5.996 -0.7162 -0.3507 -0.6936
   11CHTO  H152 4396   6.354   6.018   6.042  0.1777 -0.7432  0.6291
   11CHTO   O55 4397   6.403   6.155   5.891  0.5709 -0.0471 -0.1462
   11CHTO  H134 4398   6.359   6.101   5.829 -0.1794 -0.4470  0.7317
   11CHTO   C84 4399   6.550   5.968   5.939 -0.6982 -0.5165 -0.1684
   11CHTO  H156 4400   6.632   6.023   5.894  0.8198 -2.2852  0.3589
   11CHTO   N15 4401   6.504   5.873   5.832  0.6892 -0.0797  0.8258
   11CHTO  H143 4402   6.405   5.849   5.864  0.0368  1.2111 -0.1762
   11CHTO  H144 4403   6.504   5.918   5.735  1.3965 -0.8749  0.4545
   11CHTO   C87 4404   6.615   5.889   6.056 -0.0374 -0.1909  1.1911
   11CHTO  H159 4405   6.546   5.814   6.094 -2.1505  0.8676 -0.4382
   11CHTO   O53 4406   6.657   5.985   6.169 -0.0372  0.4068 -0.2884
   11CHTO   C82 4407   6.554   6.070   6.221  0.1173  0.0988 -0.7513
   11CHTO  H154 4408   6.469   6.011   6.256 -0.8557  1.1649 -1.2729
   11CHTO   C89 4409   6.606   6.143   6.345  0.3816  0.0926  0.0167
   11CHTO   O59 4410   6.616   6.054   6.455 -0.8579  0.0055 -0.0640
   11CHTO  H137 4411   6.529   6.048   6.491 -0.1308 -0.7775  1.6259
   11CHTO   O45 4412   6.746   5.813   6.023 -0.1782  0.0571  0.0158
   11CHTO   C67 4413   6.851   5.846   5.929  0.1606  0.5386 -0.1256
   11CHTO  H124 4414   6.798   5.863   5.835  0.8579  0.2683 -0.5697
   11CHTO   C65 4415   6.931   5.968   5.975 -0.1667 -0.5746 -0.3762
   11CHTO  H122 4416   6.928   5.964   6.084 -0.0185  1.0099 -0.2961
   11CHTO   O44 4417   6.859   6.084   5.928 -0.6964  0.0624  0.2881
   11CHTO  H102 4418   6.922   6.153   5.920  0.7093 -1.3636 -1.4873
   11CHTO   C63 4419   7.088   5.951   5.928  0.4552 -0.5436 -0.5959
   11CHTO  H120 4420   7.137   5.885   6.000  0.5668 -1.7225 -1.7393
   11CHTO   N11 4421   7.171   6.081   5.926  0.2429 -0.4117  0.2982
   11CHTO  H108 4422   7.150   6.126   6.021  1.0424 -0.7217  0.6308
   11CHTO  H109 4423   7.144   6.146   5.846  1.7719 -0.2619 -0.1184
   11CHTO   C61 4424   7.095   5.869   5.794  0.1780 -0.1116 -0.1544
   11CHTO  H118 4425   7.202   5.848   5.783 -0.1888 -1.4214 -1.2218
   11CHTO   O40 4426   7.034   5.747   5.792  0.0589  0.0991 -0.2043
   11CHTO   C68 4427   6.945   5.722   5.904  0.3597 -0.5573 -0.1230
   11CHTO  H125 4428   7.014   5.712   5.990 -0.1016  1.2735  0.4939
   11CHTO   C72 4429   6.870   5.589   5.882  0.6327 -0.2266 -0.1063
   11CHTO   O48 4430   6.760   5.604   5.787 -0.1485  0.1564  0.0435
   11CHTO  H105 4431   6.698   5.671   5.807  0.4831  1.2297 -1.4482
   11CHTO   O38 4432   7.041   5.940   5.681  0.1690 -0.5752 -0.0934
   11CHTO   C55 4433   7.101   5.904   5.554 -0.1865 -0.6855  0.2749
   11CHTO  H112 4434   7.160   5.811   5.556  0.9196  0.0090  0.3399
   11CHTO   C56 4435   7.190   6.030   5.516  0.1353  0.2195  0.1769
   11CHTO  H113 4436   7.122   6.115   5.535 -0.3751  0.1091 -1.1057
   11CHTO   O42 4437   7.298   6.047   5.609 -0.4321  0.1788  0.0591
   11CHTO  H100 4438   7.279   6.025   5.698  1.8209  1.5117  0.8983
   11CHTO   C57 4439   7.236   6.021   5.368  0.0133  0.3618  0.1843
   11CHTO  H114 4440   7.314   5.945   5.360 -1.6403 -1.3265 -0.2913
   11CHTO   N10 4441   7.295   6.152   5.327 -0.1693  0.2263 -0.0279
   11CHTO  H106 4442   7.367   6.149   5.247  1.9219 -2.7089  1.8404
   11CHTO  H107 4443   7.243   6.246   5.334  1.6213  1.3662 -1.7860
   11CHTO   C58 4444   7.109   5.975   5.279 -0.0492  0.6447 -0.6068
   11CHTO  H115 4445   7.034   6.057   5.275 -1.2665 -0.4278 -0.2999
   11CHTO   O37 4446   7.048   5.853   5.324 -0.2990  0.4738 -0.4799
   11CHTO   C59 4447   6.983   5.877   5.455 -1.0592  0.2693 -0.5940
   11CHTO  H116 4448   6.912   5.959   5.455 -0.7162  0.5705  0.8096
   11CHTO   C70 4449   6.899   5.755   5.496 -0.3167  0.0814  0.4398
   11CHTO   O46 4450   6.812   5.703   5.395  0.4784  0.4294 -0.3268
   11CHTO  H103 4451   6.735   5.755   5.382 -0.7186 -0.7440  1.7709
   11CHTO   O39 4452   7.154   5.930   5.128 -0.2445  0.0639  0.2012
   11CHTO   C60 4453   7.067   5.956   5.021  0.5524  0.2045 -0.4528
   11CHTO  H117 4454   6.967   5.947   5.065  1.3265  1.8842  1.7400
   11CHTO   C62 4455   7.090   6.098   4.960  0.2729 -0.0162  0.7842
   11CHTO  H119 4456   7.072   6.172   5.041  0.5086 -0.9051  1.6539
   11CHTO   O43 4457   7.231   6.107   4.923 -0.2593 -0.5716  0.2667
   11CHTO  H101 4458   7.270   6.024   4.904 -2.2799 -1.7236  0.9987
   11CHTO   C66 4459   6.981   6.131   4.843 -0.2707  0.1758 -0.3515
   11CHTO  H123 4460   6.882   6.115   4.886  0.2096  0.5946  0.9545
   11CHTO   N12 4461   6.987   6.276   4.801  0.1721  0.0251  0.3192
   11CHTO  H110 4462   6.930   6.289   4.710  0.3793 -0.1963  0.1556
   11CHTO  H111 4463   7.086   6.317   4.785 -0.3388  0.3884 -2.0992
   11CHTO   C69 4464   7.001   6.031   4.722 -0.0949  0.1985  0.0179
   11CHTO  H126 4465   7.104   6.053   4.687  0.0804  3.1671  2.2050
   11CHTO   O41 4466   7.000   5.885   4.775  0.0465 -0.0141  0.3379
   11CHTO   C64 4467   7.081   5.852   4.906 -0.1936  0.0652 -0.7874
   11CHTO  H121 4468   7.189   5.859   4.883 -0.3712  0.2077 -1.5827
   11CHTO   C71 4469   7.048   5.717   4.973  0.2426  0.1301 -0.0021
   11CHTO   O47 4470   7.121   5.605   4.913  0.4840  0.1204 -0.2810
   11CHTO  H104 4471   7.078   5.572   4.837 -1.8723  1.8751  0.2552
   11CHTO   O34 4472   6.894   6.048   4.614  0.4658 -0.5482 -0.4408
   11CHTO   C49 4473   6.861   5.934   4.486  0.4272 -0.2553  0.7495
   11CHTO   H91 4474   6.961   5.924   4.446  0.9593  2.5419  1.2712
   11CHTO   C47 4475   6.771   6.004   4.381  0.1548 -0.2106  0.8252
   11CHTO   H89 4476   6.776   5.931   4.298  0.4815  1.3213 -0.5399
   11CHTO   O33 4477   6.819   6.135   4.329 -0.3547  0.2801 -0.1018
   11CHTO   H70 4478   6.910   6.121   4.315  0.0524  0.9362  1.7564
   11CHTO   C45 4479   6.619   6.017   4.434  0.1096  0.1086  0.2968
   11CHTO   H87 4480   6.612   6.117   4.481 -0.9238  1.1731 -2.0527
   11CHTO    N8 4481   6.526   6.016   4.320  0.0565 -0.9489 -0.5971
   11CHTO   H75 4482   6.424   6.038   4.348  0.1005 -2.4561  0.7670
   11CHTO   H76 4483   6.563   6.062   4.229 -0.7218  1.4571  0.2547
   11CHTO   C43 4484   6.583   5.904   4.538 -0.8564 -0.2003  0.1060
   11CHTO   H85 4485   6.631   5.950   4.624  3.7403 -1.5678 -1.5409
   11CHTO   O29 4486   6.650   5.787   4.494  0.5259  0.1464  0.6963
   11CHTO   C50 4487   6.791   5.795   4.524 -0.3257 -0.1502 -0.8512
   11CHTO   H92 4488   6.816   5.775   4.630  0.9932 -1.2282 -1.3566
   11CHTO   C54 4489   6.861   5.682   4.454  0.0976  0.1948 -0.5279
   11CHTO   O36 4490   6.803   5.549   4.470  0.0250  0.0123 -0.0124
   11CHTO   H72 4491   6.855   5.500   4.410  1.6526  0.9832  0.5510
   11CHTO   O27 4492   6.443   5.884   4.570  0.2159 -0.8628 -0.3208
   11CHTO   C37 4493   6.361   5.813   4.670 -1.0737  0.1919 -0.1799
   11CHTO   H79 4494   6.414   5.722   4.702 -0.4772  0.5085 -0.2663
   11CHTO   C38 4495   6.336   5.889   4.799 -0.2017  0.2950 -0.2867
   11CHTO   H80 4496   6.283   5.979   4.766 -0.0425 -0.3874 -2.4749
   11CHTO   O31 4497   6.464   5.931   4.862  0.3248 -0.0473  0.4752
   11CHTO   H68 4498   6.492   6.012   4.824 -1.2068  0.4711  0.4224
   11CHTO   C39 4499   6.246   5.814   4.904  0.2940  0.1772  0.0435
   11CHTO   H81 4500   6.308   5.734   4.943 -1.1578 -0.6625  0.6878
   11CHTO    N7 4501   6.212   5.895   5.023 -0.1273 -0.3722  0.0657
   11CHTO   H73 4502   6.299   5.922   5.081 -1.2178 -0.2832  1.7082
   11CHTO   H74 4503   6.166   5.988   4.992 -1.7893 -1.6289 -1.3135
   11CHTO   C40 4504   6.117   5.751   4.832  0.2998  0.2019 -0.2275
   11CHTO   H82 4505   6.040   5.826   4.816  0.5939  0.2630 -1.4284
   11CHTO   O26 4506   6.155   5.685   4.709 -0.3450  0.4164  0.2382
   11CHTO   C41 4507   6.222   5.774   4.614  0.3317 -0.3906  0.4184
   11CHTO   H83 4508   6.156   5.861   4.609  0.0893 -0.6075 -0.1480
   11CHTO   C52 4509   6.243   5.700   4.477  0.3354 -0.3040 -0.2625
   11CHTO   O35 4510   6.121   5.642   4.409 -0.2327 -0.0891  0.6986
   11CHTO   H71 4511   6.083   5.579   4.467  1.8298 -1.4353  0.6514
   11CHTO   O28 4512   6.077   5.639   4.907 -0.4323  0.5098 -0.6636
   11CHTO   C42 4513   5.925   5.625   4.906 -0.0972  0.5619 -0.4328
   11CHTO   H84 4514   5.898   5.669   4.810 -0.7097  0.1506 -0.4532
   11CHTO   C44 4515   5.850   5.705   5.023 -0.2169 -0.5472  0.3676
   11CHTO   H86 4516   5.893   5.678   5.119 -0.8413  0.3887  0.9180
   11CHTO   O32 4517   5.864   5.845   5.014  0.0153 -0.3200 -0.2970
   11CHTO   H69 4518   5.859   5.886   5.098 -0.4936  0.8411 -0.8889
   11CHTO   C48 4519   5.693   5.669   5.027 -0.4156 -0.1887  0.1045
   11CHTO   H90 4520   5.656   5.711   4.933  0.1888 -2.3285 -1.1316
   11CHTO    N9 4521   5.618   5.736   5.142 -0.0910  1.0552 -0.2358
   11CHTO   H77 4522   5.514   5.740   5.112 -0.3405  1.2838  0.6604
   11CHTO   H78 4523   5.663   5.834   5.150 -0.8081  1.3964 -0.3647
   11CHTO   C51 4524   5.669   5.513   5.022  0.2125  0.4359 -0.0725
   11CHTO   H93 4525   5.714   5.455   5.102 -1.0702 -0.7078 -0.1642
   11CHTO   O30 4526   5.712   5.467   4.897  0.5353 -0.5466 -0.2542
   11CHTO   C46 4527   5.879   5.476   4.899 -0.7427  0.4810  0.4680
   11CHTO   H88 4528   5.915   5.433   4.992  0.5394 -1.7832 -1.0455
   11CHTO   C53 4529   5.945   5.411   4.774 -0.1487  0.5601  0.1885
   11CHTO   O72 4530   5.898   5.278   4.740 -0.4659 -0.2556 -0.0857
   11CHTO  H199 4531   5.918   5.222   4.812 -1.2560 -0.6828 -0.1909
   11CHTO   O22 4532   5.527   5.472   5.011 -0.0708  0.1718 -0.6178
   11CHTO   C31 4533   5.467   5.351   5.068  0.2988  0.3461  0.0095
   11CHTO   H59 4534   5.553   5.282   5.085  0.9433  1.3044  0.6963
   11CHTO   C29 4535   5.394   5.366   5.202  0.4802 -0.2732  0.2879
   11CHTO   H57 4536   5.315   5.441   5.185  2.2853  1.2626 -1.6263
   11CHTO   O21 4537   5.485   5.424   5.301 -0.1349  0.3499  0.6568
   11CHTO   H37 4538   5.442   5.443   5.382 -0.2741 -1.6043  1.0660
   11CHTO   C27 4539   5.331   5.230   5.256  0.3635  0.3795  0.5561
   11CHTO   H55 4540   5.413   5.164   5.287 -0.0674 -0.6300 -0.4333
   11CHTO    N5 4541   5.244   5.255   5.375 -0.3429  0.3496  0.6228
   11CHTO   H43 4542   5.218   5.163   5.425  1.7385 -1.0175 -0.7234
   11CHTO   H44 4543   5.290   5.319   5.449 -2.7291  1.2495  1.3420
   11CHTO   C25 4544   5.266   5.142   5.138 -0.4045  0.3821  0.0849
   11CHTO   H53 4545   5.174   5.197   5.110 -1.1893 -0.4767  0.9340
   11CHTO   O17 4546   5.341   5.151   5.014 -0.4095  0.5288  0.3151
   11CHTO   C32 4547   5.374   5.283   4.970  0.7857 -0.7537  0.0065
   11CHTO   H60 4548   5.282   5.341   4.970  1.6031  0.5833 -0.1866
   11CHTO   C36 4549   5.420   5.276   4.833 -0.4347  0.3848  0.7208
   11CHTO   O25 4550   5.528   5.181   4.813  0.5617 -0.3174  0.1515
   11CHTO   H40 4551   5.538   5.172   4.720 -0.0812  0.4831  0.0052
   11CHTO   O15 4552   5.251   4.993   5.191 -0.0485 -0.2001 -0.5839
   11CHTO   C19 4553   5.200   4.871   5.142  0.2103  0.1697  0.2571
   11CHTO   H47 4554   5.240   4.792   5.207 -0.4421 -2.0936 -1.9972
   11CHTO   C20 4555   5.043   4.854   5.150 -0.0791  0.1010 -0.1273
   11CHTO   H48 4556   4.993   4.928   5.085 -0.1430 -0.0822 -0.2847
   11CHTO   O19 4557   4.995   4.889   5.285  0.0697 -0.5419  0.3363
   11CHTO   H35 4558   4.927   4.834   5.317 -0.7814  0.2995  0.0082
   11CHTO   C21 4559   4.990   4.714   5.104  0.0387 -0.5083  0.0798
   11CHTO   H49 4560   5.007   4.641   5.183 -0.4948 -0.4506  0.2464
   11CHTO    N4 4561   4.843   4.712   5.085  0.1675 -0.4860  0.0749
   11CHTO   H41 4562   4.817   4.780   5.005 -1.0103 -2.0401 -0.9042
   11CHTO   H42 4563   4.786   4.739   5.172 -0.6417 -0.0529 -0.5768
   11CHTO   C22 4564   5.070   4.656   4.983  0.4183  0.0594 -0.2706
   11CHTO   H50 4565   5.035   4.709   4.895 -0.7884  1.4401  1.0007
   11CHTO   O14 4566   5.213   4.684   4.993  0.0020 -0.0515  0.3132
   11CHTO   C23 4567   5.249   4.826   4.999 -1.1566 -0.5586  0.4924
   11CHTO   H51 4568   5.189   4.872   4.920  0.0025 -0.1342 -0.1585
   11CHTO   C34 4569   5.405   4.842   4.982 -0.4682  0.6904 -0.4430
   11CHTO   O23 4570   5.490   4.750   5.055 -0.3426 -0.3430 -0.0486
   11CHTO   H38 4571   5.485   4.776   5.145  2.1639  0.7197 -0.1771
   11CHTO   O16 4572   5.068   4.510   4.978  0.1004 -0.3057 -0.3832
   11CHTO   C24 4573   5.076   4.442   4.832 -0.8614 -0.2355  0.1300
   11CHTO   H52 4574   5.106   4.514   4.755  2.0762 -0.6984  0.7867
   11CHTO   C26 4575   4.941   4.387   4.791  0.4500 -0.0602  0.6195
   11CHTO   H54 4576   4.904   4.313   4.865 -0.4558  0.8428  1.0817
   11CHTO   O20 4577   4.844   4.496   4.793  0.1280  1.0799 -0.4592
   11CHTO   H36 4578   4.879   4.569   4.746  0.3014 -0.9866 -3.7341
   11CHTO   C30 4579   4.948   4.324   4.647 -0.0741  0.0455 -0.7214
   11CHTO   H58 4580   4.969   4.401   4.571  2.1146  1.4607  1.2838
   11CHTO    N6 4581   4.812   4.266   4.615 -0.3243 -0.4914 -0.8174
   11CHTO   H45 4582   4.808   4.161   4.591 -0.9344 -0.8471  0.7370
   11CHTO   H46 4583   4.757   4.323   4.541 -0.6748  0.1128 -0.0987
   11CHTO   C33 4584   5.064   4.224   4.643  0.5408  0.2713 -0.5617
   11CHTO   H61 4585   5.039   4.136   4.704  0.4728 -0.8297 -2.1372
   11CHTO   O18 4586   5.182   4.282   4.696 -0.0153 -0.0948 -0.1650
   11CHTO   C28 4587   5.185   4.327   4.832  0.2188  0.9525 -0.4518
   11CHTO   H56 4588   5.163   4.252   4.908 -1.8708  1.1680 -0.8273
   11CHTO   C35 4589   5.328   4.387   4.865 -0.3285  0.1834 -0.0234
   11CHTO   O24 4590   5.428   4.292   4.837  0.2773  0.2645 -0.2352
   11CHTO   H39 4591   5.511   4.333   4.855 -0.0887  1.5198 -1.3181
   11CHTO    O9 4592   5.089   4.165   4.511 -0.0758  0.5400  0.8466
   11CHTO   C13 4593   5.151   4.287   4.408 -1.0027  0.0751  0.3846
   11CHTO   H26 4594   5.156   4.380   4.470 -1.8083 -1.7184  3.2506
   11CHTO   C11 4595   5.053   4.306   4.287  0.0443  0.2880 -0.1835
   11CHTO   H24 4596   4.956   4.335   4.331 -0.2185 -2.7528  1.3648
   11CHTO    O8 4597   5.035   4.184   4.212  0.0903  0.5254 -1.1166
   11CHTO    H3 4598   5.092   4.116   4.243 -0.8174  0.0970 -0.3632
   11CHTO    C9 4599   5.106   4.427   4.208 -0.1600 -0.5475 -0.1524
   11CHTO   H22 4600   5.090   4.513   4.275 -0.1391 -1.2702  0.7948
   11CHTO    N2 4601   5.020   4.457   4.087 -0.3868  0.4649  0.2782
   11CHTO   H10 4602   4.915   4.470   4.110  0.0687  1.7081  1.7342
   11CHTO   H11 4603   5.031   4.380   4.012 -1.5626  0.7937 -0.2421
   11CHTO    C7 4604   5.263   4.428   4.186 -0.0390  0.2937 -0.0427
   11CHTO   H20 4605   5.290   4.507   4.258  0.1773  0.2056 -0.0288
   11CHTO    O4 4606   5.332   4.308   4.226 -0.7166  0.0082  0.2713
   11CHTO   C14 4607   5.305   4.261   4.361  0.4096  0.1061 -0.1730
   11CHTO   H27 4608   5.382   4.307   4.426 -0.2667 -0.4242  1.0261
   11CHTO   C18 4609   5.340   4.106   4.358  0.0602 -0.3297 -0.1118
   11CHTO   O13 4610   5.346   4.046   4.491 -0.1756  0.0720 -0.0362
   11CHTO    H7 4611   5.263   4.063   4.532 -0.0471  0.9277 -0.1211
   11CHTO    O2 4612   5.312   4.464   4.042 -0.0911 -0.0999  0.9179
   11CHTO    C1 4613   5.422   4.552   4.051  0.1799  0.2411  0.0631
   11CHTO   H14 4614   5.483   4.532   4.142 -0.6099 -0.1177  0.5197
   11CHTO    C2 4615   5.378   4.707   4.045 -0.6279  0.3331  0.1988
   11CHTO   H15 4616   5.330   4.716   3.946 -0.7159  1.8971  0.3723
   11CHTO    O6 4617   5.293   4.740   4.158  0.1294 -0.1574  0.9281
   11CHTO    H1 4618   5.255   4.826   4.147 -1.0416 -0.9585 -1.6161
   11CHTO    C3 4619   5.511   4.795   4.062 -0.0338 -0.0627  0.3520
   11CHTO   H16 4620   5.542   4.776   4.166 -1.6476  2.6351  1.3919
   11CHTO    N1 4621   5.486   4.944   4.051 -0.0404 -0.6845 -0.1060
   11CHTO    H8 4622   5.386   4.967   4.085  0.0637 -0.4655  0.0575
   11CHTO    H9 4623   5.495   4.961   3.945 -1.9198  1.4605  0.0449
   11CHTO    C4 4624   5.625   4.740   3.970  0.9732 -0.3927 -0.6017
   11CHTO   H17 4625   5.610   4.775   3.867 -0.6360  2.6093  0.5939
   11CHTO    O1 4626   5.640   4.596   3.960  0.4081 -0.6850  0.0461
   11CHTO    C5 4627   5.522   4.525   3.933 -0.1274 -0.1550 -0.3508
   11CHTO   H18 4628   5.480   4.567   3.842 -2.3397 -0.1043  0.6510
   11CHTO   C16 4629   5.549   4.374   3.913  0.4596  0.0629  0.6222
   11CHTO   O11 4630   5.613   4.312   4.027 -0.5783 -0.0659 -0.0209
   11CHTO    H5 4631   5.570   4.234   4.054  0.3006 -0.4901  0.1643
   11CHTO    O3 4632   5.753   4.793   4.017 -0.0900  0.0488 -0.0240
   11CHTO    C6 4633   5.847   4.834   3.914  0.8955 -0.4878  0.2394
   11CHTO   H19 4634   5.834   4.778   3.821 -0.8921  1.1475 -0.5315
   11CHTO    C8 4635   5.819   4.988   3.880 -0.6418  0.1543  0.6773
   11CHTO   H21 4636   5.824   5.048   3.970 -0.3216  1.0138  0.0985
   11CHTO    O7 4637   5.689   4.996   3.816 -0.3227 -0.5181  0.1695
   11CHTO    H2 4638   5.668   4.924   3.760 -2.3786  1.2325 -1.3857
   11CHTO   C12 4639   5.929   5.048   3.778  0.3270 -0.0964  0.4691
   11CHTO   H25 4640   5.907   5.001   3.680  0.7786  0.9595 -0.1476
   11CHTO    N3 4641   5.902   5.190   3.758  0.5757 -0.2598 -0.0348
   11CHTO   H12 4642   5.961   5.240   3.683 -0.6071  0.1647 -0.7034
   11CHTO   H13 4643   5.796   5.209   3.750  0.7088  0.3713 -0.3422
   11CHTO   C15 4644   6.076   5.014   3.829 -0.5329  0.5330  0.0041
   11CHTO   H28 4645   6.103   5.063   3.922 -0.6339 -2.4943  1.6828
   11CHTO   O10 4646   6.184   5.023   3.724 -0.3740  0.0643  0.0341
   11CHTO    H4 4647   6.270   5.024   3.763 -0.0469 -1.7031 -0.6304
   11CHTO    O5 4648   6.081   4.868   3.844 -0.1619 -0.4182  0.8919
   11CHTO   C10 4649   5.998   4.817   3.950 -0.4339  0.4786  0.0679
   11CHTO   H23 4650   6.018   4.862   4.047  1.2717 -1.3763  0.6107
   11CHTO   C17 4651   6.035   4.666   3.979 -0.2153  0.0556 -0.3163
   11CHTO   O12 4652   5.994   4.565   3.888  0.4135  0.0136  0.0221
   11CHTO    H6 4653   6.012   4.582   3.797  1.4825 -2.1938 -0.2102
   12CHTO  H203 4654   4.690   1.895   4.600 -0.7761  0.6926  0.7610
   12CHTO   O82 4655   4.709   1.862   4.685 -0.8605 -0.1395  0.4679
   12CHTO  C123 4656   4.784   1.746   4.659 -0.3297  0.2575 -0.7543
   12CHTO  H227 4657   4.884   1.780   4.630 -0.0639 -0.4736 -0.7089
   12CHTO   O77 4658   4.785   1.683   4.795  0.0487 -0.0433  0.3129
   12CHTO  C118 4659   4.859   1.564   4.804  1.0881 -0.2216  0.0513
   12CHTO  H222 4660   4.965   1.584   4.782  1.2772 -1.0304  0.1979
   12CHTO  C125 4661   4.853   1.508   4.952  0.7551  0.0152  0.3050
   12CHTO   O84 4662   4.719   1.496   4.999 -0.7899 -0.2565 -0.1409
   12CHTO  H205 4663   4.722   1.445   5.078 -0.3665  0.1587  0.1184
   12CHTO  C114 4664   4.816   1.457   4.707  0.2792  0.2253  0.3151
   12CHTO  H218 4665   4.711   1.431   4.723  0.4185  0.3344  1.4587
   12CHTO  C116 4666   4.808   1.513   4.556 -0.3023  0.9231  0.0563
   12CHTO  H220 4667   4.912   1.532   4.522  0.1548 -0.1640  0.8109
   12CHTO   O79 4668   4.763   1.403   4.476 -0.5615  0.2079 -0.0177
   12CHTO  H201 4669   4.670   1.406   4.468 -0.6543  0.3224  0.9830
   12CHTO  C120 4670   4.716   1.647   4.551 -0.3836 -0.3831  0.3179
   12CHTO  H224 4671   4.611   1.624   4.580  0.1930 -1.3681  1.6746
   12CHTO   N21 4672   4.710   1.686   4.408  0.0453  0.2303 -0.2301
   12CHTO  H211 4673   4.621   1.643   4.365  0.4321  0.4936 -1.2951
   12CHTO  H212 4674   4.706   1.793   4.412  1.5631  0.3272 -1.1943
   12CHTO   O75 4675   4.904   1.333   4.717  0.0868 -0.1357 -0.1093
   12CHTO  C112 4676   4.827   1.191   4.716 -0.2969 -0.1703 -0.2782
   12CHTO  H216 4677   4.764   1.189   4.626  0.9926 -0.3529 -1.1894
   12CHTO   O73 4678   4.746   1.191   4.834 -0.4937  0.1388  0.2761
   12CHTO  C113 4679   4.676   1.070   4.846  0.5923 -0.1621  0.2324
   12CHTO  H217 4680   4.612   1.048   4.758 -0.3936 -0.0944  0.9231
   12CHTO  C124 4681   4.572   1.090   4.960 -0.5550 -0.1641 -0.4825
   12CHTO   O83 4682   4.608   1.113   5.099 -0.1204 -0.4286 -0.5197
   12CHTO  H204 4683   4.541   1.083   5.158 -0.9023  3.5072  0.7363
   12CHTO  C109 4684   4.773   0.955   4.874 -0.3383  0.4451 -0.5804
   12CHTO  H213 4685   4.824   0.981   4.968 -0.0170 -1.1992 -0.2889
   12CHTO  C110 4686   4.872   0.939   4.751 -0.6783  0.9876 -0.3982
   12CHTO  H214 4687   4.808   0.908   4.669 -1.3439  0.1827  0.4193
   12CHTO   O78 4688   4.969   0.836   4.779  0.0581  0.1146 -0.0196
   12CHTO  H200 4689   4.920   0.758   4.798 -0.1678  0.6333  1.6411
   12CHTO  C111 4690   4.937   1.075   4.712 -0.3462 -0.0491 -0.0296
   12CHTO  H215 4691   5.012   1.104   4.787 -0.3165  0.0336 -0.0910
   12CHTO   N19 4692   5.001   1.070   4.578  0.2113 -0.2194  0.5962
   12CHTO  H207 4693   4.996   1.163   4.523 -0.5780 -1.1262 -0.8970
   12CHTO  H208 4694   4.959   0.991   4.517 -2.0558  2.4385 -1.4032
   12CHTO   O74 4695   4.700   0.829   4.892 -0.3791  0.4070 -0.5420
   12CHTO  C115 4696   4.766   0.718   4.999 -0.3819  0.9639  0.2033
   12CHTO  H219 4697   4.855   0.756   5.049 -0.2755 -1.7494  2.2149
   12CHTO   O76 4698   4.664   0.694   5.117  0.3682  0.5428 -0.0545
   12CHTO  C122 4699   4.526   0.656   5.084  0.0774 -0.4613  0.5152
   12CHTO  H226 4700   4.466   0.740   5.048 -0.0581 -0.2493  1.2215
   12CHTO  C126 4701   4.459   0.616   5.214 -0.5456  0.1954 -0.5665
   12CHTO   O85 4702   4.337   0.538   5.200 -0.4713  0.1445 -0.4745
   12CHTO  H206 4703   4.345   0.463   5.145 -2.9089 -1.2332  0.9226
   12CHTO  C121 4704   4.530   0.532   4.976 -0.2078  0.5888 -0.1043
   12CHTO  H225 4705   4.455   0.458   5.009  0.4490  0.0752  0.2283
   12CHTO   O81 4706   4.488   0.584   4.847 -0.6778  0.0286 -0.3251
   12CHTO  H202 4707   4.406   0.628   4.860 -0.4992  0.3530 -0.2822
   12CHTO  C119 4708   4.672   0.472   4.965 -0.8196 -0.4191  0.5791
   12CHTO  H223 4709   4.694   0.434   5.065 -1.1867  0.2717  0.9287
   12CHTO  C117 4710   4.786   0.578   4.929 -0.3221  0.0868  0.3003
   12CHTO  H221 4711   4.786   0.602   4.823  0.0095 -1.1483  0.0147
   12CHTO   N20 4712   4.923   0.531   4.967  0.4177  0.5410  0.6405
   12CHTO  H209 4713   4.988   0.589   4.904  0.9186  1.0709  1.6476
   12CHTO  H210 4714   4.936   0.543   5.073  2.0973  0.3988  0.4530
   12CHTO   O80 4715   4.681   0.337   4.877 -0.7613  0.1847 -0.3465
   12CHTO  C103 4716   4.675   0.196   4.945  0.3175 -0.4534 -0.5837
   12CHTO  H190 4717   4.748   0.190   5.025 -0.5558 -1.4439  0.1688
   12CHTO  C101 4718   4.533   0.153   5.005 -0.3968 -0.9160  0.7646
   12CHTO  H188 4719   4.456   0.188   4.937  0.1740 -1.4707 -0.1708
   12CHTO   O68 4720   4.513   0.226   5.144  0.0084  0.1794  0.2913
   12CHTO  H168 4721   4.496   0.317   5.133  0.6468  0.2267 -0.3114
   12CHTO   C99 4722   4.507  -0.003   5.026  0.2555 -0.5475 -0.0267
   12CHTO  H186 4723   4.542  -0.036   5.126  1.2990  0.6202  0.0070
   12CHTO   N17 4724   4.363  -0.039   5.026 -0.0607 -0.1225  0.4465
   12CHTO  H174 4725   4.299   0.031   4.973 -0.6778 -2.1306 -1.5504
   12CHTO  H175 4726   4.319  -0.059   5.123 -0.3589 -1.5329  0.0342
   12CHTO   C97 4727   4.580  -0.086   4.915 -0.5435  0.4467  0.4010
   12CHTO  H184 4728   4.521  -0.073   4.823 -0.6558  0.3652  0.4619
   12CHTO   O64 4729   4.713  -0.045   4.896 -0.0323  0.1231  0.1424
   12CHTO  C104 4730   4.720   0.088   4.837  0.4093 -0.1609 -0.4861
   12CHTO  H191 4731   4.657   0.101   4.749  0.6670  2.3840 -0.3595
   12CHTO  C108 4732   4.865   0.122   4.801  1.5418 -0.0051  0.3413
   12CHTO   O71 4733   4.961   0.109   4.909  0.1154 -0.1436  0.0272
   12CHTO  H171 4734   5.039   0.143   4.869  2.2077 -1.8404  2.5525
   12CHTO   O62 4735   4.584  -0.233   4.933 -0.1778  0.0420 -0.8588
   12CHTO   C91 4736   4.573  -0.318   4.826 -1.0469 -0.3543 -0.0784
   12CHTO  H178 4737   4.578  -0.256   4.736 -0.2332 -0.0316  0.1841
   12CHTO   C92 4738   4.435  -0.387   4.818 -0.3252  1.2815 -0.3303
   12CHTO  H179 4739   4.400  -0.425   4.915  1.0656  2.8381  0.8171
   12CHTO   O66 4740   4.346  -0.273   4.797 -0.3674 -0.1400  0.4003
   12CHTO  H166 4741   4.364  -0.215   4.868  3.6305 -0.4892 -0.1805
   12CHTO   C93 4742   4.433  -0.495   4.700 -0.0468  0.4983 -0.8089
   12CHTO  H180 4743   4.433  -0.438   4.606 -1.3339 -0.7501 -1.5916
   12CHTO   N16 4744   4.312  -0.580   4.695  0.1877  0.7687  0.0421
   12CHTO  H172 4745   4.216  -0.532   4.681 -0.3433 -0.6741 -1.4105
   12CHTO  H173 4746   4.327  -0.656   4.620  1.6688  1.9739 -0.9321
   12CHTO   C94 4747   4.564  -0.587   4.709  0.1957  0.2010 -0.2741
   12CHTO  H181 4748   4.566  -0.647   4.800 -2.8376 -0.8598 -0.8312
   12CHTO   O61 4749   4.679  -0.507   4.712  0.2677 -0.2059  0.3743
   12CHTO   C95 4750   4.685  -0.427   4.830  0.2846  0.5222 -0.0786
   12CHTO  H182 4751   4.674  -0.497   4.913 -0.7023 -0.2688 -0.8556
   12CHTO  C106 4752   4.832  -0.362   4.847  0.7528 -0.3360  0.0185
   12CHTO   O69 4753   4.924  -0.428   4.939 -0.1673 -0.1225  0.0558
   12CHTO  H169 4754   4.997  -0.464   4.892  0.2875  0.6632  0.1641
   12CHTO   O63 4755   4.571  -0.697   4.583  0.9358 -0.2800 -0.6539
   12CHTO   C96 4756   4.698  -0.783   4.605  0.2193 -1.1177 -0.7119
   12CHTO  H183 4757   4.730  -0.776   4.709 -1.2967 -0.3813 -0.2811
   12CHTO   C98 4758   4.819  -0.746   4.517  0.4469  0.1311 -0.0757
   12CHTO  H185 4759   4.784  -0.747   4.413  1.7709 -0.6757 -0.5274
   12CHTO   O67 4760   4.875  -0.615   4.547 -0.0098  0.1072  0.0760
   12CHTO  H167 4761   4.811  -0.553   4.518  0.5063  1.0352  0.9300
   12CHTO  C102 4762   4.934  -0.854   4.525  0.1388  0.0129 -0.0871
   12CHTO  H189 4763   4.989  -0.837   4.618 -0.1543  1.4317 -0.1717
   12CHTO   N18 4764   5.037  -0.838   4.416 -0.5414  0.5131  0.2603
   12CHTO  H176 4765   5.114  -0.776   4.459 -0.1021  0.9759 -1.1660
   12CHTO  H177 4766   5.084  -0.930   4.385  2.3766  1.4599  1.7082
   12CHTO  C105 4767   4.888  -0.998   4.544 -0.3959 -0.7944  0.0001
   12CHTO  H192 4768   4.871  -1.046   4.447 -0.8139  0.1570 -0.4027
   12CHTO   O65 4769   4.777  -1.001   4.631  0.2758 -0.0088 -0.1750
   12CHTO  C100 4770   4.659  -0.930   4.586  0.6008 -0.5781  0.8429
   12CHTO  H187 4771   4.642  -0.963   4.482  1.1138 -1.0291  0.8981
   12CHTO  C107 4772   4.525  -0.978   4.660  0.4832  0.4929  0.0877
   12CHTO   O70 4773   4.407  -0.904   4.622  0.1685  0.2740 -0.2550
   12CHTO  H170 4774   4.339  -0.919   4.685 -1.2638  0.8971 -1.6221
   12CHTO   O57 4775   5.009  -1.065   4.627  0.1868  0.1277 -0.1650
   12CHTO   C85 4776   5.026  -1.207   4.642  0.0841 -0.3095 -0.6006
   12CHTO  H157 4777   4.964  -1.249   4.560  0.2796  2.8746 -2.4600
   12CHTO   C83 4778   4.956  -1.259   4.777 -0.4629 -0.1174  0.2775
   12CHTO  H155 4779   4.850  -1.239   4.761 -0.8976 -1.3205  1.5950
   12CHTO   O56 4780   4.986  -1.184   4.893 -0.1306 -0.3177 -0.1753
   12CHTO  H135 4781   4.939  -1.214   4.969  1.6738  0.0155  1.0853
   12CHTO   C81 4782   4.981  -1.411   4.792 -0.2268  0.5805  0.4729
   12CHTO  H153 4783   4.952  -1.460   4.699 -1.0994 -1.5495  1.8353
   12CHTO   N14 4784   4.891  -1.476   4.893 -0.4847 -0.1084  0.0850
   12CHTO  H141 4785   4.942  -1.513   4.980  0.8232 -0.8185 -0.9595
   12CHTO  H142 4786   4.808  -1.414   4.919  0.4983  0.5556  1.7459
   12CHTO   C79 4787   5.141  -1.434   4.811 -0.4949 -0.3943 -0.3241
   12CHTO  H151 4788   5.151  -1.541   4.829 -0.3228  0.0491  2.4866
   12CHTO   O52 4789   5.207  -1.397   4.688 -0.5769 -0.3536  0.3604
   12CHTO   C86 4790   5.182  -1.257   4.639 -0.2259 -0.5378  0.3870
   12CHTO  H158 4791   5.242  -1.199   4.713  0.4981 -0.7850 -0.0054
   12CHTO   C90 4792   5.251  -1.234   4.499  0.1331 -0.5332 -0.5438
   12CHTO   O60 4793   5.183  -1.316   4.401  0.2267  0.0086  0.1667
   12CHTO  H138 4794   5.230  -1.310   4.320  0.6443  1.6249  0.5113
   12CHTO   O50 4795   5.192  -1.359   4.929  0.1310  0.0081 -0.1968
   12CHTO   C73 4796   5.207  -1.363   5.075 -0.0465  0.3232  0.3004
   12CHTO  H145 4797   5.121  -1.414   5.121  0.3756 -1.5639 -0.9011
   12CHTO   C74 4798   5.208  -1.221   5.139  0.0710  0.2496 -0.5408
   12CHTO  H146 4799   5.112  -1.173   5.115 -1.3661 -2.5132 -0.5661
   12CHTO   O54 4800   5.208  -1.232   5.282 -0.0231  0.2537 -0.4056
   12CHTO  H133 4801   5.168  -1.162   5.330  1.8280  1.3523 -0.4124
   12CHTO   C75 4802   5.338  -1.138   5.094  1.1188 -0.0878  0.2038
   12CHTO  H147 4803   5.323  -1.119   4.987 -0.1079 -0.6111  0.2734
   12CHTO   N13 4804   5.355  -1.004   5.157 -0.3817 -0.4851 -0.4475
   12CHTO  H139 4805   5.443  -0.950   5.124 -0.6701 -0.2971 -0.9232
   12CHTO  H140 4806   5.266  -0.946   5.137 -0.4539 -0.7102 -0.7981
   12CHTO   C76 4807   5.472  -1.228   5.117 -0.1692 -0.1899 -0.8114
   12CHTO  H148 4808   5.488  -1.248   5.222  0.4005  2.8714 -0.2612
   12CHTO   O49 4809   5.452  -1.361   5.059  0.0676  0.6858 -0.3139
   12CHTO   C77 4810   5.344  -1.434   5.112 -0.1421  0.6283  0.4682
   12CHTO  H149 4811   5.352  -1.440   5.220 -2.1713  2.7708  0.7742
   12CHTO   C88 4812   5.345  -1.580   5.069 -0.5151  0.0641  0.0457
   12CHTO   O58 4813   5.237  -1.638   5.116  0.3504 -0.2455  0.0226
   12CHTO  H136 4814   5.207  -1.706   5.058 -0.6530 -0.4053  0.7188
   12CHTO   O51 4815   5.603  -1.155   5.033  0.3789  0.3986 -0.3964
   12CHTO   C78 4816   5.725  -1.263   4.988  0.1093  0.1966  0.2105
   12CHTO  H150 4817   5.677  -1.347   4.934  0.8049 -1.7448  2.5344
   12CHTO   C80 4818   5.804  -1.316   5.109 -0.0015 -0.1450 -0.2296
   12CHTO  H152 4819   5.803  -1.236   5.186  0.0040 -0.2594 -0.1097
   12CHTO   O55 4820   5.732  -1.420   5.178  0.0118 -0.3452 -0.6704
   12CHTO  H134 4821   5.692  -1.480   5.119  0.2234 -0.2215 -0.9395
   12CHTO   C84 4822   5.954  -1.365   5.070 -0.0209 -0.5862 -0.5224
   12CHTO  H156 4823   5.940  -1.460   5.020 -1.3056 -1.1613  0.8914
   12CHTO   N15 4824   6.039  -1.389   5.189 -0.6785  0.3798 -0.2187
   12CHTO  H143 4825   5.991  -1.442   5.268 -0.3630  0.0339 -0.2542
   12CHTO  H144 4826   6.065  -1.293   5.228  0.9708  0.2093 -0.8132
   12CHTO   C87 4827   6.030  -1.274   4.976  0.0708 -0.0201  0.7830
   12CHTO  H159 4828   6.053  -1.174   5.012 -1.1380  0.8860 -0.8382
   12CHTO   O53 4829   5.937  -1.258   4.859  0.3892  0.7625 -0.1642
   12CHTO   C82 4830   5.817  -1.187   4.893 -0.2791 -0.8846  1.2751
   12CHTO  H154 4831   5.845  -1.088   4.930  2.4230  0.1601 -3.2154
   12CHTO   C89 4832   5.741  -1.161   4.764 -0.1004 -0.0585  0.3838
   12CHTO   O59 4833   5.813  -1.089   4.666  0.7834 -0.0165  0.1594
   12CHTO  H137 4834   5.758  -1.069   4.592  2.6971  0.5903 -1.1159
   12CHTO   O45 4835   6.183  -1.345   4.923  0.2759 -0.1806  0.1472
   12CHTO   C67 4836   6.204  -1.337   4.776 -0.2108  0.0853 -0.0171
   12CHTO  H124 4837   6.136  -1.262   4.734  1.9319  2.7525  1.1145
   12CHTO   C65 4838   6.355  -1.301   4.749 -0.1299 -0.5516 -0.4141
   12CHTO  H122 4839   6.380  -1.223   4.820  0.8930 -1.1771 -0.0745
   12CHTO   O44 4840   6.379  -1.237   4.623 -0.3231 -0.2195  0.1434
   12CHTO  H102 4841   6.471  -1.223   4.618 -0.1053 -2.1637 -3.3464
   12CHTO   C63 4842   6.441  -1.420   4.795  0.3115  0.3552 -0.4270
   12CHTO  H120 4843   6.416  -1.442   4.899  0.2889  1.2101 -0.2498
   12CHTO   N11 4844   6.589  -1.389   4.809 -0.1990 -0.1320  0.5556
   12CHTO  H108 4845   6.618  -1.286   4.804  0.0723 -0.2709 -1.1035
   12CHTO  H109 4846   6.638  -1.436   4.892  2.0693 -1.5903 -1.5227
   12CHTO   C61 4847   6.421  -1.550   4.716  0.3305  0.2746 -0.0250
   12CHTO  H118 4848   6.474  -1.634   4.764 -0.2437 -1.0586 -1.6801
   12CHTO   O40 4849   6.279  -1.584   4.723  0.1804 -0.2305  0.1391
   12CHTO   C68 4850   6.175  -1.478   4.704 -0.5464  0.1779 -0.0803
   12CHTO  H125 4851   6.083  -1.512   4.756 -0.9818 -0.4015 -1.2151
   12CHTO   C72 4852   6.143  -1.473   4.555  0.4589  0.3736 -0.6098
   12CHTO   O48 4853   6.074  -1.591   4.511 -0.2783 -0.2617 -0.1316
   12CHTO  H105 4854   6.112  -1.612   4.428  0.7831  1.0717 -0.0119
   12CHTO   O38 4855   6.458  -1.536   4.582 -0.0581 -0.3561 -0.4638
   12CHTO   C55 4856   6.557  -1.632   4.535  0.3016 -0.1076 -0.4377
   12CHTO  H112 4857   6.609  -1.668   4.625 -0.7924  0.2792  0.3619
   12CHTO   C56 4858   6.650  -1.559   4.436 -0.3379 -0.2057  0.8698
   12CHTO  H113 4859   6.585  -1.525   4.354  1.4913 -0.6505 -0.8016
   12CHTO   O42 4860   6.711  -1.441   4.498 -0.2590  0.0816  0.3837
   12CHTO  H100 4861   6.802  -1.429   4.481  0.1125 -0.5129  1.8684
   12CHTO   C57 4862   6.758  -1.663   4.371 -0.4249  0.5667 -0.5717
   12CHTO  H114 4863   6.818  -1.703   4.453 -0.9975 -2.1702 -1.4225
   12CHTO   N10 4864   6.853  -1.601   4.275  0.8648 -0.1425  0.3726
   12CHTO  H106 4865   6.880  -1.680   4.207 -1.3506  1.0068 -1.9675
   12CHTO  H107 4866   6.804  -1.526   4.214  0.9453 -1.6567 -1.6133
   12CHTO   C58 4867   6.681  -1.779   4.310  0.6709  0.0285 -0.8562
   12CHTO  H115 4868   6.622  -1.743   4.223 -1.7716 -0.5023  0.5247
   12CHTO   O37 4869   6.595  -1.839   4.411  0.1845  0.4550  0.5831
   12CHTO   C59 4870   6.488  -1.758   4.473  0.0267 -0.0512 -0.3065
   12CHTO  H116 4871   6.411  -1.726   4.403 -0.1332 -0.7120 -0.4430
   12CHTO   C70 4872   6.431  -1.847   4.580  0.4888 -0.2806 -0.3691
   12CHTO   O46 4873   6.382  -1.964   4.522  0.1862 -0.1650 -0.3948
   12CHTO  H103 4874   6.310  -1.996   4.572  0.5371 -2.3330 -1.2041
   12CHTO   O39 4875   6.781  -1.903   4.264 -0.3448 -0.1944  0.5263
   12CHTO   C60 4876   6.763  -1.965   4.139 -0.3171  0.2516 -0.2874
   12CHTO  H117 4877   6.673  -1.939   4.084 -1.3061  0.3890  1.3407
   12CHTO   C62 4878   6.890  -1.931   4.059 -0.2655 -0.4469 -0.8202
   12CHTO  H119 4879   6.872  -1.823   4.040  1.7537  0.1755  0.6417
   12CHTO   O43 4880   7.014  -1.954   4.128  0.0649 -0.6118 -0.7862
   12CHTO  H101 4881   7.090  -1.921   4.085 -0.4338  1.1793 -0.3362
   12CHTO   C66 4882   6.885  -2.014   3.915 -0.1179 -0.6726 -0.4420
   12CHTO  H123 4883   6.789  -2.001   3.865 -1.0259  1.3914  1.7288
   12CHTO   N12 4884   6.985  -1.968   3.816 -0.0531 -0.5247  0.0280
   12CHTO  H110 4885   7.076  -1.971   3.874  0.6338  1.7351 -0.8676
   12CHTO  H111 4886   6.989  -2.044   3.739 -2.7646 -0.9799  0.2864
   12CHTO   C69 4887   6.898  -2.167   3.948  0.4496  0.3417 -0.0773
   12CHTO  H126 4888   6.995  -2.173   4.002  0.0903 -1.7617  0.3446
   12CHTO   O41 4889   6.776  -2.205   4.041  0.0229 -0.1376 -0.1687
   12CHTO   C64 4890   6.760  -2.115   4.166  0.3043  0.3662  1.0439
   12CHTO  H121 4891   6.837  -2.154   4.235 -1.0689  0.2968  2.5741
   12CHTO   C71 4892   6.633  -2.151   4.250 -0.1838 -0.3978 -0.0957
   12CHTO   O47 4893   6.510  -2.170   4.178  0.3165  0.6921 -0.7017
   12CHTO  H104 4894   6.517  -2.249   4.128 -0.2315  0.2396 -0.0836
   12CHTO   O34 4895   6.906  -2.272   3.818  0.2148  0.3483  0.7358
   12CHTO   C49 4896   6.990  -2.394   3.757 -0.2390 -0.3727  0.4209
   12CHTO   H91 4897   7.071  -2.337   3.711 -2.1401  2.8830  1.0185
   12CHTO   C47 4898   6.905  -2.468   3.653 -0.3617 -0.2861 -0.1985
   12CHTO   H89 4899   6.972  -2.547   3.613  0.3311 -0.0119  0.3916
   12CHTO   O33 4900   6.867  -2.380   3.548 -0.2101  0.0492  0.2431
   12CHTO   H70 4901   6.888  -2.423   3.468 -0.8557 -1.0532  0.6508
   12CHTO   C45 4902   6.787  -2.540   3.732  0.4713  0.1548  0.0970
   12CHTO   H87 4903   6.693  -2.482   3.734 -0.3221 -1.0611 -0.8637
   12CHTO    N8 4904   6.762  -2.669   3.671  0.4047 -0.2994  0.1254
   12CHTO   H75 4905   6.708  -2.668   3.577 -0.8603  0.1271  0.8501
   12CHTO   H76 4906   6.726  -2.742   3.742  1.5725 -1.2402 -0.2345
   12CHTO   C43 4907   6.821  -2.548   3.897 -0.3061  0.2525  0.2741
   12CHTO   H85 4908   6.796  -2.448   3.931 -1.4419  0.0009  0.1946
   12CHTO   O29 4909   6.961  -2.588   3.918  0.5428  0.3823  0.7284
   12CHTO   C50 4910   7.052  -2.489   3.866  0.3932  0.9012  0.4850
   12CHTO   H92 4911   7.087  -2.429   3.952  1.0654 -0.5270  1.2233
   12CHTO   C54 4912   7.180  -2.566   3.819  0.4023  0.4106  0.1224
   12CHTO   O36 4913   7.252  -2.616   3.932 -0.1813  0.2908 -0.0756
   12CHTO   H72 4914   7.298  -2.693   3.904  0.8377  1.2813 -1.2214
   12CHTO   O27 4915   6.725  -2.632   3.964  0.2427 -0.1244 -0.0096
   12CHTO   C37 4916   6.662  -2.662   4.084  0.4539 -0.3882  0.0314
   12CHTO   H79 4917   6.667  -2.771   4.102  2.5175 -0.3303 -0.0239
   12CHTO   C38 4918   6.737  -2.583   4.200  0.0211  0.4149  0.1348
   12CHTO   H80 4919   6.765  -2.484   4.159  2.2504 -0.3663 -0.2875
   12CHTO   O31 4920   6.860  -2.651   4.222  0.5529 -0.1270 -0.4119
   12CHTO   H68 4921   6.927  -2.587   4.239  0.1237  0.7637 -1.9352
   12CHTO   C39 4922   6.653  -2.565   4.336 -0.7720 -0.1350 -0.6755
   12CHTO   H81 4923   6.660  -2.656   4.396 -1.1917  0.3010  0.0500
   12CHTO    N7 4924   6.719  -2.454   4.416  0.2888 -0.3511 -0.2863
   12CHTO   H73 4925   6.822  -2.466   4.445 -0.4272 -2.1879  1.6024
   12CHTO   H74 4926   6.656  -2.448   4.503  0.3330  1.6959 -0.3648
   12CHTO   C40 4927   6.508  -2.534   4.313 -0.3009 -0.1835  0.3126
   12CHTO   H82 4928   6.497  -2.434   4.270 -1.0162 -0.6456 -0.6048
   12CHTO   O26 4929   6.450  -2.634   4.222 -0.1008 -0.2111 -0.1554
   12CHTO   C41 4930   6.511  -2.621   4.089 -0.1974 -0.8911 -0.5849
   12CHTO   H83 4931   6.502  -2.515   4.061 -1.7295 -0.5612  1.0768
   12CHTO   C52 4932   6.434  -2.706   3.994 -0.5849 -0.0279 -0.2580
   12CHTO   O35 4933   6.301  -2.646   3.981 -0.4128 -0.5343  0.2191
   12CHTO   H71 4934   6.235  -2.711   3.963  1.4472 -2.2037 -0.7959
   12CHTO   O28 4935   6.427  -2.538   4.433  0.0525 -0.2393  0.0398
   12CHTO   C42 4936   6.306  -2.454   4.453 -0.0967 -0.7296  0.4432
   12CHTO   H84 4937   6.246  -2.509   4.525  0.8296 -0.2331  1.6178
   12CHTO   C44 4938   6.212  -2.430   4.330 -0.0365  0.6861 -0.0763
   12CHTO   H86 4939   6.272  -2.375   4.258 -1.6907 -0.0677 -2.0829
   12CHTO   O32 4940   6.173  -2.557   4.270  0.0458 -0.1728  0.3827
   12CHTO   H69 4941   6.251  -2.607   4.256 -0.7958 -0.8954 -1.8763
   12CHTO   C48 4942   6.083  -2.343   4.374  0.7884  0.3568 -0.3382
   12CHTO   H90 4943   6.028  -2.421   4.427  0.4130  0.5282 -0.4765
   12CHTO    N9 4944   5.998  -2.296   4.261 -0.2638 -0.1629 -0.8875
   12CHTO   H77 4945   6.055  -2.258   4.178  1.0372  1.6710  0.7760
   12CHTO   H78 4946   5.917  -2.231   4.292 -2.3072 -1.5892 -3.1090
   12CHTO   C51 4947   6.126  -2.225   4.468 -0.9075  1.2545 -0.4228
   12CHTO   H93 4948   6.150  -2.130   4.419 -2.1433  1.2110 -1.1560
   12CHTO   O30 4949   6.222  -2.255   4.572  0.2691  0.4435  0.5557
   12CHTO   C46 4950   6.340  -2.321   4.525  0.1898  0.4285  0.2105
   12CHTO   H88 4951   6.395  -2.255   4.458  1.1118 -0.7121 -0.1876
   12CHTO   C53 4952   6.429  -2.340   4.651 -0.1642  0.2180 -0.2356
   12CHTO   O72 4953   6.452  -2.224   4.731  0.0175 -0.4222  0.2444
   12CHTO  H199 4954   6.536  -2.182   4.728 -0.2287  0.0147 -0.9132
   12CHTO   O22 4955   6.008  -2.210   4.550 -0.1055  0.1758  0.1295
   12CHTO   C31 4956   5.974  -2.090   4.625 -0.6089  0.6451 -0.5322
   12CHTO   H59 4957   5.874  -2.110   4.670  0.5458 -1.9465  0.9929
   12CHTO   C29 4958   6.067  -2.055   4.750  0.8916  0.0752  0.4113
   12CHTO   H57 4959   6.157  -2.013   4.702  0.4172  0.6472  0.0073
   12CHTO   O21 4960   6.103  -2.175   4.818  0.1264 -0.8811 -0.0533
   12CHTO   H37 4961   6.153  -2.143   4.892  0.9892  0.4140 -1.1688
   12CHTO   C27 4962   5.997  -1.940   4.837  0.6623  0.2490  0.1443
   12CHTO   H55 4963   5.905  -1.984   4.880 -0.3241  1.5024 -0.6575
   12CHTO    N5 4964   6.079  -1.893   4.949  0.6611 -0.4178 -0.5539
   12CHTO   H43 4965   6.032  -1.869   5.043  2.1680  0.4284  0.0028
   12CHTO   H44 4966   6.134  -1.805   4.918  1.4988 -1.0205 -0.8102
   12CHTO   C25 4967   5.957  -1.817   4.741  0.5106  0.0710  0.6319
   12CHTO   H53 4968   6.050  -1.777   4.698  0.0114  0.6068  0.0218
   12CHTO   O17 4969   5.880  -1.864   4.623 -0.0158  0.0958 -0.6609
   12CHTO   C32 4970   5.955  -1.958   4.544 -0.1600 -0.0002 -0.0819
   12CHTO   H60 4971   6.052  -1.915   4.519 -0.3024  0.7294  0.6231
   12CHTO   C36 4972   5.870  -1.985   4.415  0.5033  0.1538  0.0494
   12CHTO   O25 4973   5.844  -1.859   4.358  0.1142 -0.1660 -0.1429
   12CHTO   H40 4974   5.798  -1.867   4.276  2.8233 -0.5252 -1.6864
   12CHTO   O15 4975   5.869  -1.706   4.823 -0.1926  0.1917  0.0889
   12CHTO   C19 4976   5.736  -1.657   4.799  0.1307 -0.1554  0.1336
   12CHTO   H47 4977   5.719  -1.589   4.884 -2.7208  1.8983 -1.9726
   12CHTO   C20 4978   5.721  -1.579   4.661 -0.8699  0.2374 -0.0653
   12CHTO   H48 4979   5.760  -1.642   4.579  2.4857 -0.7827  2.2040
   12CHTO   O19 4980   5.810  -1.460   4.679  0.1706 -0.1602 -0.3240
   12CHTO   H35 4981   5.856  -1.433   4.602  0.2269  0.0932 -0.2008
   12CHTO   C21 4982   5.571  -1.534   4.630 -0.6415  0.8591 -0.0427
   12CHTO   H49 4983   5.545  -1.455   4.699 -1.8189  0.9057 -0.5318
   12CHTO    N4 4984   5.562  -1.483   4.490  0.4748 -0.0863 -0.1582
   12CHTO   H41 4985   5.473  -1.430   4.461 -0.2641 -1.6749 -0.7764
   12CHTO   H42 4986   5.647  -1.419   4.470  1.0426 -1.1713 -1.2657
   12CHTO   C22 4987   5.482  -1.661   4.652  0.2491  0.4288 -0.1527
   12CHTO   H50 4988   5.515  -1.740   4.585 -1.3581  0.3038 -0.8044
   12CHTO   O14 4989   5.494  -1.701   4.792  0.0808  0.4257 -0.2343
   12CHTO   C23 4990   5.621  -1.761   4.823 -0.2718 -0.8108 -0.6863
   12CHTO   H51 4991   5.626  -1.851   4.761 -0.4427 -2.7238  2.0021
   12CHTO   C34 4992   5.632  -1.807   4.971 -0.2412  0.3407 -0.2369
   12CHTO   O23 4993   5.517  -1.886   5.017  0.3617  0.0507 -0.2615
   12CHTO   H38 4994   5.531  -1.895   5.110  1.1933  0.9557 -0.2851
   12CHTO   O16 4995   5.342  -1.635   4.627 -0.2148  0.1573 -0.4496
   12CHTO   C24 4996   5.246  -1.732   4.563 -1.1917 -0.0775 -0.4683
   12CHTO   H52 4997   5.291  -1.831   4.555  0.3567  0.3717  2.2447
   12CHTO   C26 4998   5.203  -1.674   4.425 -0.4283  0.3960 -0.4883
   12CHTO   H54 4999   5.170  -1.568   4.433 -0.7480  0.2784 -0.2508
   12CHTO   O20 5000   5.318  -1.667   4.343 -0.3771  0.2153  0.2778
   12CHTO   H36 5001   5.306  -1.630   4.258  0.9033 -0.5527 -0.2391
   12CHTO   C30 5002   5.093  -1.758   4.361 -0.1061 -0.3887  0.1721
   12CHTO   H58 5003   5.135  -1.847   4.312  1.2805 -1.0124  2.4368
   12CHTO    N6 5004   5.025  -1.686   4.243 -0.4281  0.2824 -0.5280
   12CHTO   H45 5005   4.959  -1.610   4.282  1.0518  0.7021  1.1946
   12CHTO   H46 5006   5.095  -1.643   4.173 -1.3053  1.7903 -0.4918
   12CHTO   C33 5007   4.985  -1.807   4.463 -0.1422  0.5416 -0.9422
   12CHTO   H61 5008   4.921  -1.719   4.476 -3.5110 -1.9405  0.0437
   12CHTO   O18 5009   5.039  -1.849   4.591 -0.0944  0.5255  0.3539
   12CHTO   C28 5010   5.128  -1.754   4.653 -0.7269 -0.3699 -0.2833
   12CHTO   H56 5011   5.070  -1.662   4.657  1.4844  1.1008 -0.9382
   12CHTO   C35 5012   5.178  -1.813   4.789 -0.0513 -0.0268  0.7963
   12CHTO   O24 5013   5.080  -1.830   4.884  0.0586  0.4179  0.2476
   12CHTO   H39 5014   5.011  -1.767   4.877 -0.1780  0.1957  0.5514
   12CHTO    O9 5015   4.895  -1.905   4.408 -0.7236  0.2448 -0.1968
   12CHTO   C13 5016   4.975  -2.054   4.343  0.3501  0.2434  0.3019
   12CHTO   H26 5017   5.082  -2.051   4.371  0.7201 -0.8060 -0.9310
   12CHTO   C11 5018   4.964  -2.065   4.184  0.9140  0.5292  0.4017
   12CHTO   H24 5019   5.021  -1.982   4.138  2.0885 -1.3240 -1.5517
   12CHTO    O8 5020   4.827  -2.056   4.141 -0.0816  0.4306 -0.0061
   12CHTO    H3 5021   4.783  -2.138   4.132 -1.0647  0.8782  0.6545
   12CHTO    C9 5022   5.046  -2.194   4.137 -0.0041 -0.8304  0.5780
   12CHTO   H22 5023   5.144  -2.177   4.183 -0.7764 -0.0618  1.9778
   12CHTO    N2 5024   5.070  -2.221   3.995 -0.1535 -0.2720  0.4213
   12CHTO   H10 5025   5.161  -2.276   3.977 -0.1703 -0.0188 -0.4515
   12CHTO   H11 5026   4.981  -2.268   3.956  0.7506 -1.8591  0.2501
   12CHTO    C7 5027   4.978  -2.320   4.209  0.1858  0.1725  0.1921
   12CHTO   H20 5028   5.047  -2.401   4.175  2.9871  2.1764  0.9688
   12CHTO    O4 5029   4.967  -2.306   4.348 -0.6441 -0.0232 -0.7135
   12CHTO   C14 5030   4.918  -2.188   4.409  0.5865  0.1233 -0.2493
   12CHTO   H27 5031   4.947  -2.188   4.516  1.0488 -0.4431 -0.3740
   12CHTO   C18 5032   4.764  -2.181   4.410 -0.1378 -0.6346 -0.6786
   12CHTO   O13 5033   4.699  -2.261   4.506 -0.5318 -0.2885  0.1446
   12CHTO    H7 5034   4.739  -2.241   4.589  3.5912 -1.6567 -1.4160
   12CHTO    O2 5035   4.815  -2.354   4.135 -0.0440  0.2422 -0.3302
   12CHTO    C1 5036   4.746  -2.475   4.186 -0.3697  0.0804  0.0675
   12CHTO   H14 5037   4.742  -2.463   4.296  1.7717  1.3905  0.0312
   12CHTO    C2 5038   4.814  -2.615   4.161  0.3202  0.6256  0.1185
   12CHTO   H15 5039   4.810  -2.620   4.051  0.7960  0.4584  0.1097
   12CHTO    O6 5040   4.946  -2.616   4.214 -0.8427 -0.1051  0.5256
   12CHTO    H1 5041   4.945  -2.626   4.307  0.4112  0.5627  0.6144
   12CHTO    C3 5042   4.720  -2.738   4.224  0.4201  0.5750  0.0647
   12CHTO   H16 5043   4.712  -2.716   4.331 -1.9010 -1.7116  0.4170
   12CHTO    N1 5044   4.780  -2.869   4.185  0.7407 -0.3455  0.1167
   12CHTO    H8 5045   4.822  -2.921   4.270 -1.1765 -2.1781  0.0042
   12CHTO    H9 5046   4.852  -2.860   4.106 -0.9497 -1.4081 -1.5957
   12CHTO    C4 5047   4.573  -2.722   4.174  0.7183 -0.2559  0.2326
   12CHTO   H17 5048   4.566  -2.751   4.069  0.0662  0.0831  0.1815
   12CHTO    O1 5049   4.532  -2.586   4.203 -0.4930 -0.0695 -0.2114
   12CHTO    C5 5050   4.596  -2.483   4.132  0.3319 -0.5536  0.0131
   12CHTO   H18 5051   4.596  -2.497   4.024 -3.0103 -3.7227  0.3171
   12CHTO   C16 5052   4.523  -2.353   4.160  0.0382  0.0899  0.2445
   12CHTO   O11 5053   4.390  -2.344   4.096 -0.0383 -0.7151 -0.0176
   12CHTO    H5 5054   4.403  -2.311   4.009 -0.4507 -2.3234 -0.7037
   12CHTO    O3 5055   4.484  -2.799   4.260 -0.1479  0.1504  0.0721
   12CHTO    C6 5056   4.344  -2.802   4.215 -0.3589 -0.3516 -0.3542
   12CHTO   H19 5057   4.321  -2.727   4.139  0.3966 -0.3683 -0.5956
   12CHTO    C8 5058   4.315  -2.933   4.139 -0.8537  0.2279 -0.4423
   12CHTO   H21 5059   4.346  -3.016   4.202 -3.7310 -1.4799 -1.1649
   12CHTO    O7 5060   4.376  -2.929   4.007  0.1254 -0.4829 -0.1704
   12CHTO    H2 5061   4.468  -2.917   4.021 -0.4486  2.0623  1.8808
   12CHTO   C12 5062   4.165  -2.953   4.119  1.2138 -0.0065  0.2399
   12CHTO   H25 5063   4.129  -2.873   4.052 -1.4440 -0.1851  1.3910
   12CHTO    N3 5064   4.119  -3.084   4.052 -0.0432  0.1341 -0.2189
   12CHTO   H12 5065   4.172  -3.112   3.962  1.3179 -0.4055  0.7283
   12CHTO   H13 5066   4.012  -3.092   4.044 -0.0475  1.2529 -1.5424
   12CHTO   C15 5067   4.090  -2.924   4.249 -0.2899  0.5307 -0.7766
   12CHTO   H28 5068   4.101  -2.997   4.329 -0.9224 -1.2896 -2.3060
   12CHTO   O10 5069   3.949  -2.907   4.227  0.0815 -0.7399  0.2655
   12CHTO    H4 5070   3.919  -2.836   4.279 -1.0167 -0.5191 -0.6436
   12CHTO    O5 5071   4.121  -2.791   4.293  0.4337  0.4351  0.3104
   12CHTO   C10 5072   4.251  -2.773   4.338  0.5947  0.4511 -0.1426
   12CHTO   H23 5073   4.262  -2.850   4.414 -4.3301 -0.7232 -0.4934
   12CHTO   C17 5074   4.280  -2.632   4.406 -1.0228  0.6202 -0.5381
   12CHTO   O12 5075   4.180  -2.577   4.481 -0.3027  0.1019  0.7581
   12CHTO    H6 5076   4.200  -2.486   4.488  0.6464 -0.1380  1.1332
   13CHTO  H203 5077   7.306   3.873   1.597 -1.5591 -3.0678 -1.2871
   13CHTO   O82 5078   7.223   3.907   1.625 -0.0126 -0.0426 -0.1802
   13CHTO  C123 5079   7.191   4.030   1.568  0.6436  0.5344 -0.0638
   13CHTO  H227 5080   7.204   4.020   1.459 -0.2452 -0.3528 -0.0906
   13CHTO   O77 5081   7.051   4.043   1.609  0.0189  0.0761 -0.1964
   13CHTO  C118 5082   6.991   4.171   1.568 -0.0428 -0.1038  0.4266
   13CHTO  H222 5083   7.000   4.164   1.458 -2.2167  1.2913  0.1320
   13CHTO  C125 5084   6.830   4.167   1.610 -0.0904 -0.1730  0.1134
   13CHTO   O84 5085   6.759   4.071   1.525 -0.0183 -0.4499 -0.3125
   13CHTO  H205 5086   6.667   4.066   1.543 -0.3718 -0.6403 -2.1051
   13CHTO  C114 5087   7.063   4.297   1.621 -0.0288 -0.0039 -0.0360
   13CHTO  H218 5088   7.070   4.286   1.729  1.4048  1.2244  0.0142
   13CHTO  C116 5089   7.215   4.285   1.574  0.0718 -0.0331  0.3491
   13CHTO  H220 5090   7.213   4.291   1.463  0.7418 -1.5723  0.2396
   13CHTO   O79 5091   7.288   4.393   1.626 -0.7604  0.1694 -0.0595
   13CHTO  H201 5092   7.378   4.378   1.604 -0.9542 -2.3213  0.7088
   13CHTO  C120 5093   7.280   4.153   1.619 -0.6505  0.0564  0.0615
   13CHTO  H224 5094   7.278   4.148   1.730 -0.2153  0.4045  0.0873
   13CHTO   N21 5095   7.422   4.132   1.578 -0.1620 -0.0745 -0.1761
   13CHTO  H211 5096   7.475   4.226   1.568  1.2642 -0.8876 -0.3508
   13CHTO  H212 5097   7.475   4.073   1.650 -0.2976 -1.0832 -0.8975
   13CHTO   O75 5098   6.987   4.411   1.579  0.2251 -0.1182  0.2122
   13CHTO  C112 5099   6.923   4.512   1.708  0.5357  0.2242 -0.0407
   13CHTO  H216 5100   6.939   4.458   1.803  1.7850 -1.3535 -1.1144
   13CHTO   O73 5101   6.780   4.530   1.684  0.4879  0.4125 -0.2114
   13CHTO  C113 5102   6.698   4.585   1.788  0.3504 -0.3345 -0.2517
   13CHTO  H217 5103   6.713   4.528   1.882  1.5854  1.3519  0.6129
   13CHTO  C124 5104   6.552   4.571   1.746  0.1113 -0.5541 -0.4747
   13CHTO   O83 5105   6.500   4.436   1.770  0.4287 -0.0290 -0.4738
   13CHTO  H204 5106   6.469   4.424   1.858  2.9662 -0.4332  0.4061
   13CHTO  C109 5107   6.746   4.733   1.808 -0.6907 -0.0497  0.9623
   13CHTO  H213 5108   6.719   4.787   1.716 -3.1936 -0.9510  1.1127
   13CHTO  C110 5109   6.905   4.734   1.832 -0.0660 -0.4921  0.2068
   13CHTO  H214 5110   6.919   4.693   1.932 -1.2147  0.3315  0.7274
   13CHTO   O78 5111   6.958   4.871   1.832 -0.2655 -0.1998  0.0577
   13CHTO  H200 5112   6.944   4.905   1.746 -0.3739 -0.2157  0.0693
   13CHTO  C111 5113   6.987   4.652   1.725  0.4226  0.6177  0.1571
   13CHTO  H215 5114   6.979   4.703   1.627 -0.4814  1.0708  0.4617
   13CHTO   N19 5115   7.135   4.647   1.763 -0.1911  0.2404 -0.4638
   13CHTO  H207 5116   7.194   4.620   1.676  0.0731 -0.6660 -0.0084
   13CHTO  H208 5117   7.159   4.751   1.781  0.7398 -0.1147  0.3596
   13CHTO   O74 5118   6.682   4.792   1.916  0.2115  0.2292  0.7425
   13CHTO  C115 5119   6.670   4.975   1.890 -0.2836 -0.1456  0.1655
   13CHTO  H219 5120   6.766   5.020   1.863 -2.3858  3.4180 -1.8042
   13CHTO   O76 5121   6.572   5.017   1.746  0.0348 -0.5768  0.1690
   13CHTO  C122 5122   6.441   4.947   1.757 -0.9326 -0.0720  1.0159
   13CHTO  H226 5123   6.462   4.841   1.744 -0.4957  0.1692 -0.3160
   13CHTO  C126 5124   6.339   4.983   1.653 -0.5492 -0.7051  0.0343
   13CHTO   O85 5125   6.385   4.949   1.522  0.2036 -0.1735  0.0195
   13CHTO  H206 5126   6.376   5.021   1.462 -0.8535  0.0541  0.4421
   13CHTO  C121 5127   6.383   4.972   1.906 -0.3643  0.6276  0.5690
   13CHTO  H225 5128   6.277   5.002   1.893 -0.5116 -0.6223 -1.4735
   13CHTO   O81 5129   6.385   4.854   1.984 -0.5241  0.6767 -0.3179
   13CHTO  H202 5130   6.335   4.868   2.063  0.9524 -0.2996  0.8124
   13CHTO  C119 5131   6.458   5.080   1.987  0.5731 -0.3748 -0.6977
   13CHTO  H223 5132   6.457   5.170   1.926  0.8436  1.0244  1.2938
   13CHTO  C117 5133   6.609   5.040   2.016 -0.4073 -0.4102  0.5852
   13CHTO  H221 5134   6.635   4.963   2.090  3.1364  1.3644  1.3226
   13CHTO   N20 5135   6.686   5.165   2.065  0.1868 -0.7569 -0.5621
   13CHTO  H209 5136   6.788   5.131   2.081  0.1520 -0.6339 -0.0663
   13CHTO  H210 5137   6.667   5.249   2.000  1.0386 -0.2307 -0.1412
   13CHTO   O80 5138   6.379   5.131   2.126  0.7980 -0.2579  0.6390
   13CHTO  C103 5139   6.238   5.184   2.120 -0.4392  0.8294 -0.1154
   13CHTO  H190 5140   6.216   5.256   2.199  0.7750  1.0049  0.0630
   13CHTO  C101 5141   6.191   5.255   1.993 -1.0196  0.1585  0.5940
   13CHTO  H188 5142   6.224   5.197   1.907  1.1811  1.5731  0.4538
   13CHTO   O68 5143   6.269   5.397   1.975 -0.3135  0.0101  0.2862
   13CHTO  H168 5144   6.241   5.437   1.895 -1.7243 -1.0059  0.2458
   13CHTO   C99 5145   6.037   5.277   1.989  0.3841 -0.3259  0.3953
   13CHTO  H186 5146   6.020   5.339   2.080  0.3476 -1.1927  0.9804
   13CHTO   N17 5147   5.988   5.347   1.863 -0.5325 -0.3657  0.0455
   13CHTO  H174 5148   5.911   5.421   1.873  0.1214  0.3016  0.1891
   13CHTO  H175 5149   5.993   5.280   1.778 -0.0260 -1.1070  0.6518
   13CHTO   C97 5150   5.955   5.146   2.013 -0.5150  0.3899 -0.3634
   13CHTO  H184 5151   5.974   5.074   1.932  0.3576  0.3372 -0.1163
   13CHTO   O64 5152   5.995   5.096   2.133 -0.4004 -0.6643  0.5616
   13CHTO  C104 5153   6.133   5.064   2.143 -0.1734 -0.1709 -0.2847
   13CHTO  H191 5154   6.159   4.982   2.076  1.8253 -1.5173  2.0400
   13CHTO  C108 5155   6.142   5.009   2.284 -0.1636 -0.7620  0.3919
   13CHTO   O71 5156   6.264   4.934   2.311  0.5917 -0.1371 -0.2650
   13CHTO  H171 5157   6.260   4.929   2.404  0.5331 -0.5269 -0.2892
   13CHTO   O62 5158   5.813   5.153   2.043 -0.3684 -0.0244 -0.2138
   13CHTO   C91 5159   5.740   5.026   2.039  0.7609  0.4124 -0.1755
   13CHTO  H178 5160   5.810   4.944   2.053 -1.6914 -1.6917  0.1305
   13CHTO   C92 5161   5.686   5.007   1.895 -0.3379  0.1471  0.1354
   13CHTO  H179 5162   5.636   5.101   1.868 -1.2545  0.6269  3.2860
   13CHTO   O66 5163   5.798   4.989   1.808 -0.7475 -0.3877 -0.0173
   13CHTO  H166 5164   5.772   4.947   1.729 -2.0579  1.0371 -0.3603
   13CHTO   C93 5165   5.586   4.883   1.880  0.8714  0.0426  0.0230
   13CHTO  H180 5166   5.635   4.787   1.900  2.5696  0.7806 -0.5435
   13CHTO   N16 5167   5.529   4.885   1.742 -0.1163 -0.3515  0.1754
   13CHTO  H172 5168   5.473   4.794   1.727  0.2196 -0.4358 -0.5858
   13CHTO  H173 5169   5.611   4.899   1.674 -0.0545 -4.6340 -0.7983
   13CHTO   C94 5170   5.474   4.906   1.989  0.1812 -0.1145 -0.3025
   13CHTO  H181 5171   5.423   5.002   1.978  0.8117  0.2185 -0.2964
   13CHTO   O61 5172   5.532   4.906   2.120  0.1823 -0.1605 -0.4195
   13CHTO   C95 5173   5.621   5.015   2.153  0.0259 -0.0694  0.1730
   13CHTO  H182 5174   5.566   5.109   2.159  1.5452  0.9038 -0.8593
   13CHTO  C106 5175   5.692   4.989   2.289  0.4930  0.1849 -0.4768
   13CHTO   O69 5176   5.763   4.861   2.296 -0.8707 -0.3573 -0.4106
   13CHTO  H169 5177   5.826   4.846   2.229  0.7817 -0.0301  1.0233
   13CHTO   O63 5178   5.367   4.785   1.986  0.1505  0.6308  0.1218
   13CHTO   C96 5179   5.229   4.834   2.022  0.9818 -0.9322 -0.3847
   13CHTO  H183 5180   5.203   4.907   1.945 -0.2806 -1.3766 -0.3878
   13CHTO   C98 5181   5.215   4.900   2.159  0.1165  0.0927  0.9266
   13CHTO  H185 5182   5.296   4.973   2.174 -0.7482  1.0338  1.0010
   13CHTO   O67 5183   5.095   4.981   2.155 -0.5224  0.0612  0.1432
   13CHTO  H167 5184   5.078   5.021   2.238 -0.9590  0.7161 -0.2525
   13CHTO  C102 5185   5.211   4.803   2.282  0.2539 -0.6894  0.4317
   13CHTO  H189 5186   5.176   4.874   2.359 -2.0990  0.7145 -1.8533
   13CHTO   N18 5187   5.340   4.745   2.326 -0.1679 -0.4775 -0.6663
   13CHTO  H176 5188   5.417   4.729   2.251 -0.8065  0.1622 -1.4713
   13CHTO  H177 5189   5.327   4.653   2.380 -1.4067 -1.7672 -3.0769
   13CHTO  C105 5190   5.104   4.693   2.258  0.0098  0.7573 -0.1964
   13CHTO  H192 5191   5.145   4.593   2.270 -0.0736  0.5673 -1.4377
   13CHTO   O65 5192   5.047   4.693   2.125  0.5007  0.1046 -0.5601
   13CHTO  C100 5193   5.141   4.708   2.020 -0.3049  0.7479  0.6011
   13CHTO  H187 5194   5.209   4.622   2.015  0.8994  1.7275 -0.5232
   13CHTO  C107 5195   5.064   4.703   1.883  0.3880 -0.6616 -0.7197
   13CHTO   O70 5196   5.158   4.695   1.775 -0.2896 -0.4620 -0.1970
   13CHTO  H170 5197   5.189   4.607   1.767 -0.0240 -0.2541 -1.5503
   13CHTO   O57 5198   4.997   4.713   2.377 -0.6302  0.0979  0.5758
   13CHTO   C85 5199   4.913   4.600   2.411  0.1495 -0.4427  0.5997
   13CHTO  H157 5200   4.920   4.525   2.329  0.5263 -0.3812  0.5758
   13CHTO   C83 5201   4.761   4.635   2.399 -0.5961  0.3419  0.4486
   13CHTO  H155 5202   4.743   4.657   2.293  1.0814  1.1604  0.3212
   13CHTO   O56 5203   4.732   4.762   2.472  0.5479 -0.1061  0.0861
   13CHTO  H135 5204   4.751   4.752   2.563 -2.1388 -1.3052  0.5427
   13CHTO   C81 5205   4.677   4.514   2.434  0.6654  0.2982  0.1037
   13CHTO  H153 5206   4.699   4.433   2.365  0.2243  0.4950 -0.2691
   13CHTO   N14 5207   4.532   4.546   2.435  0.0107 -0.1375  0.7397
   13CHTO  H141 5208   4.517   4.624   2.507  1.7665 -0.6460  1.6836
   13CHTO  H142 5209   4.519   4.585   2.336  2.2451 -0.0064  0.4799
   13CHTO   C79 5210   4.708   4.462   2.579 -0.0848  0.1776 -0.0288
   13CHTO  H151 5211   4.661   4.365   2.591 -0.3282  0.4581  1.4015
   13CHTO   O52 5212   4.847   4.430   2.586  0.3301  0.1220  0.0056
   13CHTO   C86 5213   4.942   4.536   2.553 -0.4130 -0.6934  0.6503
   13CHTO  H158 5214   4.940   4.615   2.632 -0.1151 -0.3671  0.3337
   13CHTO   C90 5215   5.083   4.477   2.562  0.4529 -0.2654 -0.0601
   13CHTO   O60 5216   5.123   4.482   2.698  0.4609 -0.2721 -0.4706
   13CHTO  H138 5217   5.212   4.452   2.694  0.3670 -0.4796 -1.1903
   13CHTO   O50 5218   4.675   4.554   2.683  0.2553 -0.2373 -0.3324
   13CHTO   C73 5219   4.579   4.506   2.780  0.0333  0.0701  0.3713
   13CHTO  H145 5220   4.546   4.404   2.753  0.4833 -0.0968  0.4384
   13CHTO   C74 5221   4.444   4.589   2.803 -0.3103  0.0995  0.0023
   13CHTO  H146 5222   4.397   4.600   2.704  0.9052  0.5954 -0.5230
   13CHTO   O54 5223   4.356   4.507   2.882  0.1478 -0.1556  0.0720
   13CHTO  H133 5224   4.397   4.485   2.963 -2.8317 -1.0743  1.4159
   13CHTO   C75 5225   4.484   4.734   2.867  0.5419 -0.0930  0.0564
   13CHTO  H147 5226   4.547   4.788   2.795 -0.4843 -1.3137 -1.8118
   13CHTO   N13 5227   4.374   4.828   2.887 -0.0936 -0.0113  0.4737
   13CHTO  H139 5228   4.291   4.784   2.941  2.1951 -1.8844  2.5995
   13CHTO  H140 5229   4.346   4.863   2.789 -2.8777 -3.2145  0.0250
   13CHTO   C76 5230   4.578   4.701   3.000  0.5828 -0.0538 -0.4813
   13CHTO  H148 5231   4.517   4.639   3.066  1.6491 -0.3036  0.2744
   13CHTO   O49 5232   4.692   4.632   2.960 -0.4664 -0.2331 -0.3422
   13CHTO   C77 5233   4.657   4.496   2.918  0.0020  0.3371  0.7389
   13CHTO  H149 5234   4.600   4.434   2.987 -0.6132 -0.7593 -0.7185
   13CHTO   C88 5235   4.783   4.409   2.902  0.2583  0.3566 -0.0177
   13CHTO   O58 5236   4.851   4.359   3.013 -0.1465 -0.2171  0.3846
   13CHTO  H136 5237   4.796   4.304   3.065  0.5449 -1.6812 -0.4017
   13CHTO   O51 5238   4.645   4.844   3.066  0.4212  0.0925 -0.5298
   13CHTO   C78 5239   4.722   4.800   3.201 -0.4123  0.4033  0.1597
   13CHTO  H150 5240   4.731   4.690   3.201 -3.7802  0.0381  2.3960
   13CHTO   C80 5241   4.648   4.849   3.330  0.0102  0.4980 -0.1982
   13CHTO  H152 5242   4.623   4.957   3.319  0.4284  0.5499 -0.6722
   13CHTO   O55 5243   4.513   4.798   3.338 -0.1870  0.3100 -0.2002
   13CHTO  H134 5244   4.471   4.830   3.415 -1.5978 -0.4441 -0.6575
   13CHTO   C84 5245   4.729   4.822   3.462  0.5122  0.0873 -0.2215
   13CHTO  H156 5246   4.725   4.715   3.484  1.9319  0.0784 -0.0109
   13CHTO   N15 5247   4.670   4.894   3.582  0.7703  0.0292 -0.0342
   13CHTO  H143 5248   4.632   4.840   3.667  1.2797 -1.2143 -0.5865
   13CHTO  H144 5249   4.616   4.985   3.566  0.4968  0.2336  1.8878
   13CHTO   C87 5250   4.878   4.856   3.455 -0.0116  0.2323 -0.0454
   13CHTO  H159 5251   4.889   4.964   3.458  1.6911  0.1226 -1.5185
   13CHTO   O53 5252   4.943   4.793   3.310 -0.1216 -0.3127 -0.0813
   13CHTO   C82 5253   4.868   4.854   3.201 -0.5322  0.0608  0.4822
   13CHTO  H154 5254   4.870   4.962   3.214  1.2793 -0.1387  2.2175
   13CHTO   C89 5255   4.948   4.817   3.075  0.6363 -0.1168 -0.4779
   13CHTO   O59 5256   4.971   4.681   3.067 -0.6013  0.7202  0.2487
   13CHTO  H137 5257   4.914   4.641   3.004  0.8900  1.1326 -1.3960
   13CHTO   O45 5258   4.959   4.792   3.590  0.5482 -0.0585 -0.9685
   13CHTO   C67 5259   5.095   4.769   3.572  0.1377  0.1535 -0.4121
   13CHTO  H124 5260   5.112   4.711   3.481 -0.7963 -0.3529 -0.2671
   13CHTO   C65 5261   5.170   4.905   3.564 -0.7277  0.5024  0.2170
   13CHTO  H122 5262   5.101   4.977   3.610 -3.1102 -1.3531 -0.3942
   13CHTO   O44 5263   5.173   4.943   3.424  0.4797  0.6525 -0.3976
   13CHTO  H102 5264   5.098   4.997   3.407 -1.5125 -1.5456  1.0917
   13CHTO   C63 5265   5.306   4.914   3.650 -0.4360  0.4078  0.2658
   13CHTO  H120 5266   5.285   4.928   3.756 -1.2191  1.0934  0.0166
   13CHTO   N11 5267   5.385   5.044   3.634 -0.2051 -0.3051  0.4845
   13CHTO  H108 5268   5.461   5.053   3.708  1.2627  1.5450 -1.1815
   13CHTO  H109 5269   5.423   5.057   3.535 -1.2256  0.0168  0.1289
   13CHTO   C61 5270   5.384   4.781   3.633 -0.1712  0.2114 -0.3856
   13CHTO  H118 5271   5.470   4.791   3.700 -0.2648  3.3316 -0.6329
   13CHTO   O40 5272   5.306   4.664   3.670 -0.1631  0.5520  0.3167
   13CHTO   C68 5273   5.157   4.677   3.686 -0.5864  0.3220 -0.1871
   13CHTO  H125 5274   5.145   4.725   3.785  0.1782 -0.3511  0.2380
   13CHTO   C72 5275   5.101   4.530   3.692  0.4651 -0.4229  0.0870
   13CHTO   O48 5276   5.166   4.438   3.774 -0.0807 -0.1866 -0.0890
   13CHTO  H105 5277   5.191   4.470   3.858  0.3914 -1.5444  0.3000
   13CHTO   O38 5278   5.428   4.781   3.491 -0.1247 -0.0170  0.3667
   13CHTO   C55 5279   5.553   4.721   3.463 -0.1298  0.5835  0.2944
   13CHTO  H112 5280   5.551   4.702   3.355 -1.4456  1.0474  0.2364
   13CHTO   C56 5281   5.582   4.584   3.544 -1.3613 -1.1187  0.0514
   13CHTO  H113 5282   5.578   4.627   3.645 -0.6703 -0.0943 -0.3548
   13CHTO   O42 5283   5.481   4.486   3.545  0.8997  0.9809  0.4033
   13CHTO  H100 5284   5.397   4.529   3.546  1.2948  1.7544  0.7099
   13CHTO   C57 5285   5.726   4.530   3.510  0.3218  0.0331  0.2793
   13CHTO  H114 5286   5.719   4.487   3.410 -0.2693  0.7793 -0.0054
   13CHTO   N10 5287   5.774   4.426   3.604  0.4869  0.3369 -0.1367
   13CHTO  H106 5288   5.841   4.357   3.554  1.1842  0.4846  0.5743
   13CHTO  H107 5289   5.688   4.370   3.638  0.9967 -1.4249 -1.6611
   13CHTO   C58 5290   5.832   4.645   3.507 -0.3202  0.4693 -0.3752
   13CHTO  H115 5291   5.855   4.672   3.612  0.5206  0.5675 -0.5800
   13CHTO   O37 5292   5.792   4.763   3.439  0.0281  0.4800  0.0629
   13CHTO   C59 5293   5.668   4.819   3.486 -0.8451 -0.1425 -0.6721
   13CHTO  H116 5294   5.668   4.841   3.592 -2.7323  0.1904 -0.7329
   13CHTO   C70 5295   5.645   4.951   3.410  0.3228 -1.2019  0.0108
   13CHTO   O46 5296   5.742   5.047   3.441  0.0916  0.0666 -0.4379
   13CHTO  H103 5297   5.713   5.136   3.442  2.2593  0.8489 -1.6174
   13CHTO   O39 5298   5.965   4.605   3.414  0.1946 -0.4768  0.0652
   13CHTO   C60 5299   6.078   4.688   3.455  0.4572 -0.1854 -0.1859
   13CHTO  H117 5300   6.056   4.763   3.531 -0.6901 -1.4946  0.7984
   13CHTO   C62 5301   6.179   4.587   3.524 -0.2379  0.2776  0.2236
   13CHTO  H119 5302   6.122   4.552   3.612 -0.0211  2.3603  1.2224
   13CHTO   O43 5303   6.216   4.470   3.442  0.1310  0.1468 -0.0552
   13CHTO  H101 5304   6.287   4.424   3.482  0.9234 -0.2560 -1.8989
   13CHTO   C66 5305   6.302   4.671   3.573 -0.4395 -0.4050 -0.6030
   13CHTO  H123 5306   6.261   4.753   3.632 -0.1488  0.1010 -1.1024
   13CHTO   N12 5307   6.396   4.592   3.666 -0.3382  0.0922 -0.2978
   13CHTO  H110 5308   6.499   4.625   3.663 -0.6645  0.9826 -2.0882
   13CHTO  H111 5309   6.360   4.597   3.768 -0.2085  0.1456 -0.2539
   13CHTO   C69 5310   6.380   4.726   3.454 -0.3203  0.1552 -0.1371
   13CHTO  H126 5311   6.396   4.642   3.383 -0.5554 -0.3260  0.3820
   13CHTO   O41 5312   6.290   4.828   3.390  1.0573  0.5548  0.1163
   13CHTO   C64 5313   6.149   4.764   3.335  0.1460 -0.0917  0.4156
   13CHTO  H121 5314   6.170   4.694   3.252 -0.2965 -0.3378  0.5129
   13CHTO   C71 5315   6.049   4.877   3.281 -0.1986  0.2939 -0.4292
   13CHTO   O47 5316   6.041   4.991   3.371  0.3972  0.4537 -0.3574
   13CHTO  H104 5317   6.128   5.013   3.398  0.3588  0.0893  0.0548
   13CHTO   O34 5318   6.503   4.800   3.483 -0.0732  0.3850  0.2128
   13CHTO   C49 5319   6.604   4.858   3.385 -0.0035  0.1809  0.6733
   13CHTO   H91 5320   6.622   4.779   3.312  1.8233  1.2326 -0.0579
   13CHTO   C47 5321   6.739   4.893   3.456 -0.4134  0.2404 -0.3726
   13CHTO   H89 5322   6.803   4.927   3.372 -0.1335 -0.3219 -0.3912
   13CHTO   O33 5323   6.792   4.768   3.504  0.2141 -0.6169 -0.2026
   13CHTO   H70 5324   6.886   4.766   3.508  0.2516  1.0419 -0.0445
   13CHTO   C45 5325   6.708   5.005   3.567 -0.8182 -0.0532  0.1548
   13CHTO   H87 5326   6.679   4.949   3.657 -0.2795 -0.7202 -0.0790
   13CHTO    N8 5327   6.826   5.079   3.595 -0.2695 -0.3729  0.1052
   13CHTO   H75 5328   6.909   5.014   3.619  0.9949  1.1401 -0.0743
   13CHTO   H76 5329   6.820   5.150   3.676  0.3431 -0.0958 -0.0887
   13CHTO   C43 5330   6.579   5.092   3.532  0.0418 -0.1309  0.2672
   13CHTO   H85 5331   6.500   5.033   3.577  0.3853 -1.9552 -1.4440
   13CHTO   O29 5332   6.568   5.112   3.390 -0.3501  0.0703  0.0974
   13CHTO   C50 5333   6.553   4.986   3.318 -0.2853 -0.1607  0.0007
   13CHTO   H92 5334   6.447   4.969   3.294 -0.3515  0.2988 -0.0201
   13CHTO   C54 5335   6.615   5.001   3.176 -0.1178  0.2068  0.0670
   13CHTO   O36 5336   6.547   5.098   3.093 -0.3652  0.0565 -0.1777
   13CHTO   H72 5337   6.466   5.068   3.057  0.4173  0.1408 -2.0626
   13CHTO   O27 5338   6.570   5.218   3.609 -0.3776  0.4181  0.1382
   13CHTO   C37 5339   6.457   5.301   3.632  0.1320 -0.0170 -0.4073
   13CHTO   H79 5340   6.365   5.258   3.589  0.1665 -0.6032  0.0938
   13CHTO   C38 5341   6.446   5.318   3.787 -0.1119 -0.1129 -0.7187
   13CHTO   H80 5342   6.542   5.356   3.825  0.4534 -0.4620 -1.7829
   13CHTO   O31 5343   6.411   5.188   3.841  0.5498 -0.5534  0.5355
   13CHTO   H68 5344   6.427   5.179   3.933  2.7111  0.0550  0.2546
   13CHTO   C39 5345   6.334   5.424   3.836  0.0777  0.0763  0.4804
   13CHTO   H81 5346   6.237   5.386   3.807  0.7730 -1.1277 -0.3157
   13CHTO    N7 5347   6.341   5.444   3.984 -0.1628  0.4174 -0.6396
   13CHTO   H73 5348   6.408   5.372   4.030  1.0988 -0.4077 -3.6496
   13CHTO   H74 5349   6.243   5.432   4.026  0.5391  0.1249  0.9525
   13CHTO   C40 5350   6.359   5.552   3.754 -0.1222 -0.1817 -0.5908
   13CHTO   H82 5351   6.453   5.593   3.791  0.0681 -0.9401 -0.2137
   13CHTO   O26 5352   6.363   5.528   3.614  0.0443  0.1213 -0.4471
   13CHTO   C41 5353   6.472   5.447   3.570 -0.1757  0.7819 -0.0055
   13CHTO   H83 5354   6.569   5.490   3.600  1.5292 -2.0137 -1.2962
   13CHTO   C52 5355   6.469   5.437   3.413  0.4287 -1.2628  0.9081
   13CHTO   O35 5356   6.500   5.562   3.355  0.3609  0.2430  0.6403
   13CHTO   H71 5357   6.591   5.583   3.357  0.3277  0.7349 -1.2152
   13CHTO   O28 5358   6.252   5.649   3.774  0.7497 -0.9513 -0.0949
   13CHTO   C42 5359   6.262   5.784   3.735 -0.4246  0.3025 -0.0104
   13CHTO   H84 5360   6.332   5.790   3.652 -1.0695 -0.1021 -0.5883
   13CHTO   C44 5361   6.324   5.888   3.838  0.3542 -0.5397  0.0245
   13CHTO   H86 5362   6.283   5.863   3.936  3.1137  1.0097  1.6266
   13CHTO   O32 5363   6.466   5.863   3.856  0.0897  0.1273  0.4081
   13CHTO   H69 5364   6.524   5.937   3.856 -1.4280  1.3569 -0.8646
   13CHTO   C48 5365   6.292   6.038   3.803  0.1698 -0.4826  0.1090
   13CHTO   H90 5366   6.359   6.081   3.729  1.1301 -0.4179  1.0136
   13CHTO    N9 5367   6.336   6.128   3.916 -0.0623  0.2703 -0.4922
   13CHTO   H77 5368   6.436   6.164   3.897  0.8877 -1.5739  0.8733
   13CHTO   H78 5369   6.347   6.075   4.010  0.2975  1.9569  0.4508
   13CHTO   C51 5370   6.139   6.057   3.752  0.6537 -0.3688 -0.3314
   13CHTO   H93 5371   6.074   6.039   3.838  1.1605 -0.4199  0.0523
   13CHTO   O30 5372   6.114   5.968   3.644  0.2036  0.3019 -0.0608
   13CHTO   C46 5373   6.129   5.832   3.672  0.0742  0.3443  0.3489
   13CHTO   H88 5374   6.056   5.815   3.752 -1.4878  1.7383 -0.7435
   13CHTO   C53 5375   6.085   5.752   3.548 -0.0361  0.3321 -0.0658
   13CHTO   O72 5376   6.170   5.762   3.435  0.2831  0.1717  0.4094
   13CHTO  H199 5377   6.221   5.684   3.422 -0.2618  0.3877 -3.7287
   13CHTO   O22 5378   6.120   6.192   3.722  0.4545  0.0804 -0.7240
   13CHTO   C31 5379   5.976   6.238   3.710 -0.3333  0.3106  0.3970
   13CHTO   H59 5380   5.912   6.148   3.720  0.6413 -0.4292  0.1117
   13CHTO   C29 5381   5.937   6.332   3.827 -0.0446 -0.5085 -0.3726
   13CHTO   H57 5382   5.995   6.423   3.811  1.4675 -1.2542  0.7682
   13CHTO   O21 5383   5.974   6.278   3.953 -0.3894 -0.4317  0.1268
   13CHTO   H37 5384   5.963   6.185   3.959 -1.8540 -0.2811 -0.0621
   13CHTO   C27 5385   5.782   6.358   3.811 -0.0203  0.0251 -0.0756
   13CHTO   H55 5386   5.731   6.263   3.834  3.4758 -1.3990  2.1628
   13CHTO    N5 5387   5.739   6.458   3.911  0.5970 -0.0441  0.1676
   13CHTO   H43 5388   5.816   6.530   3.935  1.0191 -0.4976  0.1790
   13CHTO   H44 5389   5.641   6.494   3.883 -0.7673 -2.8601  1.0437
   13CHTO   C25 5390   5.733   6.390   3.664  0.2260 -0.1456 -0.7195
   13CHTO   H53 5391   5.766   6.491   3.635 -2.0867  1.8074  3.0692
   13CHTO   O17 5392   5.797   6.294   3.580 -0.2670  0.3229 -0.0017
   13CHTO   C32 5393   5.941   6.307   3.574 -0.2510 -0.4368 -0.0353
   13CHTO   H60 5394   5.970   6.412   3.573  0.0803 -0.4892  1.9682
   13CHTO   C36 5395   5.994   6.224   3.453 -0.1112  0.3964  0.5598
   13CHTO   O25 5396   5.984   6.287   3.328  0.5718  0.4018 -0.6291
   13CHTO   H40 5397   6.010   6.377   3.338  0.1680  0.5829 -1.1501
   13CHTO   O15 5398   5.594   6.382   3.648  0.3238 -0.0445  0.1685
   13CHTO   C19 5399   5.478   6.458   3.695  0.0041 -0.0837  0.5214
   13CHTO   H47 5400   5.511   6.519   3.780  0.7796 -0.0695  0.2094
   13CHTO   C20 5401   5.401   6.553   3.599 -0.4119  0.1662 -0.3207
   13CHTO   H48 5402   5.338   6.499   3.527 -1.6988  0.6262  0.4490
   13CHTO   O19 5403   5.514   6.622   3.534 -0.0851  0.1868  0.2241
   13CHTO   H35 5404   5.507   6.714   3.550 -1.2111  0.1526 -0.0386
   13CHTO   C21 5405   5.314   6.644   3.680  1.2729  0.1804 -0.0872
   13CHTO   H49 5406   5.376   6.689   3.757  0.9681 -0.8176  0.7426
   13CHTO    N4 5407   5.248   6.750   3.589 -0.0991  0.4672  0.2778
   13CHTO   H41 5408   5.323   6.814   3.545 -0.6027  1.0249  0.2319
   13CHTO   H42 5409   5.182   6.719   3.510 -0.2470  0.2671  0.4800
   13CHTO   C22 5410   5.206   6.558   3.751  0.9183 -0.1181 -0.3500
   13CHTO   H50 5411   5.131   6.520   3.682  1.5255 -1.2401 -0.4072
   13CHTO   O14 5412   5.265   6.443   3.819 -0.4309  0.3771 -0.5779
   13CHTO   C23 5413   5.366   6.363   3.756 -0.0156  0.2651 -0.1567
   13CHTO   H51 5414   5.320   6.299   3.679  0.9673  0.1757 -0.6768
   13CHTO   C34 5415   5.407   6.265   3.869 -0.1511  0.2259 -0.1425
   13CHTO   O23 5416   5.290   6.179   3.891 -0.1907 -0.1281  0.0821
   13CHTO   H38 5417   5.300   6.103   3.837  1.1058  0.6185 -0.7517
   13CHTO   O16 5418   5.151   6.625   3.867 -0.5249  0.5165 -0.3552
   13CHTO   C24 5419   4.996   6.573   3.903  0.7969 -0.2700 -0.2140
   13CHTO   H52 5420   4.966   6.488   3.842 -1.2699  1.9767 -2.4684
   13CHTO   C26 5421   4.902   6.688   3.879  0.1838  0.0161  0.0107
   13CHTO   H54 5422   4.943   6.783   3.918  1.0444 -0.0257 -0.7549
   13CHTO   O20 5423   4.900   6.698   3.737 -0.4259 -0.2936  0.2911
   13CHTO   H36 5424   4.968   6.750   3.699  0.4669 -3.1490 -2.2277
   13CHTO   C30 5425   4.756   6.669   3.940 -0.4612 -0.1412 -0.9869
   13CHTO   H58 5426   4.699   6.597   3.881  0.2890 -1.1939 -0.4480
   13CHTO    N6 5427   4.685   6.800   3.934 -0.6392  0.5573 -0.1362
   13CHTO   H45 5428   4.720   6.857   3.850 -0.3281  0.5051 -0.0434
   13CHTO   H46 5429   4.710   6.853   4.025  0.8874  0.5208 -0.5280
   13CHTO   C33 5430   4.772   6.624   4.084 -0.8456 -0.2372 -0.3815
   13CHTO   H61 5431   4.809   6.712   4.139 -0.3445 -0.0500 -1.0122
   13CHTO   O18 5432   4.855   6.507   4.103  0.1157  0.6622  0.5624
   13CHTO   C28 5433   4.989   6.529   4.053  0.3483  0.1294  0.0880
   13CHTO   H56 5434   5.046   6.601   4.113  1.4824  0.1148 -0.9502
   13CHTO   C35 5435   5.052   6.396   4.060 -0.4262 -0.3571 -0.3441
   13CHTO   O24 5436   5.194   6.397   4.095  0.0947 -0.0481  0.1357
   13CHTO   H39 5437   5.215   6.366   4.181  0.7425  0.6254  0.2223
   13CHTO    O9 5438   4.639   6.605   4.141 -0.0825 -0.4844  0.1413
   13CHTO   C13 5439   4.655   6.574   4.310  0.0922  0.5905 -0.2230
   13CHTO   H26 5440   4.739   6.633   4.352 -0.8011  0.4464  1.8384
   13CHTO   C11 5441   4.669   6.425   4.341  0.8508 -0.0450 -0.4326
   13CHTO   H24 5442   4.776   6.399   4.339  1.2363  1.5294 -1.2207
   13CHTO    O8 5443   4.586   6.358   4.243 -0.2632 -0.0572  0.0563
   13CHTO    H3 5444   4.627   6.343   4.161 -0.4666 -0.2391 -0.0124
   13CHTO    C9 5445   4.619   6.393   4.486  1.1508  0.3847 -0.3799
   13CHTO   H22 5446   4.667   6.465   4.554 -0.6159  1.5374 -0.3505
   13CHTO    N2 5447   4.655   6.256   4.540 -0.2897  0.3286 -0.1886
   13CHTO   H10 5448   4.572   6.202   4.582  1.1731 -1.7652  0.1061
   13CHTO   H11 5449   4.708   6.203   4.462 -0.8220 -0.3654 -0.0791
   13CHTO    C7 5450   4.463   6.413   4.485 -0.4203  0.1720  0.2131
   13CHTO   H20 5451   4.449   6.434   4.593  0.5514  2.9483 -0.1438
   13CHTO    O4 5452   4.420   6.526   4.405  0.3931  0.3648  0.2984
   13CHTO   C14 5453   4.522   6.628   4.383 -0.2662 -0.3262  0.9587
   13CHTO   H27 5454   4.544   6.658   4.488 -2.2179  0.8564  1.0429
   13CHTO   C18 5455   4.465   6.763   4.318  0.0960  0.8201  0.5302
   13CHTO   O13 5456   4.570   6.862   4.327  1.0414 -0.0823 -0.4751
   13CHTO    H7 5457   4.606   6.862   4.414 -2.0589  3.3871  0.9244
   13CHTO    O2 5458   4.373   6.275   4.448 -0.4845 -0.4522 -0.2984
   13CHTO    C1 5459   4.261   6.277   4.535 -0.3557  0.5501 -0.0656
   13CHTO   H14 5460   4.254   6.371   4.593 -0.0262 -0.2338  1.2653
   13CHTO    C2 5461   4.260   6.154   4.645  0.4012 -0.8638  0.6969
   13CHTO   H15 5462   4.274   6.053   4.605 -0.6862 -1.7150  2.4144
   13CHTO    O6 5463   4.371   6.168   4.730  0.1170  0.1798  0.0858
   13CHTO    H1 5464   4.398   6.084   4.763 -1.9599  0.1655  1.9294
   13CHTO    C3 5465   4.129   6.164   4.731  0.4585 -0.4496  0.6474
   13CHTO   H16 5466   4.130   6.254   4.794 -1.6055 -0.2717  0.4773
   13CHTO    N1 5467   4.112   6.048   4.824  0.2483 -0.2892  0.1967
   13CHTO    H8 5468   4.033   6.061   4.897 -0.1172 -0.6758 -0.1273
   13CHTO    H9 5469   4.207   6.027   4.869 -0.3831 -0.8433  1.2870
   13CHTO    C4 5470   3.996   6.181   4.645  0.0404 -1.1225  0.5256
   13CHTO   H17 5471   3.966   6.085   4.603  0.0191 -1.1128  0.5187
   13CHTO    O1 5472   4.020   6.291   4.544  0.2069 -0.7252 -0.3249
   13CHTO    C5 5473   4.131   6.269   4.458  0.4787  0.6548  0.0498
   13CHTO   H18 5474   4.131   6.167   4.420 -0.2565  1.0980 -1.1494
   13CHTO   C16 5475   4.126   6.372   4.331 -0.3079 -0.0220  0.0658
   13CHTO   O11 5476   4.136   6.506   4.377  0.1629 -0.2056  0.4929
   13CHTO    H5 5477   4.056   6.553   4.377 -0.7517 -1.7254  0.3537
   13CHTO    O3 5478   3.897   6.244   4.725  0.2515 -0.3504 -0.5597
   13CHTO    C6 5479   3.771   6.167   4.738  0.2957  0.3840 -0.5079
   13CHTO   H19 5480   3.783   6.061   4.713  2.6165 -0.0999  2.2875
   13CHTO    C8 5481   3.727   6.168   4.889  0.2407  0.1888 -0.5101
   13CHTO   H21 5482   3.725   6.272   4.922  1.3329 -0.3147  1.2078
   13CHTO    O7 5483   3.824   6.098   4.972  0.4617 -0.0565  0.1302
   13CHTO    H2 5484   3.912   6.125   4.953  0.6852 -1.1913 -0.5511
   13CHTO   C12 5485   3.584   6.107   4.902 -0.2346 -0.5290 -1.5835
   13CHTO   H25 5486   3.584   5.997   4.886 -0.8913 -0.8920  0.7086
   13CHTO    N3 5487   3.539   6.136   5.042 -0.3524  0.1772 -0.5289
   13CHTO   H12 5488   3.505   6.044   5.088  2.6362  0.1864  1.8890
   13CHTO   H13 5489   3.459   6.208   5.054  0.1971  0.3737  2.5007
   13CHTO   C15 5490   3.485   6.174   4.801  0.4702 -0.0297  0.3677
   13CHTO   H28 5491   3.465   6.279   4.820 -0.4531 -0.5164  2.1995
   13CHTO   O10 5492   3.352   6.094   4.793  0.5398 -0.1283  0.5792
   13CHTO    H4 5493   3.293   6.137   4.735 -0.2505 -2.3428 -0.3029
   13CHTO    O5 5494   3.535   6.172   4.670  0.3454  0.1100  0.0393
   13CHTO   C10 5495   3.669   6.232   4.650  0.3640  0.7596 -0.3905
   13CHTO   H23 5496   3.661   6.336   4.683 -0.1165  0.7481 -0.4583
   13CHTO   C17 5497   3.694   6.220   4.503 -0.4906 -0.1459  1.0729
   13CHTO   O12 5498   3.702   6.090   4.450 -0.0537  0.0404  0.2504
   13CHTO    H6 5499   3.632   6.035   4.480  1.2617 -1.6419  0.2609
   14CHTO  H203 5500   5.259   4.943   2.890  1.5064  0.0682  0.3696
   14CHTO   O82 5501   5.247   4.920   2.980 -0.0045  0.0028  0.1709
   14CHTO  C123 5502   5.329   4.812   3.006 -0.3100  0.9776  0.1195
   14CHTO  H227 5503   5.426   4.853   3.039 -1.0163  2.2794  0.6313
   14CHTO   O77 5504   5.268   4.746   3.121 -0.2142 -0.3043  0.3467
   14CHTO  C118 5505   5.340   4.631   3.160 -0.4184 -0.2144 -0.1420
   14CHTO  H222 5506   5.443   4.661   3.186 -0.6620  0.9578 -0.4892
   14CHTO  C125 5507   5.277   4.577   3.289 -0.1142 -0.7126  0.0783
   14CHTO   O84 5508   5.138   4.538   3.273  0.5668 -0.1726 -0.5448
   14CHTO  H205 5509   5.103   4.510   3.356 -0.4981 -1.9312 -1.5523
   14CHTO  C114 5510   5.344   4.522   3.049 -0.1062 -0.6731  0.4385
   14CHTO  H218 5511   5.242   4.485   3.035 -0.7141  1.1836 -0.2898
   14CHTO  C116 5512   5.411   4.580   2.914  0.2567 -0.1603 -0.3687
   14CHTO  H220 5513   5.521   4.588   2.931  0.5806  0.7662 -2.6843
   14CHTO   O79 5514   5.403   4.479   2.811 -0.0171  0.0074 -0.7205
   14CHTO  H201 5515   5.314   4.449   2.817  0.4034 -1.2434 -0.4957
   14CHTO  C120 5516   5.344   4.719   2.879  0.5642 -0.1285 -0.7804
   14CHTO  H224 5517   5.246   4.692   2.835  1.0142  0.7993 -2.4169
   14CHTO   N21 5518   5.420   4.789   2.769  0.2910  0.0827 -0.1040
   14CHTO  H211 5519   5.501   4.844   2.813  0.7291 -1.3749  0.9668
   14CHTO  H212 5520   5.355   4.848   2.708 -1.6782 -2.0348 -0.1325
   14CHTO   O75 5521   5.430   4.422   3.102  0.2454  0.3006 -0.3553
   14CHTO  C112 5522   5.385   4.267   3.071  0.0984  0.1939 -0.1045
   14CHTO  H216 5523   5.467   4.196   3.089 -1.3245 -1.0381  1.6465
   14CHTO   O73 5524   5.337   4.257   2.933 -0.1243  0.3966  0.4895
   14CHTO  C113 5525   5.304   4.123   2.885  0.0469  0.2151 -0.3857
   14CHTO  H217 5526   5.384   4.047   2.900 -1.4577 -1.7404 -1.9226
   14CHTO  C124 5527   5.284   4.133   2.733  0.5872  0.2360 -0.3025
   14CHTO   O83 5528   5.408   4.165   2.661 -0.1841  0.3870  0.4290
   14CHTO  H204 5529   5.461   4.218   2.718  1.5986  0.9002 -1.6406
   14CHTO  C109 5530   5.175   4.092   2.967  0.2554 -0.0859  0.3023
   14CHTO  H213 5531   5.102   4.171   2.946  1.0075  0.7762  0.9319
   14CHTO  C110 5532   5.212   4.079   3.116  0.3442  1.0517 -0.6573
   14CHTO  H214 5533   5.283   3.997   3.125 -0.9513  0.0088  0.1487
   14CHTO   O78 5534   5.106   4.043   3.204  0.1319 -0.1275 -0.1710
   14CHTO  H200 5535   5.027   4.091   3.189 -0.4586 -1.1343 -0.3532
   14CHTO  C111 5536   5.273   4.212   3.171 -0.3341 -0.1902 -0.8089
   14CHTO  H215 5537   5.196   4.291   3.176 -1.1609 -1.0997  1.3681
   14CHTO   N19 5538   5.337   4.211   3.312  0.3278 -0.3163 -0.1515
   14CHTO  H207 5539   5.393   4.301   3.336 -1.7736  0.9265  0.1596
   14CHTO  H208 5540   5.402   4.126   3.333  1.3875 -0.6265 -4.2127
   14CHTO   O74 5541   5.114   3.964   2.927  0.3993 -0.6034  0.4650
   14CHTO  C115 5542   5.003   3.967   2.802 -0.5255 -0.3315  0.9298
   14CHTO  H219 5543   5.002   4.064   2.751 -0.8310 -0.9919 -0.3499
   14CHTO   O76 5544   5.037   3.854   2.689 -0.1751 -0.0810  0.4722
   14CHTO  C122 5545   4.933   3.825   2.596  0.3183  0.2280  0.2660
   14CHTO  H226 5546   4.955   3.723   2.564  0.9868  0.1365  1.0240
   14CHTO  C126 5547   4.947   3.919   2.466  0.3203 -0.0880  0.3068
   14CHTO   O85 5548   4.873   3.877   2.351  0.4227 -0.0023 -0.4829
   14CHTO  H206 5549   4.900   3.912   2.268 -1.6883 -0.6343 -1.4770
   14CHTO  C121 5550   4.777   3.822   2.642 -0.5770 -0.8173  0.0982
   14CHTO  H225 5551   4.714   3.834   2.552  0.1298  0.1246 -0.2825
   14CHTO   O81 5552   4.752   3.700   2.713  0.2797 -0.4789  0.4470
   14CHTO  H202 5553   4.664   3.669   2.700  0.6211 -1.1515 -0.2763
   14CHTO  C119 5554   4.754   3.943   2.740 -0.5935 -0.7777  0.5044
   14CHTO  H223 5555   4.777   4.035   2.685  1.5555 -2.1166 -0.8937
   14CHTO  C117 5556   4.859   3.941   2.860  0.3281 -0.5625 -0.0439
   14CHTO  H221 5557   4.873   3.847   2.913 -0.2639 -0.0285  1.0897
   14CHTO   N20 5558   4.825   4.035   2.966  0.6548 -0.0154 -0.0958
   14CHTO  H209 5559   4.724   4.022   3.002  0.4157  0.1345 -0.7033
   14CHTO  H210 5560   4.889   4.021   3.052 -0.2680  2.8324  1.1132
   14CHTO   O80 5561   4.617   3.965   2.772 -0.2510  0.3148 -0.0161
   14CHTO  C103 5562   4.527   4.084   2.687 -0.2846 -0.3054 -0.1828
   14CHTO  H190 5563   4.584   4.177   2.697  0.0224 -0.6747  1.7301
   14CHTO  C101 5564   4.509   4.045   2.532  0.0352 -0.2627  0.4976
   14CHTO  H188 5565   4.467   3.945   2.534 -1.0329  0.1859  0.3919
   14CHTO   O68 5566   4.664   4.064   2.455  1.0518  0.5476  0.2523
   14CHTO  H168 5567   4.653   4.086   2.364  0.6265 -0.1260  0.1333
   14CHTO   C99 5568   4.401   4.136   2.462 -0.2835 -0.2101  0.1528
   14CHTO  H186 5569   4.454   4.232   2.446 -0.9002  0.1128  0.0517
   14CHTO   N17 5570   4.372   4.098   2.317  0.4898  0.7023 -0.1811
   14CHTO  H174 5571   4.299   4.018   2.311  2.6409 -1.2504 -1.0370
   14CHTO  H175 5572   4.344   4.186   2.262  2.3960  1.4287 -0.0161
   14CHTO   C97 5573   4.283   4.172   2.549 -0.2619  0.1242 -0.3654
   14CHTO  H184 5574   4.208   4.091   2.551 -0.4853  0.3478  1.1706
   14CHTO   O64 5575   4.321   4.208   2.682  0.3452 -0.2972 -0.2716
   14CHTO  C104 5576   4.390   4.106   2.756  0.0071 -0.0311  0.5148
   14CHTO  H191 5577   4.342   4.009   2.747  2.7135 -1.3068 -0.8164
   14CHTO  C108 5578   4.397   4.139   2.901 -0.0964 -0.2679  0.4806
   14CHTO   O71 5579   4.277   4.149   2.977 -0.1272  0.1801 -0.2132
   14CHTO  H171 5580   4.299   4.187   3.060  0.5201 -0.2998 -0.1557
   14CHTO   O62 5581   4.230   4.294   2.498 -0.1325 -0.2408  0.1128
   14CHTO   C91 5582   4.099   4.330   2.540 -0.4342  0.4554 -0.4225
   14CHTO  H178 5583   4.052   4.245   2.588 -1.8670  0.9531 -0.9052
   14CHTO   C92 5584   4.019   4.359   2.409  0.1831 -0.0985 -0.3332
   14CHTO  H179 5585   4.035   4.280   2.334  0.9885  0.3275 -0.6083
   14CHTO   O66 5586   3.879   4.351   2.438  0.2599 -0.7693 -0.6875
   14CHTO  H166 5587   3.831   4.317   2.366  1.1098 -1.4759 -0.9330
   14CHTO   C93 5588   4.035   4.507   2.347  0.3166  0.1654  0.2425
   14CHTO  H180 5589   3.948   4.534   2.285  1.1828  0.3412 -0.9216
   14CHTO   N16 5590   4.131   4.500   2.242  0.1475  0.4612 -0.0896
   14CHTO  H172 5591   4.114   4.408   2.187  0.6202 -0.5430  1.4271
   14CHTO  H173 5592   4.140   4.589   2.181  0.5231  1.5360  1.4926
   14CHTO   C94 5593   4.069   4.615   2.455  0.0034 -0.4563  0.3395
   14CHTO  H181 5594   4.176   4.629   2.465  0.5088 -2.7573 -1.5138
   14CHTO   O61 5595   4.015   4.571   2.581 -0.2370 -0.1837  0.1754
   14CHTO   C95 5596   4.081   4.459   2.640 -0.4098 -0.4425 -0.2343
   14CHTO  H182 5597   4.181   4.491   2.669 -0.7465  1.2581 -0.8829
   14CHTO  C106 5598   3.994   4.424   2.769  0.5591  0.5113  0.4695
   14CHTO   O69 5599   4.083   4.335   2.840  0.4863  0.3717  0.4643
   14CHTO  H169 5600   4.161   4.381   2.863  0.8674 -0.1556  0.2373
   14CHTO   O63 5601   4.015   4.745   2.412 -0.0215 -0.3663  0.1039
   14CHTO   C96 5602   4.127   4.878   2.417  0.0663  0.4778 -1.3271
   14CHTO  H183 5603   4.080   4.974   2.395  1.3336  1.9603  2.1539
   14CHTO   C98 5604   4.244   4.850   2.317 -0.0660 -0.2272  0.5044
   14CHTO  H185 5605   4.299   4.756   2.333  1.1749  0.5714  1.0405
   14CHTO   O67 5606   4.196   4.851   2.185  0.1168  0.2420 -0.3852
   14CHTO  H167 5607   4.152   4.772   2.162  0.8043  0.5800 -3.0421
   14CHTO  C102 5608   4.356   4.972   2.332  0.1508  0.1281 -0.3710
   14CHTO  H189 5609   4.302   5.064   2.306  1.4199  1.2469  0.8780
   14CHTO   N18 5610   4.468   4.958   2.238 -0.1151 -0.2720 -0.1837
   14CHTO  H176 5611   4.463   4.871   2.173 -2.7070  0.9082 -1.6550
   14CHTO  H177 5612   4.498   5.048   2.188 -0.1824  0.5880  1.2981
   14CHTO  C105 5613   4.399   4.985   2.477  1.2881  0.1675 -0.4539
   14CHTO  H192 5614   4.467   4.901   2.496  1.6380 -0.1939 -3.0224
   14CHTO   O65 5615   4.289   4.994   2.569  0.6666  0.3875 -0.1093
   14CHTO  C100 5616   4.188   4.893   2.562  0.1759 -0.4679 -0.0819
   14CHTO  H187 5617   4.232   4.798   2.595 -0.0026 -0.7786 -0.7376
   14CHTO  C107 5618   4.089   4.930   2.681 -0.3282  0.4493 -0.5335
   14CHTO   O70 5619   4.008   5.040   2.645 -0.2634  0.0163  0.2634
   14CHTO  H170 5620   3.935   5.005   2.596  0.7548  0.3583 -1.5682
   14CHTO   O57 5621   4.488   5.121   2.489  0.6413 -0.2779  0.2466
   14CHTO   C85 5622   4.519   5.178   2.619  0.9960  0.3496 -0.3110
   14CHTO  H157 5623   4.492   5.113   2.704  1.8614  1.9563  1.2314
   14CHTO   C83 5624   4.426   5.307   2.635  0.1064  0.5058  0.4926
   14CHTO  H155 5625   4.325   5.268   2.644  0.2490 -0.0136 -0.0879
   14CHTO   O56 5626   4.426   5.386   2.516  0.2965 -0.7912  0.6902
   14CHTO  H135 5627   4.366   5.352   2.453 -0.5875  0.0596  1.0655
   14CHTO   C81 5628   4.467   5.379   2.768  0.7974 -0.4258  0.5791
   14CHTO  H153 5629   4.449   5.308   2.849 -2.2211  0.1715  0.5105
   14CHTO   N14 5630   4.369   5.484   2.807 -0.0743  0.0549  0.4896
   14CHTO  H141 5631   4.404   5.544   2.888  0.8304  1.1836 -0.7058
   14CHTO  H142 5632   4.267   5.457   2.825  0.1863  0.2698  2.2862
   14CHTO   C79 5633   4.621   5.416   2.769 -0.0376  0.0202  0.4666
   14CHTO  H151 5634   4.643   5.456   2.868  0.9299 -0.1541  0.3238
   14CHTO   O52 5635   4.701   5.293   2.750  0.5949  0.2436 -0.6438
   14CHTO   C86 5636   4.668   5.216   2.629  0.5940  0.5054 -0.2448
   14CHTO  H158 5637   4.707   5.285   2.551  0.3110  0.8728 -0.0648
   14CHTO   C90 5638   4.763   5.094   2.626  0.2713  0.9796  0.0109
   14CHTO   O60 5639   4.744   5.000   2.739 -0.1188  0.4606  0.1602
   14CHTO  H138 5640   4.779   4.916   2.713  1.4220  0.5814  1.7416
   14CHTO   O50 5641   4.666   5.518   2.673 -0.7354 -0.4253 -0.1715
   14CHTO   C73 5642   4.722   5.648   2.681 -0.5049 -0.6809  0.6068
   14CHTO  H145 5643   4.731   5.677   2.787 -0.6912  0.2148  0.3874
   14CHTO   C74 5644   4.632   5.746   2.600  0.1666  0.8937  0.3839
   14CHTO  H146 5645   4.534   5.732   2.648  0.1592  1.2337  0.4678
   14CHTO   O54 5646   4.674   5.882   2.629 -0.1583 -0.0559 -0.0220
   14CHTO  H133 5647   4.621   5.937   2.575  0.6901  0.8081  0.0165
   14CHTO   C75 5648   4.630   5.707   2.448 -0.2718 -0.2774  0.7089
   14CHTO  H147 5649   4.581   5.610   2.436 -2.6954  1.0715 -0.7454
   14CHTO   N13 5650   4.549   5.809   2.367  0.9720 -0.8555 -0.2744
   14CHTO  H139 5651   4.542   5.902   2.422  1.2107 -1.3010  0.5154
   14CHTO  H140 5652   4.454   5.767   2.340  0.6584  0.2135 -0.8361
   14CHTO   C76 5653   4.779   5.709   2.395  0.7151 -0.3344  0.0515
   14CHTO  H148 5654   4.819   5.809   2.409  2.6068 -0.6196 -2.8028
   14CHTO   O49 5655   4.854   5.611   2.470 -0.1753  0.0387  0.4356
   14CHTO   C77 5656   4.863   5.649   2.610  0.5281 -0.5301  1.1347
   14CHTO  H149 5657   4.912   5.746   2.614  0.3785 -0.4637  1.4163
   14CHTO   C88 5658   4.946   5.559   2.698 -0.1039 -0.2704 -0.5369
   14CHTO   O58 5659   5.002   5.648   2.821 -0.2149 -0.2159 -0.5725
   14CHTO  H136 5660   5.045   5.596   2.887  1.1746  2.4088  0.6451
   14CHTO   O51 5661   4.790   5.636   2.239 -0.4202 -0.4355  0.1216
   14CHTO   C78 5662   4.930   5.634   2.178 -0.1952  0.0336  0.8581
   14CHTO  H150 5663   5.009   5.659   2.252  0.3871 -0.9181  0.5647
   14CHTO   C80 5664   4.945   5.735   2.061 -0.4257  0.0190 -0.1960
   14CHTO  H152 5665   4.857   5.723   1.994  0.5595  0.0486 -1.5208
   14CHTO   O55 5666   4.955   5.866   2.128  0.1228 -0.6533  0.1688
   14CHTO  H134 5667   4.872   5.907   2.113  0.3742 -0.2106 -0.0255
   14CHTO   C84 5668   5.075   5.717   1.972  0.4040  0.3620 -0.9337
   14CHTO  H156 5669   5.156   5.740   2.041 -1.8232  1.1510  1.4978
   14CHTO   N15 5670   5.080   5.814   1.857  0.1863 -0.1000 -0.4058
   14CHTO  H143 5671   5.077   5.913   1.896 -0.4178 -0.3382  0.1707
   14CHTO  H144 5672   5.002   5.796   1.785 -0.8290 -0.6805  0.8270
   14CHTO   C87 5673   5.087   5.570   1.932  0.2027  0.8649 -0.0023
   14CHTO  H159 5674   5.008   5.532   1.869  0.0013  1.0443  0.1432
   14CHTO   O53 5675   5.083   5.482   2.059  0.1045  0.9513 -0.0398
   14CHTO   C82 5676   4.957   5.489   2.125  0.1122  0.0640 -0.2697
   14CHTO  H154 5677   4.882   5.465   2.049 -1.3806 -0.1788  1.2546
   14CHTO   C89 5678   4.956   5.372   2.229  0.1200 -0.6649 -0.1255
   14CHTO   O59 5679   4.839   5.348   2.301 -0.3319 -0.1459  0.4947
   14CHTO  H137 5680   4.791   5.273   2.269  0.4926  0.6944 -2.9496
   14CHTO   O45 5681   5.240   5.552   1.846 -0.3955  0.0047  0.2475
   14CHTO   C67 5682   5.314   5.432   1.859 -0.2453 -0.4939  0.2186
   14CHTO  H124 5683   5.313   5.400   1.963  1.2204 -1.1157  0.0557
   14CHTO   C65 5684   5.253   5.326   1.768  0.2989  0.0563  0.1126
   14CHTO  H122 5685   5.146   5.328   1.793 -0.3719 -1.4557 -2.5001
   14CHTO   O44 5686   5.306   5.200   1.803 -0.1835 -0.7299  0.2499
   14CHTO  H102 5687   5.290   5.181   1.893  1.3108  0.9223  0.8921
   14CHTO   C63 5688   5.268   5.360   1.616  0.1297 -0.1508 -0.2285
   14CHTO  H120 5689   5.237   5.464   1.605  0.9937  0.5522  3.2679
   14CHTO   N11 5690   5.189   5.274   1.520 -0.5185  0.3141  0.0092
   14CHTO  H108 5691   5.229   5.175   1.527 -0.6853  0.3656  2.0029
   14CHTO  H109 5692   5.085   5.264   1.541 -0.9053  3.3585 -0.2095
   14CHTO   C61 5693   5.426   5.367   1.584  0.0381 -0.6405  0.4363
   14CHTO  H118 5694   5.425   5.420   1.488 -0.6125 -0.2593  0.6533
   14CHTO   O40 5695   5.501   5.453   1.674 -0.4985  0.2460 -0.3985
   14CHTO   C68 5696   5.465   5.457   1.821  0.4086 -0.1112  0.2567
   14CHTO  H125 5697   5.484   5.562   1.854 -0.0129 -0.5213  1.8461
   14CHTO   C72 5698   5.574   5.371   1.891 -0.1156  0.1157  0.4823
   14CHTO   O48 5699   5.555   5.351   2.032  0.0539  0.7887 -0.2254
   14CHTO  H105 5700   5.485   5.290   2.050  0.7938  0.3113  1.0959
   14CHTO   O38 5701   5.497   5.240   1.569  0.2880  0.0520  0.0653
   14CHTO   C55 5702   5.577   5.218   1.446 -0.1030 -0.6588 -0.9512
   14CHTO  H112 5703   5.561   5.301   1.375  1.2296  2.9290  2.7285
   14CHTO   C56 5704   5.526   5.079   1.387  0.1309 -0.2450 -0.3216
   14CHTO  H113 5705   5.536   5.004   1.467 -2.7498 -1.3609 -0.9301
   14CHTO   O42 5706   5.389   5.092   1.351 -0.3600  0.6738  0.5811
   14CHTO  H100 5707   5.376   5.111   1.260  0.5949 -0.5823  0.1726
   14CHTO   C57 5708   5.623   5.037   1.271 -0.3129 -0.4843  0.3146
   14CHTO  H114 5709   5.612   5.103   1.186  0.2895 -1.3821 -0.4738
   14CHTO   N10 5710   5.588   4.905   1.218 -0.0977  0.0779 -0.0507
   14CHTO  H106 5711   5.526   4.918   1.130  1.6604 -0.4426 -1.3770
   14CHTO  H107 5712   5.536   4.842   1.289 -0.9340 -0.0208 -0.7437
   14CHTO   C58 5713   5.770   5.038   1.325  0.2012  0.3640 -0.7170
   14CHTO  H115 5714   5.781   4.963   1.406 -1.8980  0.3106 -0.4638
   14CHTO   O37 5715   5.805   5.162   1.384  0.4568  0.1176  0.4207
   14CHTO   C59 5716   5.728   5.223   1.494 -0.0036  0.3610  0.3920
   14CHTO  H116 5717   5.744   5.170   1.588 -1.6387  1.4138  1.2995
   14CHTO   C70 5718   5.771   5.371   1.507  0.2190 -0.0152 -0.1148
   14CHTO   O46 5719   5.912   5.383   1.533  0.3095  0.2021  0.4854
   14CHTO  H103 5720   5.921   5.440   1.607  0.1042 -0.1276  0.7650
   14CHTO   O39 5721   5.882   5.015   1.217  0.3314 -0.1371 -0.4210
   14CHTO   C60 5722   6.005   4.971   1.272 -0.5393  0.3947 -0.5582
   14CHTO  H117 5723   6.026   5.021   1.367 -1.0857  1.0012 -0.7543
   14CHTO   C62 5724   6.000   4.823   1.299  0.3981 -0.6694 -0.2392
   14CHTO  H119 5725   5.925   4.810   1.380 -1.2074  1.2705 -1.3489
   14CHTO   O43 5726   5.955   4.756   1.180 -0.0248  0.1694  0.0220
   14CHTO  H101 5727   5.944   4.667   1.210  2.3561 -0.3438 -0.5457
   14CHTO   C66 5728   6.143   4.775   1.349 -0.0449 -0.2876  0.0064
   14CHTO  H123 5729   6.175   4.828   1.438 -0.4885 -0.5112  0.2978
   14CHTO   N12 5730   6.140   4.631   1.397  0.2004 -0.0953 -0.3910
   14CHTO  H110 5731   6.069   4.620   1.477  0.7915 -2.1257 -0.1238
   14CHTO  H111 5732   6.237   4.596   1.429 -0.9762 -2.4283  0.7703
   14CHTO   C69 5733   6.258   4.804   1.250  0.0022 -0.2637  0.5756
   14CHTO  H126 5734   6.234   4.739   1.162  0.2046 -1.5301  1.4445
   14CHTO   O41 5735   6.268   4.933   1.211 -0.0241 -0.4854  0.1800
   14CHTO   C64 5736   6.120   5.004   1.174 -0.3108  0.2086  0.1345
   14CHTO  H121 5737   6.079   4.987   1.073 -1.1374  0.4775  0.4143
   14CHTO   C71 5738   6.149   5.149   1.185  0.0264 -0.3403 -0.2186
   14CHTO   O47 5739   6.232   5.200   1.077  0.5414 -0.3892  0.4459
   14CHTO  H104 5740   6.316   5.235   1.100 -0.1922  0.8180  1.3567
   14CHTO   O34 5741   6.408   4.781   1.297 -0.1557  0.7665  0.3070
   14CHTO   C49 5742   6.559   4.759   1.225 -0.4748 -0.0816 -0.0247
   14CHTO   H91 5743   6.554   4.667   1.166  0.5700 -2.7854  3.9230
   14CHTO   C47 5744   6.666   4.753   1.336 -0.2330  0.2030  0.6338
   14CHTO   H89 5745   6.761   4.711   1.295 -0.0216 -0.7659  2.0351
   14CHTO   O33 5746   6.619   4.655   1.429  0.1283 -0.1685 -0.3104
   14CHTO   H70 5747   6.654   4.574   1.399 -0.1147 -0.1714 -0.5870
   14CHTO   C45 5748   6.687   4.897   1.407 -0.2416  0.0646  0.0550
   14CHTO   H87 5749   6.629   4.904   1.500  0.9353  0.6138  0.7532
   14CHTO    N8 5750   6.828   4.906   1.443 -0.2729 -0.6010 -0.2640
   14CHTO   H75 5751   6.872   4.812   1.475  1.6832  0.6087  0.6530
   14CHTO   H76 5752   6.880   4.951   1.360 -0.7936  0.5502  0.0290
   14CHTO   C43 5753   6.626   5.010   1.316 -1.0240 -0.8566 -0.4416
   14CHTO   H85 5754   6.517   5.012   1.319 -0.9673  0.6378  1.4370
   14CHTO   O29 5755   6.677   4.983   1.185 -0.3194 -0.2639  0.0342
   14CHTO   C50 5756   6.605   4.872   1.129  0.6343  0.1691  0.3057
   14CHTO   H92 5757   6.516   4.913   1.079  0.3748 -0.1924  0.4697
   14CHTO   C54 5758   6.686   4.823   1.000 -0.4783 -0.6734 -0.2496
   14CHTO   O36 5759   6.815   4.766   1.033  0.1738 -0.2530  0.4687
   14CHTO   H72 5760   6.842   4.702   0.970  0.6053  1.3500 -1.0399
   14CHTO   O27 5761   6.661   5.149   1.354  0.3253 -0.1340  0.3923
   14CHTO   C37 5762   6.626   5.285   1.330  0.5726 -0.7892 -0.4615
   14CHTO   H79 5763   6.720   5.343   1.328 -0.4582  0.9076 -0.3377
   14CHTO   C38 5764   6.546   5.302   1.205  0.7800 -0.1060 -0.0100
   14CHTO   H80 5765   6.459   5.235   1.207 -0.5588  1.5688 -0.9366
   14CHTO   O31 5766   6.631   5.282   1.093  0.1885  0.1064 -0.1478
   14CHTO   H68 5767   6.668   5.196   1.090 -0.5618 -0.2167 -0.1924
   14CHTO   C39 5768   6.488   5.450   1.207 -0.1270 -0.3116 -0.7874
   14CHTO   H81 5769   6.578   5.512   1.204  0.0101 -0.4080  1.1524
   14CHTO    N7 5770   6.407   5.473   1.082  0.0610 -0.0847 -0.2803
   14CHTO   H73 5771   6.456   5.499   0.989 -0.4085 -0.9881 -0.7790
   14CHTO   H74 5772   6.339   5.397   1.046 -1.5691  1.5614 -0.7740
   14CHTO   C40 5773   6.410   5.488   1.334  0.0890  0.9783 -0.5922
   14CHTO   H82 5774   6.320   5.426   1.340  1.2000 -1.0080 -3.4749
   14CHTO   O26 5775   6.498   5.465   1.446 -0.2167  0.0722 -0.0865
   14CHTO   C41 5776   6.547   5.337   1.455 -0.0547 -0.4697 -0.4446
   14CHTO   H83 5777   6.459   5.272   1.471  0.9318 -1.8962 -0.7214
   14CHTO   C52 5778   6.624   5.338   1.591  0.1859 -0.0014 -0.1859
   14CHTO   O35 5779   6.559   5.404   1.713 -0.1225 -0.7337  0.1752
   14CHTO   H71 5780   6.549   5.496   1.695  0.3093 -0.3609  1.7619
   14CHTO   O28 5781   6.385   5.632   1.338 -0.0444 -0.1229 -0.0915
   14CHTO   C42 5782   6.315   5.701   1.455 -0.3899  0.1086 -0.1835
   14CHTO   H84 5783   6.314   5.807   1.428  0.3694 -0.0182 -0.7026
   14CHTO   C44 5784   6.390   5.686   1.592 -0.4509 -0.0909  0.0455
   14CHTO   H86 5785   6.391   5.582   1.624 -0.1641  0.7859  3.1037
   14CHTO   O32 5786   6.526   5.733   1.578 -0.0397  0.0316  0.4252
   14CHTO   H69 5787   6.529   5.826   1.564  1.3673  0.1651  1.4966
   14CHTO   C48 5788   6.314   5.764   1.701  0.4693  0.9130 -0.2449
   14CHTO   H90 5789   6.315   5.868   1.667  0.5189  1.3077  0.9448
   14CHTO    N9 5790   6.382   5.762   1.839 -0.4076  0.6202 -0.0174
   14CHTO   H77 5791   6.390   5.667   1.889  0.0087  0.5827 -0.1503
   14CHTO   H78 5792   6.484   5.797   1.830 -1.0969  2.5321 -0.6044
   14CHTO   C51 5793   6.163   5.711   1.703 -0.7877 -0.1984 -0.0849
   14CHTO   H93 5794   6.168   5.615   1.753  3.0756  0.9493  1.8978
   14CHTO   O30 5795   6.096   5.703   1.573 -0.5890  0.2206 -1.2637
   14CHTO   C46 5796   6.163   5.655   1.460 -0.0157  0.2278  0.1523
   14CHTO   H88 5797   6.155   5.547   1.461  0.8126  0.1711  0.9372
   14CHTO   C53 5798   6.083   5.707   1.331 -0.2014  0.4645  0.3568
   14CHTO   O72 5799   5.943   5.675   1.345 -0.3751 -0.3180 -0.6679
   14CHTO  H199 5800   5.908   5.669   1.258  1.3401  1.3988 -1.5063
   14CHTO   O22 5801   6.087   5.796   1.793 -0.5029  0.0121  0.7652
   14CHTO   C31 5802   5.972   5.740   1.872  0.2421  0.6444  0.2541
   14CHTO   H59 5803   5.978   5.630   1.856 -0.7306  0.9586 -2.7038
   14CHTO   C29 5804   5.987   5.763   2.027  0.5224 -0.5334 -0.0929
   14CHTO   H57 5805   5.991   5.873   2.034  1.2990 -0.5526 -0.2046
   14CHTO   O21 5806   6.115   5.715   2.073  0.1759  0.2292  0.2438
   14CHTO   H37 5807   6.176   5.740   2.006 -0.3718 -0.0306 -0.3542
   14CHTO   C27 5808   5.866   5.706   2.108  0.2321  0.4626 -0.2888
   14CHTO   H55 5809   5.862   5.597   2.095  1.0946  0.2557  1.1287
   14CHTO    N5 5810   5.880   5.727   2.257  0.4581 -0.3035 -0.2000
   14CHTO   H43 5811   5.785   5.746   2.305  0.9616 -0.2413  0.7626
   14CHTO   H44 5812   5.959   5.800   2.272  1.7995 -1.6156 -0.7839
   14CHTO   C25 5813   5.735   5.770   2.049 -0.0653 -0.3769 -0.5176
   14CHTO   H53 5814   5.749   5.879   2.051  2.9027 -0.7362 -0.6821
   14CHTO   O17 5815   5.726   5.734   1.909 -0.0640 -0.6009 -0.0647
   14CHTO   C32 5816   5.827   5.794   1.829 -0.0559  0.4218 -0.1373
   14CHTO   H60 5817   5.827   5.901   1.847 -2.4952  0.3073  0.8571
   14CHTO   C36 5818   5.795   5.757   1.681  0.9866 -0.0911 -0.1694
   14CHTO   O25 5819   5.661   5.806   1.645  0.1536  0.5263  0.0733
   14CHTO   H40 5820   5.676   5.868   1.577  3.3466  1.6211  1.6842
   14CHTO   O15 5821   5.615   5.724   2.119 -0.2091  0.3129  0.1512
   14CHTO   C19 5822   5.472   5.719   2.160 -0.1586  0.5374  0.6087
   14CHTO   H47 5823   5.406   5.676   2.084 -1.2824  1.0143  1.2995
   14CHTO   C20 5824   5.454   5.628   2.289  0.3051 -0.1451 -0.4844
   14CHTO   H48 5825   5.525   5.656   2.369  0.8195  0.9926 -1.3272
   14CHTO   O19 5826   5.476   5.487   2.253  0.1985  0.0356 -0.2959
   14CHTO   H35 5827   5.415   5.453   2.191  1.4561  0.2698 -1.6743
   14CHTO   C21 5828   5.305   5.657   2.354 -0.7828  0.0705 -0.7298
   14CHTO   H49 5829   5.226   5.616   2.291 -1.2771 -1.7978  1.0497
   14CHTO    N4 5830   5.273   5.588   2.488  0.1875  0.0336  0.1019
   14CHTO   H41 5831   5.256   5.657   2.570 -2.8930  1.1034 -1.3643
   14CHTO   H42 5832   5.183   5.528   2.477  0.3690 -0.1046 -0.6307
   14CHTO   C22 5833   5.279   5.809   2.364  0.0037 -0.2477 -0.1177
   14CHTO   H50 5834   5.350   5.857   2.431 -0.5605 -2.3651  2.0927
   14CHTO   O14 5835   5.295   5.867   2.232  0.4220 -0.7217 -0.0330
   14CHTO   C23 5836   5.425   5.869   2.181  0.1538 -0.3437  0.3265
   14CHTO   H51 5837   5.489   5.931   2.246  0.1494 -0.1640  0.1602
   14CHTO   C34 5838   5.422   5.943   2.040  0.0381 -0.0758  0.2548
   14CHTO   O23 5839   5.378   6.075   2.062 -0.2628 -0.2172  0.4903
   14CHTO   H38 5840   5.296   6.093   2.021  0.5242 -0.3485 -1.1704
   14CHTO   O16 5841   5.144   5.848   2.404 -0.0735 -0.7988 -0.5371
   14CHTO   C24 5842   5.146   5.957   2.524 -0.6748  0.1251 -0.1569
   14CHTO   H52 5843   5.217   6.036   2.501  1.3134 -1.4748  0.3465
   14CHTO   C26 5844   5.182   5.895   2.663 -0.8233 -0.9147 -0.4366
   14CHTO   H54 5845   5.140   5.792   2.665  0.9592 -1.6432  0.2746
   14CHTO   O20 5846   5.318   5.860   2.678 -0.3117  0.2442 -0.0696
   14CHTO   H36 5847   5.330   5.839   2.768  1.9761  1.8440  0.0499
   14CHTO   C30 5848   5.129   5.989   2.781  0.6055  0.2084  0.0551
   14CHTO   H58 5849   5.198   6.074   2.785  0.7431  0.0557  0.9646
   14CHTO    N6 5850   5.133   5.931   2.917  0.1614  0.1254  0.3268
   14CHTO   H45 5851   5.151   5.999   2.999  0.6655 -0.2765  0.5532
   14CHTO   H46 5852   5.047   5.869   2.940  0.1031  0.1128  0.0736
   14CHTO   C33 5853   4.990   6.063   2.763 -0.4321 -0.0792 -0.1680
   14CHTO   H61 5854   4.910   5.988   2.774 -0.7456  0.2604 -0.1059
   14CHTO   O18 5855   4.989   6.109   2.630  0.5861  0.0780 -0.9148
   14CHTO   C28 5856   5.004   6.019   2.522 -0.8774 -0.3480 -0.4159
   14CHTO   H56 5857   4.925   5.944   2.531 -0.1055 -1.0873  0.3113
   14CHTO   C35 5858   4.987   6.087   2.388  0.2710 -0.3313  0.3936
   14CHTO   O24 5859   4.854   6.150   2.369 -0.2102  0.5547 -0.0962
   14CHTO   H39 5860   4.847   6.201   2.291  0.2596 -0.3107 -0.7228
   14CHTO    O9 5861   4.962   6.167   2.860  0.1293 -0.0281 -0.3007
   14CHTO   C13 5862   4.807   6.245   2.843  0.4579 -0.0833 -0.1687
   14CHTO   H26 5863   4.777   6.254   2.737 -2.2058  2.2007  0.7340
   14CHTO   C11 5864   4.806   6.381   2.915  0.0051  0.0478 -0.3467
   14CHTO   H24 5865   4.873   6.443   2.854 -0.7831  0.9905 -0.2791
   14CHTO    O8 5866   4.851   6.378   3.056  0.4116 -0.1902 -0.4442
   14CHTO    H3 5867   4.776   6.378   3.113  0.8062  0.3300  0.0843
   14CHTO    C9 5868   4.664   6.444   2.892 -0.3128 -0.5381  0.5034
   14CHTO   H22 5869   4.646   6.430   2.785  2.2179 -1.3821  0.1656
   14CHTO    N2 5870   4.650   6.589   2.923  0.1045  0.3783 -0.8015
   14CHTO   H10 5871   4.548   6.625   2.919  0.4621  1.4599 -0.3681
   14CHTO   H11 5872   4.720   6.645   2.862  0.6794  2.4727  1.6725
   14CHTO    C7 5873   4.564   6.355   2.972 -0.3928  0.7010 -0.1705
   14CHTO   H20 5874   4.467   6.400   2.943 -0.9544 -0.7443 -0.5653
   14CHTO    O4 5875   4.568   6.217   2.928  0.0683 -0.7908 -0.1822
   14CHTO   C14 5876   4.699   6.153   2.919 -0.1755 -0.1879  0.3000
   14CHTO   H27 5877   4.686   6.061   2.858  0.6366 -1.0896  1.4700
   14CHTO   C18 5878   4.739   6.093   3.060 -0.4476  0.1523  0.3243
   14CHTO   O13 5879   4.837   5.992   3.058  0.7246 -0.5427 -0.2245
   14CHTO    H7 5880   4.924   6.024   3.043  1.1678 -2.3362 -1.5950
   14CHTO    O2 5881   4.571   6.362   3.142  0.1280  0.1577  0.4577
   14CHTO    C1 5882   4.447   6.330   3.211  0.1164  0.2950  0.1987
   14CHTO   H14 5883   4.393   6.245   3.166 -0.5448  1.3105 -0.9444
   14CHTO    C2 5884   4.346   6.450   3.204 -0.1141 -0.0313 -0.0839
   14CHTO   H15 5885   4.410   6.537   3.225 -0.4230  0.1224  0.2114
   14CHTO    O6 5886   4.284   6.460   3.073 -0.0876 -0.4125 -0.1650
   14CHTO    H1 5887   4.252   6.547   3.058 -0.3223 -0.4292  0.2273
   14CHTO    C3 5888   4.218   6.445   3.310  0.5778  0.1965  0.1225
   14CHTO   H16 5889   4.139   6.375   3.281  2.4782 -1.2808 -1.6902
   14CHTO    N1 5890   4.156   6.585   3.318 -0.0085 -0.4842  0.0981
   14CHTO    H8 5891   4.091   6.606   3.235  1.4822  1.3958 -0.6321
   14CHTO    H9 5892   4.096   6.593   3.408  0.7470 -0.4855  0.6077
   14CHTO    C4 5893   4.280   6.397   3.448 -0.2132  0.2881  0.4051
   14CHTO   H17 5894   4.341   6.479   3.487 -0.9017  1.0337 -0.0595
   14CHTO    O1 5895   4.350   6.276   3.434 -0.7280  0.0244  0.5505
   14CHTO    C5 5896   4.473   6.290   3.354  0.4743  0.8127  0.0577
   14CHTO   H18 5897   4.531   6.371   3.398  0.5306  0.6700  0.2479
   14CHTO   C16 5898   4.553   6.163   3.360  0.0639 -0.4660  0.4230
   14CHTO   O11 5899   4.580   6.145   3.502  0.2185 -0.1195 -0.6193
   14CHTO    H5 5900   4.603   6.056   3.516  3.5049  0.8667  0.5818
   14CHTO    O3 5901   4.179   6.386   3.550 -0.2014 -1.2871  0.7993
   14CHTO    C6 5902   4.216   6.332   3.686  0.5399  0.1651 -0.3437
   14CHTO   H19 5903   4.312   6.280   3.680  0.9112  0.9295 -1.2006
   14CHTO    C8 5904   4.241   6.448   3.789  0.2647 -0.3912  0.5250
   14CHTO   H21 5905   4.152   6.511   3.786  0.4184 -0.2493 -1.9265
   14CHTO    O7 5906   4.355   6.527   3.741 -0.5194 -0.2164  0.8358
   14CHTO    H2 5907   4.374   6.597   3.801 -0.6363 -0.1823  0.8347
   14CHTO   C12 5908   4.267   6.380   3.929  0.2791  0.2482 -0.0811
   14CHTO   H25 5909   4.362   6.327   3.908 -0.2313 -0.3927 -0.8216
   14CHTO    N3 5910   4.293   6.474   4.040 -0.4004 -0.3618 -0.6109
   14CHTO   H12 5911   4.340   6.563   4.000  0.0778 -0.2696  0.1393
   14CHTO   H13 5912   4.363   6.424   4.106  0.0036  1.6276  0.4990
   14CHTO   C15 5913   4.159   6.262   3.968  0.1670  0.2831  0.1477
   14CHTO   H28 5914   4.067   6.309   4.002  0.7170  1.0763  0.5620
   14CHTO   O10 5915   4.216   6.171   4.078 -0.4663 -0.0352  0.1045
   14CHTO    H4 5916   4.309   6.181   4.083 -0.6710  1.3729  1.5398
   14CHTO    O5 5917   4.154   6.166   3.862 -0.6201 -0.1750  0.1536
   14CHTO   C10 5918   4.108   6.224   3.735  0.8350 -0.1488 -0.0511
   14CHTO   H23 5919   4.014   6.269   3.768 -0.1565 -2.0819 -0.2025
   14CHTO   C17 5920   4.080   6.111   3.630  0.2417  0.9383  0.0547
   14CHTO   O12 5921   4.203   6.047   3.586  0.5904  0.2537  0.4223
   14CHTO    H6 5922   4.199   5.954   3.591  1.6663  0.1945  0.2489
   15CHTO  H203 5923   6.053   4.765   2.148 -0.2987  1.3060  2.4920
   15CHTO   O82 5924   5.962   4.771   2.125  0.0730  0.1885  0.5940
   15CHTO  C123 5925   5.928   4.657   2.048 -0.1893  0.0604 -0.6199
   15CHTO  H227 5926   5.991   4.572   2.079  0.2472  0.9867  1.0946
   15CHTO   O77 5927   5.794   4.617   2.087  0.6528  0.4413 -0.2908
   15CHTO  C118 5928   5.749   4.488   2.041 -0.1617  0.0011  0.2880
   15CHTO  H222 5929   5.816   4.413   2.086  1.0776  0.9754  0.1101
   15CHTO  C125 5930   5.605   4.470   2.091  0.3753 -0.0989 -0.0451
   15CHTO   O84 5931   5.520   4.563   2.026  0.4097 -0.1034 -0.2930
   15CHTO  H205 5932   5.441   4.568   2.077 -1.3088  0.6477 -2.9355
   15CHTO  C114 5933   5.769   4.482   1.883  0.2862 -0.3034 -0.3728
   15CHTO  H218 5934   5.708   4.562   1.841 -0.9745 -1.0511 -0.0044
   15CHTO  C116 5935   5.909   4.522   1.834  0.3647 -0.5594  0.1145
   15CHTO  H220 5936   5.981   4.445   1.870  0.1363 -2.2562 -2.9303
   15CHTO   O79 5937   5.902   4.521   1.691  0.3060  0.0902 -0.4789
   15CHTO  H201 5938   5.989   4.524   1.657  0.4465  2.1739 -0.0226
   15CHTO  C120 5939   5.944   4.663   1.894 -0.7931 -0.2053  0.4003
   15CHTO  H224 5940   5.880   4.744   1.852 -0.9522 -0.8067 -0.5391
   15CHTO   N21 5941   6.082   4.696   1.849 -0.2201  0.6008 -0.1590
   15CHTO  H211 5942   6.122   4.774   1.912  0.4099 -1.1043  1.5975
   15CHTO  H212 5943   6.079   4.721   1.743 -1.5490  0.5743 -0.1416
   15CHTO   O75 5944   5.709   4.361   1.834 -0.2537 -0.1453  0.0273
   15CHTO  C112 5945   5.803   4.232   1.853  0.2369 -0.0915  0.0524
   15CHTO  H216 5946   5.853   4.232   1.951  1.2467 -0.4201 -0.4599
   15CHTO   O73 5947   5.897   4.234   1.747  0.0378  0.1930 -0.0477
   15CHTO  C113 5948   5.989   4.128   1.759  0.1465  0.0070  0.3034
   15CHTO  H217 5949   6.042   4.121   1.856  1.7270 -0.9881 -0.6152
   15CHTO  C124 5950   6.094   4.152   1.650 -0.5226 -0.3082  0.5691
   15CHTO   O83 5951   6.164   4.279   1.671  0.0030  0.4095  0.4950
   15CHTO  H204 5952   6.112   4.342   1.717 -3.0761 -1.1344 -0.7242
   15CHTO  C109 5953   5.917   3.998   1.721 -0.1156 -0.0556 -0.1178
   15CHTO  H213 5954   5.881   4.007   1.617  0.3328 -2.7488 -0.5455
   15CHTO  C110 5955   5.800   3.980   1.827 -0.7329  0.2277 -0.4663
   15CHTO  H214 5956   5.845   3.959   1.924 -0.8353 -0.7332 -0.6165
   15CHTO   O78 5957   5.718   3.871   1.785  0.2859  0.1947 -0.0979
   15CHTO  H200 5958   5.642   3.861   1.840 -0.5151  0.5154 -1.1086
   15CHTO  C111 5959   5.710   4.108   1.831  0.3584  0.6671  0.2945
   15CHTO  H215 5960   5.664   4.122   1.732 -0.7375 -0.7683  0.5997
   15CHTO   N19 5961   5.603   4.099   1.928 -0.1326  0.3297  0.0461
   15CHTO  H207 5962   5.530   4.022   1.907 -0.5729  0.9988 -0.9049
   15CHTO  H208 5963   5.551   4.193   1.928  2.6365  2.0409  4.9792
   15CHTO   O74 5964   6.007   3.883   1.731  0.0749 -0.1516 -0.6129
   15CHTO  C115 5965   5.966   3.756   1.633  0.3580  0.3776  0.2505
   15CHTO  H219 5966   5.867   3.716   1.656 -0.0293 -0.3509 -2.4186
   15CHTO   O76 5967   5.965   3.805   1.476  0.5356 -0.3496  0.3356
   15CHTO  C122 5968   5.927   3.709   1.380 -0.3544  0.0804  0.7799
   15CHTO  H226 5969   5.947   3.748   1.280 -0.9162  2.2328  1.4797
   15CHTO  C126 5970   5.773   3.677   1.378 -0.3690 -0.6571 -0.4124
   15CHTO   O85 5971   5.696   3.781   1.435 -0.2479  0.1157 -0.1929
   15CHTO  H206 5972   5.607   3.758   1.422 -0.2369  0.4477 -0.8372
   15CHTO  C121 5973   6.004   3.578   1.393  0.5570 -0.1059  0.0226
   15CHTO  H225 5974   5.968   3.495   1.329  0.2004 -3.2714  4.1405
   15CHTO   O81 5975   6.137   3.599   1.350  0.0036 -0.7341  0.3449
   15CHTO  H202 5976   6.188   3.520   1.348  0.9564 -0.0989 -1.7346
   15CHTO  C119 5977   6.005   3.523   1.537 -0.7160  0.5944 -0.3181
   15CHTO  H223 5978   5.901   3.502   1.563 -0.0423  0.3059  2.2789
   15CHTO  C117 5979   6.059   3.630   1.636  0.4566 -0.2608 -0.2308
   15CHTO  H221 5980   6.156   3.670   1.604  0.4467  1.0880  1.3770
   15CHTO   N20 5981   6.083   3.588   1.781  0.2976  0.6638  0.0635
   15CHTO  H209 5982   5.995   3.571   1.841  0.6999  1.5062  0.9078
   15CHTO  H210 5983   6.133   3.492   1.780  0.2500  0.6396  0.0498
   15CHTO   O80 5984   6.063   3.361   1.534 -1.0606 -0.3208  0.1865
   15CHTO  C103 5985   5.969   3.244   1.560 -0.0014 -0.0154 -0.2600
   15CHTO  H190 5986   6.021   3.150   1.578  0.0087  0.1284  0.4657
   15CHTO  C101 5987   5.871   3.264   1.678  0.1459 -0.3103 -0.5304
   15CHTO  H188 5988   5.807   3.351   1.661 -3.6088 -3.3222 -2.6482
   15CHTO   O68 5989   5.954   3.277   1.810 -0.5791 -0.0698 -0.3870
   15CHTO  H168 5990   6.043   3.300   1.788 -0.5108 -0.6082 -0.6795
   15CHTO   C99 5991   5.769   3.141   1.684  0.9268 -0.1814 -0.4372
   15CHTO  H186 5992   5.833   3.052   1.702  1.0065  0.1940  1.2312
   15CHTO   N17 5993   5.659   3.152   1.793  0.2813 -0.5138  0.5352
   15CHTO  H174 5994   5.636   3.255   1.812 -0.7911 -0.4829 -0.8631
   15CHTO  H175 5995   5.682   3.105   1.887  0.3156 -0.3770  0.5943
   15CHTO   C97 5996   5.706   3.122   1.543  0.2263  0.3452  0.3534
   15CHTO  H184 5997   5.643   3.212   1.531 -0.1647  0.0135 -0.0856
   15CHTO   O64 5998   5.801   3.118   1.436 -0.1186  0.1748  0.3157
   15CHTO  C104 5999   5.890   3.228   1.427  0.0496  0.2322  0.0205
   15CHTO  H191 6000   5.827   3.316   1.419 -0.5512  0.2305  3.7022
   15CHTO  C108 6001   5.973   3.218   1.302  0.6163 -0.1118 -0.2529
   15CHTO   O71 6002   5.882   3.222   1.189  0.4161 -0.5976  0.7590
   15CHTO  H171 6003   5.928   3.198   1.110 -2.2013  0.9219 -1.3190
   15CHTO   O62 6004   5.638   3.000   1.543 -0.5393  0.5990  0.1121
   15CHTO   C91 6005   5.522   3.008   1.454 -0.3142  0.3735  0.1593
   15CHTO  H178 6006   5.505   3.114   1.432 -0.2574  1.0459  3.0971
   15CHTO   C92 6007   5.389   2.966   1.527  0.6848 -0.0422 -0.4733
   15CHTO  H179 6008   5.393   3.004   1.630  0.2892 -2.4930  0.4784
   15CHTO   O66 6009   5.274   3.036   1.465 -0.1115 -0.0158  0.3930
   15CHTO  H166 6010   5.206   2.979   1.436  0.3855  0.1640 -1.1848
   15CHTO   C93 6011   5.368   2.816   1.528 -0.3866 -0.3429  0.2008
   15CHTO  H180 6012   5.259   2.804   1.536 -0.2852 -0.2643  1.8550
   15CHTO   N16 6013   5.419   2.759   1.657  0.1438  0.3082 -0.3562
   15CHTO  H172 6014   5.358   2.795   1.739  1.2604 -0.6760  0.9363
   15CHTO  H173 6015   5.521   2.789   1.672  0.4263 -0.4528 -0.7697
   15CHTO   C94 6016   5.427   2.746   1.402  0.2798  1.1821  0.3888
   15CHTO  H181 6017   5.521   2.695   1.423 -0.0458  0.8118  0.9676
   15CHTO   O61 6018   5.450   2.832   1.286 -0.3145  0.2751 -0.2115
   15CHTO   C95 6019   5.551   2.932   1.310 -0.2647 -0.1626  0.2941
   15CHTO  H182 6020   5.648   2.884   1.321  0.0770  1.0178  2.7588
   15CHTO  C106 6021   5.562   3.042   1.191 -0.3298 -0.2985  0.2252
   15CHTO   O69 6022   5.596   2.968   1.075  0.0355  0.6311  0.2751
   15CHTO  H169 6023   5.689   2.970   1.077  0.0557 -0.8267  1.7751
   15CHTO   O63 6024   5.318   2.633   1.362 -0.6561  0.7912  0.3003
   15CHTO   C96 6025   5.384   2.490   1.354  0.2425  0.1302  0.4453
   15CHTO  H183 6026   5.479   2.495   1.408  0.1873 -0.4565  0.5920
   15CHTO   C98 6027   5.415   2.452   1.213  0.1788  0.8158  0.2249
   15CHTO  H185 6028   5.328   2.478   1.151  0.4232  1.1453  0.0145
   15CHTO   O67 6029   5.522   2.538   1.174  0.4792 -0.1646  0.0279
   15CHTO  H167 6030   5.491   2.625   1.185  0.7297 -0.0717  0.0041
   15CHTO  C102 6031   5.465   2.296   1.202  0.1248  0.6049  0.1595
   15CHTO  H189 6032   5.566   2.291   1.245  0.3822  1.3438 -0.3407
   15CHTO   N18 6033   5.479   2.252   1.059  0.2502  0.2582 -0.6116
   15CHTO  H176 6034   5.418   2.165   1.043  0.6006  0.1486 -1.3466
   15CHTO  H177 6035   5.584   2.230   1.050 -0.1338 -1.3358 -1.3168
   15CHTO  C105 6036   5.380   2.198   1.284 -0.0901  0.5273 -0.0798
   15CHTO  H192 6037   5.287   2.180   1.231 -0.8744 -0.4128  1.5980
   15CHTO   O65 6038   5.343   2.250   1.413  0.3196 -0.6894  0.1398
   15CHTO  C100 6039   5.291   2.385   1.414 -0.4530  0.3520 -0.2226
   15CHTO  H187 6040   5.198   2.389   1.355 -0.5643  1.8499  0.0453
   15CHTO  C107 6041   5.257   2.431   1.556  0.5526 -0.9716  0.4569
   15CHTO   O70 6042   5.131   2.375   1.604  0.5826 -1.2280  0.2990
   15CHTO  H170 6043   5.063   2.440   1.608  1.8125  0.2016 -1.7320
   15CHTO   O57 6044   5.469   2.058   1.289 -0.2003 -0.8004 -0.0241
   15CHTO   C85 6045   5.496   1.988   1.415 -0.1227 -0.1750  0.0144
   15CHTO  H157 6046   5.493   2.067   1.493  1.5329  1.2078 -1.2692
   15CHTO   C83 6047   5.641   1.944   1.414  0.2123  0.2041 -0.9654
   15CHTO  H155 6048   5.702   2.033   1.402 -0.5756  1.1296  1.5799
   15CHTO   O56 6049   5.673   1.854   1.303  0.2812 -0.0827  0.1171
   15CHTO  H135 6050   5.763   1.831   1.313  0.1227 -1.7294 -1.9765
   15CHTO   C81 6051   5.666   1.881   1.557 -0.0956  0.4664 -0.5068
   15CHTO  H153 6052   5.629   1.957   1.626 -1.1323 -0.6936  0.2231
   15CHTO   N14 6053   5.811   1.855   1.584  0.2037 -0.1527 -0.6781
   15CHTO  H141 6054   5.814   1.803   1.677 -1.5301  2.9644  1.1685
   15CHTO  H142 6055   5.868   1.945   1.588  3.8873 -2.4656  1.4630
   15CHTO   C79 6056   5.582   1.749   1.588 -0.7215  0.1693  0.0061
   15CHTO  H151 6057   5.593   1.726   1.694  0.2233  1.0333  0.1043
   15CHTO   O52 6058   5.437   1.786   1.563  0.1625 -0.3916 -0.1035
   15CHTO   C86 6059   5.400   1.867   1.444 -0.1478 -0.7191 -0.2248
   15CHTO  H158 6060   5.402   1.799   1.356  0.1529 -1.9306  0.7110
   15CHTO   C90 6061   5.254   1.919   1.448  0.1178  0.0676  0.1898
   15CHTO   O60 6062   5.153   1.821   1.410 -0.1402  0.1330  0.0695
   15CHTO  H138 6063   5.070   1.864   1.412 -0.3296 -0.2169  3.4730
   15CHTO   O50 6064   5.612   1.635   1.513 -0.4687  0.2667 -0.9686
   15CHTO   C73 6065   5.580   1.495   1.514 -0.7801 -0.2194 -0.1076
   15CHTO  H145 6066   5.478   1.487   1.553 -0.2513  1.6862  1.7410
   15CHTO   C74 6067   5.679   1.425   1.602  0.4172 -0.3306  0.8663
   15CHTO  H146 6068   5.674   1.473   1.700  0.5449  1.1599  0.1619
   15CHTO   O54 6069   5.632   1.287   1.615 -0.4279  0.8761  0.3852
   15CHTO  H133 6070   5.670   1.231   1.550 -1.0517  2.3014 -1.2613
   15CHTO   C75 6071   5.822   1.435   1.542 -0.4919  0.7591  0.0567
   15CHTO  H147 6072   5.867   1.535   1.546  0.9566  0.2466 -2.5256
   15CHTO   N13 6073   5.918   1.344   1.614 -0.1350  0.1812  0.4462
   15CHTO  H139 6074   5.954   1.401   1.698 -0.0161 -0.0734  0.5692
   15CHTO  H140 6075   6.002   1.324   1.548 -0.1917  0.9919  0.1227
   15CHTO   C76 6076   5.813   1.395   1.389 -0.3546  0.0035  0.9155
   15CHTO  H148 6077   5.805   1.286   1.379 -1.4439  0.3396 -2.0654
   15CHTO   O49 6078   5.715   1.469   1.311  0.6279 -0.0014  0.2714
   15CHTO   C77 6079   5.582   1.440   1.368  0.4826  0.1620 -0.7032
   15CHTO  H149 6080   5.561   1.333   1.368 -0.8631  0.3891 -3.1808
   15CHTO   C88 6081   5.473   1.507   1.282  0.1206 -0.4016 -0.5034
   15CHTO   O58 6082   5.480   1.449   1.152 -0.4596 -0.1229 -0.2951
   15CHTO  H136 6083   5.473   1.512   1.082 -2.9757  0.6872  0.6405
   15CHTO   O51 6084   5.960   1.442   1.338 -0.1286 -0.6553  0.4092
   15CHTO   C78 6085   5.985   1.420   1.189 -0.3392 -0.3934 -0.4249
   15CHTO  H150 6086   5.899   1.444   1.123  0.9648  0.3382 -1.9050
   15CHTO   C80 6087   6.024   1.275   1.167  0.2675  0.1719  0.4859
   15CHTO  H152 6088   6.078   1.244   1.259  0.0175 -2.4088 -0.1838
   15CHTO   O55 6089   5.898   1.209   1.171 -0.2789  0.0059 -0.2383
   15CHTO  H134 6090   5.859   1.206   1.086  1.3858 -0.6426 -1.0045
   15CHTO   C84 6091   6.099   1.249   1.030  0.7017 -0.6517 -0.3652
   15CHTO  H156 6092   6.015   1.252   0.960  0.8120 -0.4920 -0.4926
   15CHTO   N15 6093   6.158   1.109   1.025 -0.1630  0.4964 -0.1338
   15CHTO  H143 6094   6.100   1.034   0.975  0.6400 -0.2489  0.0453
   15CHTO  H144 6095   6.198   1.070   1.117 -0.3935 -0.6896 -0.5255
   15CHTO   C87 6096   6.199   1.360   1.003  0.1729 -0.6701  0.4235
   15CHTO  H159 6097   6.293   1.353   1.058  0.9845  3.7289 -0.2765
   15CHTO   O53 6098   6.127   1.495   1.014 -0.5165 -0.2145  0.1472
   15CHTO   C82 6099   6.093   1.520   1.153 -0.2249 -0.5450 -0.4540
   15CHTO  H154 6100   6.182   1.513   1.215  0.2933 -1.2863 -1.2593
   15CHTO   C89 6101   6.037   1.663   1.167 -0.2109  0.3902  0.2096
   15CHTO   O59 6102   6.137   1.764   1.168 -0.0619  0.1002 -0.2476
   15CHTO  H137 6103   6.183   1.768   1.086 -0.0159  0.7425 -0.1915
   15CHTO   O45 6104   6.244   1.349   0.841 -0.2092  0.6769 -0.4874
   15CHTO   C67 6105   6.333   1.454   0.803 -0.5886 -0.0486  0.0980
   15CHTO  H124 6106   6.290   1.546   0.841  0.7794  1.6836 -2.3990
   15CHTO   C65 6107   6.469   1.439   0.870 -0.6012  0.2626 -0.0185
   15CHTO  H122 6108   6.473   1.336   0.904  0.0981  0.2209 -0.2258
   15CHTO   O44 6109   6.485   1.520   0.985 -0.5388 -0.0502  0.1016
   15CHTO  H102 6110   6.550   1.488   1.046  1.6718  1.6020 -1.3114
   15CHTO   C63 6111   6.589   1.467   0.765  0.5089 -0.1929  0.6520
   15CHTO  H120 6112   6.590   1.385   0.693 -1.6531  1.1265 -0.9592
   15CHTO   N11 6113   6.734   1.463   0.814 -0.2121 -0.6050 -0.2734
   15CHTO  H108 6114   6.735   1.392   0.894  1.1328  0.6949  0.9004
   15CHTO  H109 6115   6.805   1.431   0.741  1.1687  1.7553 -0.0122
   15CHTO   C61 6116   6.553   1.597   0.687 -0.2805 -0.1426 -0.8871
   15CHTO  H118 6117   6.635   1.620   0.617 -1.1159 -0.7389 -2.0895
   15CHTO   O40 6118   6.430   1.583   0.600 -0.3988  0.0287 -0.2162
   15CHTO   C68 6119   6.345   1.470   0.639 -0.2942  0.8013  0.4645
   15CHTO  H125 6120   6.390   1.380   0.593 -2.3235 -1.0684  2.0454
   15CHTO   C72 6121   6.211   1.492   0.569  0.1560  0.1647 -0.2139
   15CHTO   O48 6122   6.120   1.379   0.575 -0.8822 -0.6429 -0.4709
   15CHTO  H105 6123   6.064   1.382   0.500 -0.2431 -0.6186 -0.9577
   15CHTO   O38 6124   6.543   1.709   0.775 -0.5289 -0.1887  0.1152
   15CHTO   C55 6125   6.549   1.847   0.739  0.1895  0.0155  0.5925
   15CHTO  H112 6126   6.485   1.856   0.650 -0.9125 -2.5091  1.0809
   15CHTO   C56 6127   6.697   1.902   0.710 -0.2818  0.2801  0.1264
   15CHTO  H113 6128   6.762   1.853   0.784 -1.2758 -1.3749 -0.0596
   15CHTO   O42 6129   6.744   1.855   0.587  0.3679 -0.1222  0.2449
   15CHTO  H100 6130   6.826   1.896   0.566  0.3538 -1.0327 -1.7436
   15CHTO   C57 6131   6.712   2.057   0.713 -0.6687  0.2362 -0.2308
   15CHTO  H114 6132   6.686   2.112   0.622  0.2285 -0.3689 -0.8613
   15CHTO   N10 6133   6.856   2.096   0.735 -0.2131  0.1399 -0.1004
   15CHTO  H106 6134   6.887   2.102   0.838  2.4229  2.3358 -0.9814
   15CHTO  H107 6135   6.931   2.040   0.681 -1.2839 -0.3532 -1.1073
   15CHTO   C58 6136   6.632   2.108   0.837 -0.4759 -0.9323 -0.2546
   15CHTO  H115 6137   6.673   2.057   0.926  0.5628  1.3994  0.6409
   15CHTO   O37 6138   6.495   2.077   0.817 -0.2821 -0.6332 -0.4669
   15CHTO   C59 6139   6.477   1.937   0.842  0.1192 -0.2941 -0.4325
   15CHTO  H116 6140   6.509   1.912   0.943  0.7107  0.5680 -0.4046
   15CHTO   C70 6141   6.325   1.911   0.837  0.4069  0.0312  0.3578
   15CHTO   O46 6142   6.303   1.775   0.886  0.4882 -0.3025 -0.5571
   15CHTO  H103 6143   6.225   1.768   0.939  0.0617  2.2763 -0.7372
   15CHTO   O39 6144   6.652   2.285   0.856 -0.3330  0.0682 -0.6625
   15CHTO   C60 6145   6.569   2.349   0.955 -0.0939  0.3501 -0.0642
   15CHTO  H117 6146   6.467   2.313   0.941  0.1321 -0.4929  0.4365
   15CHTO   C62 6147   6.605   2.304   1.097  0.1889 -0.4594 -0.1118
   15CHTO  H119 6148   6.595   2.195   1.110 -0.6948 -0.1155  2.3339
   15CHTO   O43 6149   6.746   2.333   1.116 -0.2900 -0.3649  0.1603
   15CHTO  H101 6150   6.797   2.266   1.076  0.2776  0.3689 -0.3653
   15CHTO   C66 6151   6.499   2.370   1.197 -0.6656  0.4948 -0.7677
   15CHTO  H123 6152   6.400   2.334   1.170 -0.5937  0.6887 -1.2822
   15CHTO   N12 6153   6.521   2.330   1.341  0.0452 -0.0267  0.4029
   15CHTO  H110 6154   6.595   2.396   1.384 -0.2922  0.2842  0.5116
   15CHTO  H111 6155   6.546   2.227   1.358  0.8056 -0.2897 -2.0445
   15CHTO   C69 6156   6.499   2.526   1.192  0.3610 -0.1984 -0.0361
   15CHTO  H126 6157   6.599   2.570   1.213 -0.1039  1.2320 -0.7378
   15CHTO   O41 6158   6.461   2.564   1.051  0.1185  0.2033  0.3281
   15CHTO   C64 6159   6.571   2.499   0.936 -0.2230  0.4881 -0.1937
   15CHTO  H121 6160   6.675   2.536   0.952  0.6582 -0.7881 -2.6778
   15CHTO   C71 6161   6.523   2.556   0.802 -0.0793 -0.3181 -0.2628
   15CHTO   O47 6162   6.601   2.664   0.757  0.3089 -0.8049 -0.8775
   15CHTO  H104 6163   6.552   2.738   0.726  0.0999 -0.2679  0.7018
   15CHTO   O34 6164   6.382   2.595   1.285  0.3949 -0.2108  0.4990
   15CHTO   C49 6165   6.339   2.711   1.342  0.3922 -0.1710 -0.2314
   15CHTO   H91 6166   6.397   2.737   1.430  0.7472 -0.6130 -0.3326
   15CHTO   C47 6167   6.190   2.686   1.376  0.1562 -0.3928 -0.1814
   15CHTO   H89 6168   6.171   2.767   1.450  0.6776  0.0249 -0.5030
   15CHTO   O33 6169   6.176   2.557   1.445  0.0928 -0.4470 -0.4067
   15CHTO   H70 6170   6.202   2.569   1.535 -1.2963 -1.6980  0.1907
   15CHTO   C45 6171   6.085   2.675   1.256 -0.5449 -0.1300 -0.0588
   15CHTO   H87 6172   6.067   2.567   1.243 -0.5855 -0.0306 -0.7996
   15CHTO    N8 6173   5.956   2.744   1.282  0.6719 -0.1114 -0.0335
   15CHTO   H75 6174   5.872   2.689   1.322  1.2951 -1.1906 -0.1740
   15CHTO   H76 6175   5.960   2.845   1.319 -0.3332 -0.6599  1.6662
   15CHTO   C43 6176   6.155   2.707   1.121 -0.4656 -0.0297  0.2570
   15CHTO   H85 6177   6.212   2.617   1.099 -1.8420 -0.3590 -2.1327
   15CHTO   O29 6178   6.242   2.822   1.132  0.0327  0.1021  0.0511
   15CHTO   C50 6179   6.334   2.829   1.244  0.0621 -0.1028 -0.5239
   15CHTO   H92 6180   6.427   2.832   1.185  1.5198  2.1281  1.7370
   15CHTO   C54 6181   6.338   2.956   1.325 -0.1746 -0.0262 -0.0155
   15CHTO   O36 6182   6.205   3.001   1.362 -0.1407  0.1069 -0.0313
   15CHTO   H72 6183   6.221   3.074   1.419  2.3798 -0.1619 -0.3233
   15CHTO   O27 6184   6.067   2.715   1.003  0.3121 -0.4441  0.4736
   15CHTO   C37 6185   6.040   2.638   0.882  0.0710 -0.3633 -0.0939
   15CHTO   H79 6186   6.121   2.567   0.861 -0.2737 -2.2907  4.4741
   15CHTO   C38 6187   5.902   2.573   0.900 -0.0869 -0.1395  0.2710
   15CHTO   H80 6188   5.837   2.647   0.949 -1.2679 -1.8003  1.2497
   15CHTO   O31 6189   5.931   2.463   0.990 -0.1756  0.2353 -0.3755
   15CHTO   H68 6190   5.856   2.426   1.033  1.1630 -1.7649  0.3203
   15CHTO   C39 6191   5.830   2.526   0.767  0.1978  0.4797  0.5929
   15CHTO   H81 6192   5.891   2.445   0.728 -0.1045  0.7436 -0.4264
   15CHTO    N7 6193   5.692   2.480   0.787  0.1778  0.7045 -0.2546
   15CHTO   H73 6194   5.688   2.407   0.866  0.3231  1.1142  0.1320
   15CHTO   H74 6195   5.630   2.565   0.810 -0.2609  0.5871 -0.9526
   15CHTO   C40 6196   5.845   2.637   0.660 -0.4661 -0.0646  0.2449
   15CHTO   H82 6197   5.785   2.721   0.696  1.2373  1.2457  0.1033
   15CHTO   O26 6198   5.983   2.677   0.649 -0.4761 -0.2415  0.0490
   15CHTO   C41 6199   6.039   2.743   0.766 -0.3861 -0.1132  0.1411
   15CHTO   H83 6200   5.973   2.829   0.785 -0.2433  0.1306 -0.4603
   15CHTO   C52 6201   6.183   2.790   0.734 -0.0733  0.4662  0.3880
   15CHTO   O35 6202   6.182   2.885   0.644  0.2950 -0.0712 -0.3401
   15CHTO   H71 6203   6.268   2.899   0.609  0.9185  0.2532  1.2978
   15CHTO   O28 6204   5.817   2.592   0.533 -0.4075  0.2988 -0.4077
   15CHTO   C42 6205   5.790   2.674   0.413 -0.2141  0.9447  0.0677
   15CHTO   H84 6206   5.777   2.598   0.336 -2.6610  1.6648 -0.2890
   15CHTO   C44 6207   5.901   2.766   0.369 -0.5935  0.0823  0.5656
   15CHTO   H86 6208   5.916   2.835   0.451 -2.1193 -0.3158  1.2155
   15CHTO   O32 6209   6.013   2.678   0.353  0.4803 -0.4904  0.6186
   15CHTO   H69 6210   6.070   2.717   0.290 -2.6742  1.2100 -1.3536
   15CHTO   C48 6211   5.859   2.850   0.238  0.3391 -0.0319 -0.1048
   15CHTO   H90 6212   5.842   2.774   0.162  0.2504 -0.8841  0.7557
   15CHTO    N9 6213   5.976   2.938   0.199  0.0659 -0.4325  0.2559
   15CHTO   H77 6214   5.947   3.002   0.116  2.0258  0.2853  0.0872
   15CHTO   H78 6215   6.064   2.880   0.178  0.0215 -0.1258 -0.8047
   15CHTO   C51 6216   5.731   2.928   0.267 -0.5191  0.1389 -0.3784
   15CHTO   H93 6217   5.744   3.003   0.344  1.9554 -0.6036 -0.0525
   15CHTO   O30 6218   5.629   2.828   0.306 -0.5174 -0.3973  0.3100
   15CHTO   C46 6219   5.661   2.748   0.425  0.8267 -0.5722  0.5346
   15CHTO   H88 6220   5.661   2.814   0.513  1.7032 -0.8868  0.7804
   15CHTO   C53 6221   5.541   2.657   0.460  0.0421  0.4750 -0.2434
   15CHTO   O72 6222   5.421   2.731   0.455  0.1388 -1.2512 -0.5516
   15CHTO  H199 6223   5.348   2.673   0.442 -0.0387 -1.0220 -0.5980
   15CHTO   O22 6224   5.674   2.987   0.144 -0.0374 -0.0666 -0.0627
   15CHTO   C31 6225   5.566   3.085   0.155  0.0280 -0.7175  0.1671
   15CHTO   H59 6226   5.527   3.096   0.052 -0.1083  0.8687  0.3750
   15CHTO   C29 6227   5.449   3.042   0.242  0.2121  0.9652 -0.0991
   15CHTO   H57 6228   5.483   3.020   0.344  0.2622  0.9756 -0.1132
   15CHTO   O21 6229   5.401   2.917   0.186 -0.1978  0.0485 -0.2416
   15CHTO   H37 6230   5.341   2.879   0.248 -0.7991 -0.7385 -1.2972
   15CHTO   C27 6231   5.335   3.160   0.246 -0.3216  0.4151  0.5970
   15CHTO   H55 6232   5.306   3.187   0.143  0.7090  0.7612  0.3926
   15CHTO    N5 6233   5.218   3.116   0.325  0.1928  0.3998 -0.3653
   15CHTO   H43 6234   5.124   3.147   0.280 -0.5179  1.6378  1.8934
   15CHTO   H44 6235   5.224   3.157   0.425 -1.6609  1.0998 -0.5208
   15CHTO   C25 6236   5.398   3.292   0.303 -0.3502 -1.1668 -0.1835
   15CHTO   H53 6237   5.432   3.260   0.402 -1.4297 -1.6908  0.0227
   15CHTO   O17 6238   5.514   3.325   0.223 -0.7059  0.1784  0.6619
   15CHTO   C32 6239   5.612   3.224   0.211 -0.1385 -0.8271 -0.3868
   15CHTO   H60 6240   5.650   3.211   0.312 -1.3429  0.9259  0.3070
   15CHTO   C36 6241   5.737   3.268   0.125  0.5825 -0.2919  0.1512
   15CHTO   O25 6242   5.820   3.359   0.194 -0.0398  0.1088 -0.6108
   15CHTO   H40 6243   5.901   3.368   0.148  0.0670  0.8450 -0.2887
   15CHTO   O15 6244   5.296   3.419   0.310 -0.4913 -0.1928 -0.4133
   15CHTO   C19 6245   5.325   3.540   0.388 -0.1593 -0.0485  0.6085
   15CHTO   H47 6246   5.254   3.620   0.359 -1.4177 -1.7256 -1.0740
   15CHTO   C20 6247   5.304   3.517   0.543 -0.0754  0.2937  0.4667
   15CHTO   H48 6248   5.354   3.424   0.575  0.4992  0.8749  1.2629
   15CHTO   O19 6249   5.165   3.505   0.568 -0.1526  0.0422  0.0081
   15CHTO   H35 6250   5.118   3.450   0.508  0.0402 -1.3788  1.1276
   15CHTO   C21 6251   5.363   3.632   0.628 -0.1310 -0.5192  0.5103
   15CHTO   H49 6252   5.298   3.718   0.611 -1.0045 -1.0309  1.1888
   15CHTO    N4 6253   5.361   3.604   0.772  0.2832  0.0847 -0.0350
   15CHTO   H41 6254   5.419   3.521   0.808  0.4633 -0.3941 -1.4109
   15CHTO   H42 6255   5.395   3.693   0.822  2.8425  0.2121 -1.8980
   15CHTO   C22 6256   5.509   3.665   0.584  0.2149  0.0744 -0.4859
   15CHTO   H50 6257   5.579   3.582   0.598  1.3867  1.3257  1.1917
   15CHTO   O14 6258   5.501   3.699   0.446 -0.2757 -0.4572  0.5084
   15CHTO   C23 6259   5.464   3.594   0.362  0.0144 -0.7211 -0.2793
   15CHTO   H51 6260   5.542   3.519   0.385 -0.4743 -0.9416  0.6920
   15CHTO   C34 6261   5.476   3.644   0.218 -0.2268  0.6729 -0.0293
   15CHTO   O23 6262   5.614   3.653   0.192 -0.6819  0.1581  0.7887
   15CHTO   H38 6263   5.642   3.740   0.213  0.2835 -0.5644  2.5588
   15CHTO   O16 6264   5.558   3.788   0.650  0.0162  0.0896 -0.3865
   15CHTO   C24 6265   5.664   3.760   0.767 -0.2079 -0.2232  0.4564
   15CHTO   H52 6266   5.665   3.655   0.797 -0.0860 -0.4814 -0.4324
   15CHTO   C26 6267   5.633   3.853   0.891  0.0641  0.2177  0.1384
   15CHTO   H54 6268   5.633   3.958   0.855 -0.6446  0.4732  0.8721
   15CHTO   O20 6269   5.502   3.818   0.943  1.0659  0.1614  0.1121
   15CHTO   H36 6270   5.433   3.838   0.882 -0.5103 -1.6753  1.2329
   15CHTO   C30 6271   5.751   3.842   0.996  0.1273  0.5173  0.3420
   15CHTO   H58 6272   5.751   3.739   1.035  0.0229 -0.2803 -1.7196
   15CHTO    N6 6273   5.716   3.922   1.118 -0.3231 -0.1589  0.1963
   15CHTO   H45 6274   5.792   3.900   1.191 -0.8790  2.7249  1.7202
   15CHTO   H46 6275   5.618   3.900   1.158  0.5984 -2.9575  1.0231
   15CHTO   C33 6276   5.894   3.870   0.934 -0.1663 -0.4945 -0.0969
   15CHTO   H61 6277   5.894   3.970   0.888 -1.8118 -1.0712 -1.4109
   15CHTO   O18 6278   5.902   3.775   0.822 -0.6153  0.1552  0.4915
   15CHTO   C28 6279   5.805   3.792   0.717 -0.5457  0.3691 -0.3771
   15CHTO   H56 6280   5.809   3.890   0.669 -0.3397 -0.3516 -1.8773
   15CHTO   C35 6281   5.853   3.697   0.608  0.0802 -0.3728  0.1615
   15CHTO   O24 6282   5.966   3.749   0.540 -0.0638  0.1315  0.3663
   15CHTO   H39 6283   6.040   3.735   0.596 -0.3631 -2.7696  0.0959
   15CHTO    O9 6284   6.010   3.860   1.020 -0.6615 -0.3565 -0.3716
   15CHTO   C13 6285   6.137   3.932   0.959  0.0747 -0.0370  0.5546
   15CHTO   H26 6286   6.098   4.024   0.911  1.0225  0.8876  1.5543
   15CHTO   C11 6287   6.211   3.837   0.854 -0.2373 -0.6060 -0.5109
   15CHTO   H24 6288   6.140   3.825   0.770 -1.1484 -2.4042  0.4845
   15CHTO    O8 6289   6.237   3.708   0.914  0.2662 -0.6300  0.1312
   15CHTO    H3 6290   6.274   3.643   0.857  1.0985 -0.0775  0.0389
   15CHTO    C9 6291   6.336   3.907   0.799  0.0375  0.6578 -0.4108
   15CHTO   H22 6292   6.302   4.001   0.753  2.1422  0.3865 -2.5858
   15CHTO    N2 6293   6.388   3.839   0.679 -0.0531  0.0608 -0.1903
   15CHTO   H10 6294   6.486   3.876   0.650  0.2288  1.5342  2.4121
   15CHTO   H11 6295   6.385   3.733   0.697 -1.6275 -0.2324 -2.0998
   15CHTO    C7 6296   6.437   3.924   0.917 -0.3499  0.2847 -0.5592
   15CHTO   H20 6297   6.521   3.980   0.871 -1.8434  3.1729  0.1168
   15CHTO    O4 6298   6.382   3.992   1.032  0.4366  0.0877 -0.4286
   15CHTO   C14 6299   6.247   3.970   1.072  0.1083  0.2828 -0.6595
   15CHTO   H27 6300   6.216   4.073   1.099  1.2464  0.3439  0.4446
   15CHTO   C18 6301   6.229   3.883   1.200  0.4417  0.0016  0.0501
   15CHTO   O13 6302   6.279   3.964   1.301 -0.6544  0.2281  0.4283
   15CHTO    H7 6303   6.346   3.924   1.352  0.0505  0.6076 -0.1980
   15CHTO    O2 6304   6.499   3.771   0.966  0.4897  0.3146 -0.2706
   15CHTO    C1 6305   6.638   3.772   1.004  0.1220  0.1926  0.8516
   15CHTO   H14 6306   6.676   3.876   1.015 -0.3901  0.2767  1.8942
   15CHTO    C2 6307   6.732   3.697   0.906 -0.2926  0.1824 -0.0200
   15CHTO   H15 6308   6.684   3.599   0.890 -1.7298  0.8998 -0.1854
   15CHTO    O6 6309   6.732   3.775   0.789 -0.1325 -0.5026  0.3825
   15CHTO    H1 6310   6.792   3.736   0.729 -1.2315 -2.1469  0.3126
   15CHTO    C3 6311   6.879   3.668   0.966 -0.4822  0.3585  0.2688
   15CHTO   H16 6312   6.941   3.759   0.975  2.4938 -1.1986 -3.0488
   15CHTO    N1 6313   6.954   3.582   0.867  0.4080  0.0417  0.0841
   15CHTO    H8 6314   6.975   3.637   0.777  0.4781 -1.1551 -0.6430
   15CHTO    H9 6315   6.898   3.490   0.854 -2.4800  2.0162 -1.8533
   15CHTO    C4 6316   6.864   3.605   1.105 -0.1645  0.7716 -0.2224
   15CHTO   H17 6317   6.821   3.507   1.089 -0.0661  0.7136 -0.1382
   15CHTO    O1 6318   6.782   3.684   1.195 -0.1692  0.4783 -0.2049
   15CHTO    C5 6319   6.648   3.706   1.148 -0.3682 -0.1798  0.1782
   15CHTO   H18 6320   6.603   3.608   1.138  1.9373 -1.2348 -0.1298
   15CHTO   C16 6321   6.583   3.785   1.264  0.2699  0.2427  0.0576
   15CHTO   O11 6322   6.560   3.699   1.372  0.4568  0.3105 -0.1064
   15CHTO    H5 6323   6.468   3.681   1.373 -0.0752  2.8909 -0.1666
   15CHTO    O3 6324   6.996   3.583   1.175 -0.3953 -0.4026 -0.1763
   15CHTO    C6 6325   7.014   3.477   1.269  0.0178 -0.5300  0.3672
   15CHTO   H19 6326   6.919   3.429   1.288 -0.7024  0.6345 -0.2459
   15CHTO    C8 6327   7.099   3.365   1.220 -0.3266 -0.1995  0.1725
   15CHTO   H21 6328   7.195   3.409   1.192 -0.7248  1.3692  1.1601
   15CHTO    O7 6329   7.034   3.303   1.109 -0.3388 -0.8407  0.5611
   15CHTO    H2 6330   6.946   3.284   1.135 -0.4819  3.2740  3.4223
   15CHTO   C12 6331   7.126   3.254   1.331  1.3503 -0.0560  0.1636
   15CHTO   H25 6332   7.025   3.216   1.357  1.8720 -0.3845  1.7807
   15CHTO    N3 6333   7.217   3.144   1.298 -0.6104 -1.0185 -0.1038
   15CHTO   H12 6334   7.226   3.133   1.191 -0.1039 -3.0023  0.1247
   15CHTO   H13 6335   7.192   3.045   1.332 -1.6242 -0.8666 -0.3781
   15CHTO   C15 6336   7.176   3.332   1.461  0.3186  0.9940  0.1572
   15CHTO   H28 6337   7.270   3.387   1.457  1.3122 -0.6377  0.2437
   15CHTO   O10 6338   7.189   3.236   1.589 -0.0507 -0.0123 -0.0568
   15CHTO    H4 6339   7.282   3.237   1.604 -0.1721  0.7131  0.6730
   15CHTO    O5 6340   7.080   3.431   1.500  0.3782  0.0855 -0.2896
   15CHTO   C10 6341   7.063   3.535   1.407 -0.1903 -0.5213  0.0204
   15CHTO   H23 6342   7.158   3.587   1.392  0.4919 -1.2065  1.9095
   15CHTO   C17 6343   6.960   3.635   1.464  0.1420  0.1886 -0.1238
   15CHTO   O12 6344   6.826   3.575   1.467 -0.0895 -0.3837 -0.3203
   15CHTO    H6 6345   6.768   3.625   1.521  2.2466  1.8972  0.2330
   16CHTO  H203 6346   5.118   2.864   0.607  0.8577  0.2121 -0.6808
   16CHTO   O82 6347   5.129   2.955   0.625  0.7197  0.1253 -0.1370
   16CHTO  C123 6348   5.195   2.991   0.746  0.1960 -0.0960 -0.0800
   16CHTO  H227 6349   5.174   2.918   0.826  3.1163  2.5111  3.1997
   16CHTO   O77 6350   5.331   2.979   0.691  0.0383 -0.0431  0.3369
   16CHTO  C118 6351   5.435   3.026   0.774 -0.2386  1.1555  0.1778
   16CHTO  H222 6352   5.430   2.970   0.869  0.9816 -1.7300 -1.3871
   16CHTO  C125 6353   5.565   2.987   0.702  0.0768 -0.2958  0.0474
   16CHTO   O84 6354   5.586   3.054   0.576  0.4293  0.4042  0.0920
   16CHTO  H205 6355   5.660   3.021   0.528  1.3578  1.6654  0.6537
   16CHTO  C114 6356   5.419   3.175   0.800 -0.1049  0.0207 -0.2995
   16CHTO  H218 6357   5.432   3.233   0.709  1.2124  0.7719  0.3515
   16CHTO  C116 6358   5.287   3.190   0.885  0.2178 -0.0399 -0.1430
   16CHTO  H220 6359   5.290   3.133   0.980 -0.7177  0.0945 -0.0309
   16CHTO   O79 6360   5.271   3.329   0.921  0.4521 -0.3016 -0.2389
   16CHTO  H201 6361   5.205   3.343   0.987  1.1901 -1.1685  0.6973
   16CHTO  C120 6362   5.167   3.136   0.795  0.4634 -0.3739 -0.0824
   16CHTO  H224 6363   5.159   3.199   0.704  0.4256  0.8894  0.7801
   16CHTO   N21 6364   5.033   3.143   0.863  0.0116 -0.1998  0.0089
   16CHTO  H211 6365   5.019   3.062   0.933 -0.4313  1.8866  2.4267
   16CHTO  H212 6366   4.962   3.125   0.784  0.3571  0.7128 -0.5161
   16CHTO   O75 6367   5.527   3.209   0.892  0.1229 -0.2314 -0.1988
   16CHTO  C112 6368   5.624   3.313   0.841  0.7525  0.2123 -0.2503
   16CHTO  H216 6369   5.577   3.386   0.774  0.2294  1.0045  0.9709
   16CHTO   O73 6370   5.722   3.242   0.776 -0.1088  0.4093  0.2739
   16CHTO  C113 6371   5.825   3.321   0.712 -0.2280 -0.6220  0.1044
   16CHTO  H217 6372   5.780   3.410   0.664 -0.3458  1.1171  3.2878
   16CHTO  C124 6373   5.901   3.236   0.606 -0.0681 -0.3512  0.0540
   16CHTO   O83 6374   5.951   3.106   0.637 -0.0122 -0.2463 -0.2600
   16CHTO  H204 6375   5.889   3.036   0.626  0.1671 -0.6320  1.1405
   16CHTO  C109 6376   5.917   3.364   0.834  0.1933 -0.2021  0.1804
   16CHTO  H213 6377   5.943   3.271   0.885  1.4793  0.9827  1.7325
   16CHTO  C110 6378   5.833   3.454   0.927 -0.2444 -0.3367  0.8899
   16CHTO  H214 6379   5.809   3.542   0.868  2.8285  0.1486  0.2482
   16CHTO   O78 6380   5.911   3.505   1.038  0.1603 -0.2834  0.7463
   16CHTO  H200 6381   5.857   3.555   1.095 -0.4244  2.5571 -2.1648
   16CHTO  C111 6382   5.700   3.381   0.964 -0.0259 -0.6938  0.5187
   16CHTO  H215 6383   5.726   3.298   1.031  2.5149 -0.8412 -0.5900
   16CHTO   N19 6384   5.607   3.471   1.040  0.2641  0.3109  0.0326
   16CHTO  H207 6385   5.662   3.499   1.128  0.2984  0.7861 -0.1377
   16CHTO  H208 6386   5.590   3.566   0.992 -0.6401 -1.0306 -2.3724
   16CHTO   O74 6387   6.038   3.431   0.802  0.4762 -0.2335  0.0349
   16CHTO  C115 6388   6.180   3.336   0.766  0.3446  0.1918 -0.4856
   16CHTO  H219 6389   6.161   3.229   0.771  1.9113 -0.1121 -0.6380
   16CHTO   O76 6390   6.237   3.365   0.607 -0.2670  0.1982  0.5559
   16CHTO  C122 6391   6.366   3.323   0.574  0.2047 -0.3471  0.3524
   16CHTO  H226 6392   6.394   3.376   0.483 -0.5019 -0.1445  0.2554
   16CHTO  C126 6393   6.357   3.172   0.533  0.2975 -0.3910  0.1068
   16CHTO   O85 6394   6.480   3.122   0.476 -0.2613  0.0767 -0.7255
   16CHTO  H206 6395   6.488   3.131   0.383  2.7660 -1.6005 -0.6747
   16CHTO  C121 6396   6.474   3.340   0.689  0.5358 -0.4715  0.4996
   16CHTO  H225 6397   6.566   3.284   0.663  0.1372  0.5142 -3.2429
   16CHTO   O81 6398   6.503   3.483   0.700  0.6614  0.4324 -0.0286
   16CHTO  H202 6399   6.544   3.522   0.626 -3.5358  1.1502 -2.1032
   16CHTO  C119 6400   6.421   3.288   0.825 -0.0418  0.4086  0.7745
   16CHTO  H223 6401   6.406   3.181   0.810  2.4804  0.1569 -0.1322
   16CHTO  C117 6402   6.289   3.364   0.865 -0.3135  0.0375  0.3152
   16CHTO  H221 6403   6.302   3.472   0.853 -1.2431 -0.0132 -1.2602
   16CHTO   N20 6404   6.254   3.332   1.002  0.0503  0.1438 -0.5191
   16CHTO  H209 6405   6.148   3.321   1.017 -0.2349  3.0898 -0.2402
   16CHTO  H210 6406   6.282   3.410   1.070 -0.8852 -0.3591  0.4616
   16CHTO   O80 6407   6.542   3.289   0.947  0.0488 -0.6779  0.2605
   16CHTO  C103 6408   6.567   3.163   1.039 -0.2482 -0.0173 -0.2139
   16CHTO  H190 6409   6.474   3.114   1.064 -0.6270  0.3691 -0.8630
   16CHTO  C101 6410   6.664   3.067   0.965  0.6454 -0.2848  0.4522
   16CHTO  H188 6411   6.755   3.123   0.947 -0.0928  0.7731 -0.0257
   16CHTO   O68 6412   6.592   2.995   0.820  0.0245 -0.2957  0.0099
   16CHTO  H168 6413   6.564   2.912   0.853 -0.4768  0.1090  0.6164
   16CHTO   C99 6414   6.708   2.955   1.073  0.0030 -0.5172  0.3786
   16CHTO  H186 6415   6.620   2.889   1.088  0.2771 -0.7476  0.9681
   16CHTO   N17 6416   6.827   2.869   1.018 -0.6765  0.0295 -0.4338
   16CHTO  H174 6417   6.850   2.797   1.096  0.5044 -0.0906 -0.8841
   16CHTO  H175 6418   6.826   2.825   0.919 -3.1575 -0.2686 -0.2922
   16CHTO   C97 6419   6.741   3.010   1.214 -0.5497 -0.6096  0.3370
   16CHTO  H184 6420   6.844   3.048   1.206 -1.2465  1.5013  1.0216
   16CHTO   O64 6421   6.647   3.110   1.259 -0.3270 -0.0610  0.4419
   16CHTO  C104 6422   6.630   3.220   1.170 -0.7671 -0.1700  0.4194
   16CHTO  H191 6423   6.719   3.278   1.147  0.1173 -2.3052 -1.8568
   16CHTO  C108 6424   6.535   3.315   1.238 -0.3801 -0.1677 -0.1854
   16CHTO   O71 6425   6.591   3.411   1.333  0.1016  0.4285  0.0746
   16CHTO  H171 6426   6.618   3.377   1.416  0.4245  1.4043  0.3782
   16CHTO   O62 6427   6.732   2.910   1.317 -0.3137 -0.1720 -0.5120
   16CHTO   C91 6428   6.816   2.942   1.431  0.2110 -0.6116 -0.2680
   16CHTO  H178 6429   6.898   3.006   1.398 -0.9624  2.2230  2.0841
   16CHTO   C92 6430   6.871   2.807   1.484 -0.0474  0.1422  0.0106
   16CHTO  H179 6431   6.920   2.753   1.401  1.0783  1.7430 -0.3791
   16CHTO   O66 6432   6.978   2.843   1.578 -0.0434 -0.1465  0.0649
   16CHTO  H166 6433   6.995   2.764   1.626 -2.5493  0.6073  2.2824
   16CHTO   C93 6434   6.769   2.721   1.561 -0.5540  0.1141 -0.2444
   16CHTO  H180 6435   6.826   2.653   1.625  0.8738  2.2127  0.7772
   16CHTO   N16 6436   6.694   2.630   1.471  0.2028 -0.2364 -0.1867
   16CHTO  H172 6437   6.760   2.555   1.431  0.2420  1.2137 -3.0059
   16CHTO  H173 6438   6.650   2.674   1.382 -1.4929 -0.9685  0.2720
   16CHTO   C94 6439   6.672   2.813   1.648  1.0779  0.0120  0.1758
   16CHTO  H181 6440   6.574   2.823   1.602  1.2941 -0.4929 -0.4089
   16CHTO   O61 6441   6.727   2.949   1.675  0.3425 -0.1452  0.3075
   16CHTO   C95 6442   6.737   3.027   1.556 -0.1201  0.1612 -0.0076
   16CHTO  H182 6443   6.640   3.051   1.513 -0.2168  0.8126  0.5671
   16CHTO  C106 6444   6.810   3.167   1.576  0.0019  0.3331  0.3859
   16CHTO   O69 6445   6.800   3.255   1.459 -0.1238 -0.0231  0.2065
   16CHTO  H169 6446   6.847   3.334   1.480  0.1628  0.0960 -0.8755
   16CHTO   O63 6447   6.651   2.751   1.785 -0.0467 -0.5204  0.0185
   16CHTO   C96 6448   6.536   2.620   1.793 -0.7765 -0.3200  0.0770
   16CHTO  H183 6449   6.582   2.540   1.735  0.7065 -0.3384  1.2305
   16CHTO   C98 6450   6.393   2.649   1.737  0.4044 -0.0703  0.5522
   16CHTO  H185 6451   6.399   2.696   1.638  0.8483 -1.1116  0.0771
   16CHTO   O67 6452   6.320   2.528   1.719 -0.7826  0.4151  0.1412
   16CHTO  H167 6453   6.310   2.478   1.797  0.7021  0.7267  0.5385
   16CHTO  C102 6454   6.326   2.762   1.830 -0.4489  0.3824  0.0541
   16CHTO  H189 6455   6.224   2.762   1.789 -0.9906 -0.4135  1.4007
   16CHTO   N18 6456   6.371   2.902   1.811 -0.9412 -0.1187  0.2078
   16CHTO  H176 6457   6.407   2.915   1.710  1.3337  1.8529  1.2039
   16CHTO  H177 6458   6.454   2.928   1.875  0.3635  0.4746 -1.6859
   16CHTO  C105 6459   6.334   2.722   1.984  0.3972  0.3556 -0.1411
   16CHTO  H192 6460   6.400   2.795   2.033 -0.4716  0.6942  0.5368
   16CHTO   O65 6461   6.394   2.591   2.003 -0.1983 -0.2340 -0.3936
   16CHTO  C100 6462   6.524   2.561   1.947  0.2389  0.4460 -0.4868
   16CHTO  H187 6463   6.594   2.611   2.015 -1.3707  0.1912  1.3771
   16CHTO  C107 6464   6.537   2.400   1.949  0.9713 -0.4841 -0.3481
   16CHTO   O70 6465   6.652   2.348   1.882  0.1876  0.2353  0.0859
   16CHTO  H170 6466   6.633   2.257   1.865 -0.5191  0.8766 -2.7304
   16CHTO   O57 6467   6.186   2.738   2.053 -0.3955 -0.0348  0.5714
   16CHTO   C85 6468   6.110   2.858   2.036 -0.0048  0.2855  0.5208
   16CHTO  H157 6469   6.157   2.917   1.955 -0.9050  0.8438  0.3953
   16CHTO   C83 6470   6.116   2.947   2.165  0.4224  0.9716  0.3269
   16CHTO  H155 6471   6.221   2.972   2.182  1.0631 -2.0229  1.1677
   16CHTO   O56 6472   6.075   2.877   2.283 -0.1248  0.0232  0.0942
   16CHTO  H135 6473   5.985   2.852   2.292  0.1234 -2.2866 -3.1809
   16CHTO   C81 6474   6.040   3.076   2.136  0.4278  0.4173  0.0658
   16CHTO  H153 6475   6.081   3.110   2.041 -1.2900 -2.2276 -1.6784
   16CHTO   N14 6476   6.060   3.192   2.231 -0.0404  0.2004  0.1114
   16CHTO  H141 6477   6.013   3.174   2.325 -2.0132  1.0945 -0.6564
   16CHTO  H142 6478   6.032   3.288   2.192 -1.6756  0.2709  1.4342
   16CHTO   C79 6479   5.886   3.042   2.108  0.3844 -0.6192  0.2716
   16CHTO  H151 6480   5.837   3.136   2.084  1.6157 -0.0434 -0.0470
   16CHTO   O52 6481   5.877   2.951   1.994 -0.1118 -0.1338  0.0388
   16CHTO   C86 6482   5.957   2.833   2.008  0.5653 -0.1227  0.3008
   16CHTO  H158 6483   5.906   2.799   2.100  0.1808  2.6180  1.1644
   16CHTO   C90 6484   5.928   2.725   1.904 -1.1971  0.1012 -0.1470
   16CHTO   O60 6485   5.964   2.769   1.772  0.0001 -0.1532  0.0813
   16CHTO  H138 6486   5.915   2.848   1.756  2.1756  1.9536  3.1792
   16CHTO   O50 6487   5.824   2.992   2.223  0.1553 -0.3783  0.7667
   16CHTO   C73 6488   5.716   2.964   2.312  0.4414 -0.2524 -0.4843
   16CHTO  H145 6489   5.751   2.895   2.389 -1.9634 -0.4095  0.5227
   16CHTO   C74 6490   5.601   2.892   2.238 -0.1806 -0.4229  0.1911
   16CHTO  H146 6491   5.645   2.804   2.189 -1.0945 -0.7790  0.0038
   16CHTO   O54 6492   5.511   2.839   2.334 -0.2297 -0.1174 -0.4944
   16CHTO  H133 6493   5.464   2.907   2.378 -0.0640  1.0319 -2.0852
   16CHTO   C75 6494   5.535   2.986   2.131 -0.5707  0.1913 -0.4646
   16CHTO  H147 6495   5.611   3.022   2.060 -2.2369  0.5138 -2.1249
   16CHTO   N13 6496   5.429   2.916   2.051  0.3796 -0.2595  0.1244
   16CHTO  H139 6497   5.445   2.929   1.945  1.1329 -0.7758  0.1694
   16CHTO  H140 6498   5.335   2.968   2.062  0.0757 -0.3161 -2.0830
   16CHTO   C76 6499   5.483   3.107   2.198 -0.3665 -0.5203 -0.0235
   16CHTO  H148 6500   5.397   3.079   2.260  1.0292  0.0667  2.2621
   16CHTO   O49 6501   5.595   3.175   2.279 -0.2713 -0.0643  0.3337
   16CHTO   C77 6502   5.661   3.098   2.378 -0.3483  0.2410 -0.3261
   16CHTO  H149 6503   5.597   3.067   2.461 -0.4739  0.3481 -0.3837
   16CHTO   C88 6504   5.765   3.172   2.458  0.0715  0.0364 -0.1402
   16CHTO   O58 6505   5.810   3.098   2.570  0.6795 -0.4390 -0.0226
   16CHTO  H136 6506   5.893   3.061   2.546  0.8416  0.0780 -0.2802
   16CHTO   O51 6507   5.451   3.227   2.083  0.2033 -0.2317  0.7151
   16CHTO   C78 6508   5.385   3.352   2.152 -0.9918 -0.1914  0.3589
   16CHTO  H150 6509   5.420   3.367   2.257 -3.1938 -2.0189  1.4112
   16CHTO   C80 6510   5.233   3.352   2.147 -0.0738  0.2063 -0.4866
   16CHTO  H152 6511   5.204   3.355   2.040  2.0633  0.0090 -1.0799
   16CHTO   O55 6512   5.188   3.229   2.201 -0.2118  0.0021  0.5112
   16CHTO  H134 6513   5.103   3.232   2.241 -0.6137 -2.8430  0.0330
   16CHTO   C84 6514   5.180   3.479   2.219 -0.6777 -0.3260  0.3528
   16CHTO  H156 6515   5.212   3.468   2.323  0.0234 -0.8366  0.0911
   16CHTO   N15 6516   5.037   3.502   2.223 -0.0548  0.3652 -1.2215
   16CHTO  H143 6517   4.998   3.491   2.124  1.0081  0.6556 -1.6752
   16CHTO  H144 6518   4.995   3.423   2.281 -1.9371  0.4332 -2.4397
   16CHTO   C87 6519   5.244   3.613   2.173 -0.5569  0.6542  1.0683
   16CHTO  H159 6520   5.200   3.668   2.089 -0.6837 -1.3108 -0.1751
   16CHTO   O53 6521   5.401   3.601   2.137  0.2824  0.1241 -0.3874
   16CHTO   C82 6522   5.436   3.478   2.073  0.1052  0.1327  0.5657
   16CHTO  H154 6523   5.397   3.473   1.971  0.0679  2.3610  0.4593
   16CHTO   C89 6524   5.591   3.481   2.067 -0.2423  0.1579  0.4660
   16CHTO   O59 6525   5.625   3.603   1.994  0.2543 -0.3791  0.0180
   16CHTO  H137 6526   5.686   3.657   2.041 -1.6091 -0.3892  2.5713
   16CHTO   O45 6527   5.239   3.725   2.304 -0.0343 -0.0904  0.0072
   16CHTO   C67 6528   5.348   3.817   2.310 -0.1105  0.1057  0.2158
   16CHTO  H124 6529   5.436   3.783   2.256  0.6038 -1.0599  2.0737
   16CHTO   C65 6530   5.301   3.949   2.240  0.7882 -0.6305  0.0994
   16CHTO  H122 6531   5.195   3.966   2.262  0.6111 -1.2881 -0.2393
   16CHTO   O44 6532   5.321   3.928   2.096  0.4499  0.3395 -0.5798
   16CHTO  H102 6533   5.268   3.994   2.054 -3.1839 -1.0691  1.5377
   16CHTO   C63 6534   5.369   4.075   2.309 -0.4957 -0.7597  0.7060
   16CHTO  H120 6535   5.307   4.100   2.395 -0.0812  1.8910  0.2908
   16CHTO   N11 6536   5.363   4.206   2.232  0.0117  0.4207 -0.0333
   16CHTO  H108 6537   5.448   4.213   2.167 -0.4091  0.7754 -0.5480
   16CHTO  H109 6538   5.351   4.281   2.308 -0.5481  0.8242 -0.5104
   16CHTO   C61 6539   5.510   4.045   2.371 -0.0456  0.2080  0.5189
   16CHTO  H118 6540   5.552   4.136   2.416  0.8199 -0.0089  0.1637
   16CHTO   O40 6541   5.509   3.943   2.475  0.6415  0.5798 -0.0350
   16CHTO   C68 6542   5.397   3.849   2.463  0.7585  0.5136  0.4242
   16CHTO  H125 6543   5.301   3.884   2.506 -0.2484  0.8558 -2.0147
   16CHTO   C72 6544   5.431   3.722   2.547 -0.7091  0.1128  0.3625
   16CHTO   O48 6545   5.325   3.634   2.595 -0.2339 -0.1347 -0.2691
   16CHTO  H105 6546   5.291   3.608   2.511  0.1455 -2.8236  0.3670
   16CHTO   O38 6547   5.605   4.009   2.269 -0.5012  0.1844  0.5653
   16CHTO   C55 6548   5.741   3.991   2.305  0.0377 -0.5189  0.3495
   16CHTO  H112 6549   5.749   3.991   2.415  3.4211  1.4476  0.1899
   16CHTO   C56 6550   5.823   4.119   2.245 -0.1175  0.3316  0.2869
   16CHTO  H113 6551   5.791   4.137   2.142  1.3777 -0.8709 -0.4089
   16CHTO   O42 6552   5.786   4.235   2.317 -0.3405 -0.3417  0.5327
   16CHTO  H100 6553   5.830   4.314   2.293 -0.5257  0.0980  1.6050
   16CHTO   C57 6554   5.980   4.091   2.251 -0.9307 -0.0480  0.4754
   16CHTO  H114 6555   6.014   4.095   2.354  1.0112  1.0526 -0.1761
   16CHTO   N10 6556   6.051   4.194   2.173 -0.0828 -0.5396 -0.1234
   16CHTO  H106 6557   6.054   4.167   2.068 -1.8567  1.1223 -0.6215
   16CHTO  H107 6558   6.151   4.200   2.213 -0.1237  1.3535 -0.2718
   16CHTO   C58 6559   6.018   3.948   2.200 -0.0183 -0.0275 -0.3352
   16CHTO  H115 6560   5.990   3.946   2.092  0.6439 -2.4578 -0.4822
   16CHTO   O37 6561   5.950   3.850   2.265  0.2119  0.7345 -0.0991
   16CHTO   C59 6562   5.808   3.857   2.249 -0.8692  0.7086  0.2052
   16CHTO  H116 6563   5.787   3.841   2.143 -2.0361 -1.1546  0.6820
   16CHTO   C70 6564   5.763   3.732   2.325  0.2101 -0.3044  0.4264
   16CHTO   O46 6565   5.819   3.607   2.281 -0.2041 -0.4050 -0.0847
   16CHTO  H103 6566   5.802   3.537   2.340 -0.3084 -1.2194 -1.0647
   16CHTO   O39 6567   6.172   3.909   2.208 -0.7287  0.0940 -0.2160
   16CHTO   C60 6568   6.236   3.851   2.093  0.0619  0.1901  0.0678
   16CHTO  H117 6569   6.164   3.813   2.020  2.6587  0.0438 -2.5288
   16CHTO   C62 6570   6.321   3.952   2.010  0.2162 -0.3629 -0.7861
   16CHTO  H119 6571   6.252   4.035   1.986  0.1792  0.2060  1.1522
   16CHTO   O43 6572   6.421   4.013   2.098 -0.0662  0.0114 -0.1486
   16CHTO  H101 6573   6.386   4.086   2.146  0.4193  0.9678 -1.2343
   16CHTO   C66 6574   6.375   3.872   1.879  0.0530 -0.3140  0.1174
   16CHTO  H123 6575   6.291   3.822   1.832 -1.5307  1.2390  1.2321
   16CHTO   N12 6576   6.436   3.967   1.786 -0.2997 -0.3959  0.4562
   16CHTO  H110 6577   6.511   4.032   1.828  0.6250 -0.3833 -1.1703
   16CHTO  H111 6578   6.357   4.025   1.739 -2.1639 -3.0081  0.2091
   16CHTO   C69 6579   6.466   3.759   1.926  0.4290 -0.0948 -0.3002
   16CHTO  H126 6580   6.548   3.813   1.979 -0.1568  1.1260 -0.6133
   16CHTO   O41 6581   6.383   3.654   2.022 -0.1929  0.3385 -0.5835
   16CHTO   C64 6582   6.316   3.721   2.150  0.0738 -0.1443  0.0327
   16CHTO  H121 6583   6.394   3.750   2.223 -0.1027 -1.7290  0.8662
   16CHTO   C71 6584   6.231   3.612   2.221 -0.6616 -0.0890  0.3350
   16CHTO   O47 6585   6.312   3.494   2.261 -0.0920  0.0823 -0.2075
   16CHTO  H104 6586   6.248   3.430   2.284  0.8006 -1.3143 -1.4883
   16CHTO   O34 6587   6.528   3.675   1.811  0.1171  0.3735 -0.3165
   16CHTO   C49 6588   6.637   3.577   1.783  0.0986  0.2650 -0.0209
   16CHTO   H91 6589   6.709   3.622   1.715  2.0755 -0.6439  1.4440
   16CHTO   C47 6590   6.576   3.459   1.715  0.1891  0.4694 -0.7150
   16CHTO   H89 6591   6.657   3.383   1.702  0.4866  0.2755  1.9610
   16CHTO   O33 6592   6.529   3.498   1.587 -0.1415 -0.7306 -0.7389
   16CHTO   H70 6593   6.436   3.488   1.586 -0.6892  3.3670  0.4187
   16CHTO   C45 6594   6.468   3.389   1.802  0.4016  0.3169 -0.7413
   16CHTO   H87 6595   6.395   3.467   1.829 -1.5102 -1.2878 -1.1028
   16CHTO    N8 6596   6.391   3.274   1.745 -0.2303  0.0651  0.3127
   16CHTO   H75 6597   6.310   3.240   1.807 -2.7983  0.9530 -2.4578
   16CHTO   H76 6598   6.355   3.299   1.647  1.2702 -0.6778 -0.4541
   16CHTO   C43 6599   6.530   3.350   1.942 -0.0938  0.2664  1.3955
   16CHTO   H85 6600   6.448   3.334   2.011 -3.2096  1.9903 -1.7737
   16CHTO   O29 6601   6.618   3.448   2.003 -0.0934  0.1040 -0.1803
   16CHTO   C50 6602   6.707   3.525   1.913 -0.4194  0.2933 -0.4789
   16CHTO   H92 6603   6.732   3.611   1.978  0.8362  0.5403 -1.2687
   16CHTO   C54 6604   6.841   3.445   1.881  0.4641  0.1614 -0.0403
   16CHTO   O36 6605   6.929   3.457   1.989  0.0184  0.1374 -0.6452
   16CHTO   H72 6606   7.010   3.413   1.971 -0.3901 -0.1063 -1.9061
   16CHTO   O27 6607   6.612   3.228   1.941  0.1731 -0.3005 -0.2603
   16CHTO   C37 6608   6.648   3.154   2.058  0.1281  0.2783  0.4032
   16CHTO   H79 6609   6.708   3.219   2.123 -0.4877 -0.6066  1.8789
   16CHTO   C38 6610   6.531   3.103   2.140 -0.5310  0.0873 -0.3234
   16CHTO   H80 6611   6.460   3.056   2.071 -0.5612 -0.5184  0.1166
   16CHTO   O31 6612   6.461   3.213   2.206 -0.0604 -0.2193  0.0480
   16CHTO   H68 6613   6.377   3.192   2.243 -0.2874  0.8373  0.1329
   16CHTO   C39 6614   6.565   3.008   2.256 -0.3879  0.1319  0.0872
   16CHTO   H81 6615   6.605   3.083   2.324 -1.3906  0.9118 -0.1773
   16CHTO    N7 6616   6.446   2.938   2.320  0.1890 -0.6893 -0.1606
   16CHTO   H73 6617   6.385   2.889   2.245  0.5346 -0.4985 -0.5718
   16CHTO   H74 6618   6.484   2.860   2.384  0.4289  0.2546  0.8486
   16CHTO   C40 6619   6.684   2.912   2.213 -1.2425 -0.4831  0.0183
   16CHTO   H82 6620   6.644   2.825   2.159  0.0439 -1.1540  0.1303
   16CHTO   O26 6621   6.782   2.980   2.137 -1.0576 -0.3488  0.2691
   16CHTO   C41 6622   6.743   3.039   2.006  0.1221 -0.0728 -0.4360
   16CHTO   H83 6623   6.687   2.970   1.941  2.2588 -1.9023 -0.3813
   16CHTO   C52 6624   6.878   3.073   1.930  0.2615 -0.0568 -0.0612
   16CHTO   O35 6625   6.941   2.959   1.895 -0.4685  0.6577  0.3213
   16CHTO   H71 6626   7.031   2.984   1.885 -0.4963  0.8430  0.5203
   16CHTO   O28 6627   6.762   2.875   2.333 -0.3435 -0.0075  0.0567
   16CHTO   C42 6628   6.807   2.736   2.363  0.0654 -0.2955 -0.3090
   16CHTO   H84 6629   6.904   2.757   2.407 -0.7671 -1.0963  1.9989
   16CHTO   C44 6630   6.834   2.638   2.240  0.0664  0.3970 -0.1414
   16CHTO   H86 6631   6.756   2.648   2.165  0.1440  0.8618 -0.1638
   16CHTO   O32 6632   6.947   2.692   2.162  0.5478 -0.2492  0.4336
   16CHTO   H69 6633   6.962   2.784   2.177  0.5623  0.0464 -1.3033
   16CHTO   C48 6634   6.864   2.489   2.288 -0.1792  0.1979  0.9488
   16CHTO   H90 6635   6.963   2.484   2.333  0.2264  1.3532  0.2223
   16CHTO    N9 6636   6.879   2.403   2.165  0.8469 -0.1486  0.3914
   16CHTO   H77 6637   6.897   2.299   2.186 -1.5212 -0.3461  1.6799
   16CHTO   H78 6638   6.946   2.433   2.086  0.1761 -0.5529 -0.3385
   16CHTO   C51 6639   6.755   2.443   2.395 -0.1080 -0.2304  0.4504
   16CHTO   H93 6640   6.656   2.440   2.349 -0.6796  1.0907  1.5797
   16CHTO   O30 6641   6.761   2.539   2.505  0.3024 -0.4768  0.3998
   16CHTO   C46 6642   6.716   2.674   2.470  0.5469  0.3612  0.0078
   16CHTO   H88 6643   6.616   2.664   2.428  0.1797 -0.3655  1.0407
   16CHTO   C53 6644   6.712   2.752   2.597  0.2411  0.5877  0.0130
   16CHTO   O72 6645   6.665   2.884   2.570  0.8220 -0.1081  0.3547
   16CHTO  H199 6646   6.575   2.886   2.544  1.2103 -0.8887 -1.0875
   16CHTO   O22 6647   6.790   2.315   2.443 -0.4217 -0.5970  0.4175
   16CHTO   C31 6648   6.688   2.228   2.503 -0.7078  0.3709  0.1855
   16CHTO   H59 6649   6.745   2.146   2.550 -1.5978 -0.9641 -1.0238
   16CHTO   C29 6650   6.612   2.301   2.619  0.5475 -0.0125  0.1318
   16CHTO   H57 6651   6.565   2.387   2.568  0.1572 -0.0401  0.4396
   16CHTO   O21 6652   6.701   2.363   2.708 -0.1734  0.0416  0.5057
   16CHTO   H37 6653   6.662   2.430   2.761  0.4250  0.2160  0.7423
   16CHTO   C27 6654   6.505   2.207   2.691 -0.1984  0.3248  0.0329
   16CHTO   H55 6655   6.561   2.131   2.748 -0.2593  0.1231 -0.1730
   16CHTO    N5 6656   6.427   2.290   2.780 -0.2311  0.7170 -0.1539
   16CHTO   H43 6657   6.382   2.228   2.857 -1.4151 -0.2749 -1.6090
   16CHTO   H44 6658   6.342   2.333   2.731 -2.4510 -2.9217  0.3486
   16CHTO   C25 6659   6.414   2.136   2.580 -0.0802  0.1385  0.4867
   16CHTO   H53 6660   6.349   2.212   2.533 -1.3872  0.6353  3.0424
   16CHTO   O17 6661   6.491   2.074   2.472 -0.2327 -0.6549  0.3225
   16CHTO   C32 6662   6.591   2.156   2.405  0.4308  0.6439  0.1423
   16CHTO   H60 6663   6.545   2.230   2.339 -1.5324 -0.6125  0.0506
   16CHTO   C36 6664   6.684   2.080   2.306  0.0854 -0.3214  0.1711
   16CHTO   O25 6665   6.618   2.019   2.190  0.2526  0.2582  0.3004
   16CHTO   H40 6666   6.543   1.963   2.203  1.0625 -0.9879 -0.2388
   16CHTO   O15 6667   6.323   2.030   2.655 -0.4391  0.3303  0.4529
   16CHTO   C19 6668   6.178   2.005   2.667 -0.3477  0.2235 -0.3178
   16CHTO   H47 6669   6.139   2.104   2.696 -0.3603  0.4417 -1.0779
   16CHTO   C20 6670   6.107   1.949   2.533 -0.5534 -0.1499  0.0500
   16CHTO   H48 6671   6.143   1.848   2.505  0.0824 -0.0543  0.5044
   16CHTO   O19 6672   6.135   2.050   2.436 -0.1095 -0.0741 -0.5292
   16CHTO   H35 6673   6.204   2.033   2.376  0.2759  0.8024 -0.3434
   16CHTO   C21 6674   5.950   1.931   2.556 -0.3676 -0.4166  0.1189
   16CHTO   H49 6675   5.913   2.033   2.572 -0.5156 -0.3924 -0.3781
   16CHTO    N4 6676   5.867   1.879   2.448 -1.0162 -0.4445  0.5448
   16CHTO   H41 6677   5.902   1.781   2.421  2.1710  0.1691  2.2116
   16CHTO   H42 6678   5.763   1.870   2.475 -1.1777  0.9606  0.4486
   16CHTO   C22 6679   5.929   1.852   2.686 -0.4700 -0.3604  0.5653
   16CHTO   H50 6680   5.950   1.747   2.666 -0.6209 -0.0667 -1.1680
   16CHTO   O14 6681   6.012   1.880   2.799 -0.4893 -0.4148 -0.7328
   16CHTO   C23 6682   6.151   1.903   2.771  0.0716 -0.6227  0.3382
   16CHTO   H51 6683   6.199   1.806   2.748  0.7104  0.0687 -1.2546
   16CHTO   C34 6684   6.225   1.936   2.904  0.3862 -0.5356  0.5176
   16CHTO   O23 6685   6.179   2.058   2.966  0.1206  0.0324 -0.1711
   16CHTO   H38 6686   6.098   2.049   3.012 -0.5575  2.4321 -0.8186
   16CHTO   O16 6687   5.801   1.872   2.747  0.3979  0.3565  0.9177
   16CHTO   C24 6688   5.746   1.746   2.827 -0.3479  0.4101 -0.0752
   16CHTO   H52 6689   5.826   1.682   2.866 -1.9609 -1.6442 -0.0501
   16CHTO   C26 6690   5.654   1.660   2.741 -0.4395 -0.2639  0.4496
   16CHTO   H54 6691   5.574   1.727   2.702 -1.0827 -0.4440  1.4325
   16CHTO   O20 6692   5.723   1.612   2.625  0.1898 -0.2203  0.3722
   16CHTO   H36 6693   5.682   1.538   2.585  1.6423 -0.1775 -1.2601
   16CHTO   C30 6694   5.587   1.552   2.827 -0.9325  0.7767  0.0914
   16CHTO   H58 6695   5.656   1.469   2.848  0.7433  1.4850 -2.3591
   16CHTO    N6 6696   5.488   1.483   2.743  0.2289 -0.0523 -0.1304
   16CHTO   H45 6697   5.418   1.421   2.797  1.2188  0.5029  1.8232
   16CHTO   H46 6698   5.546   1.416   2.681  0.4134  0.2925 -0.3309
   16CHTO   C33 6699   5.528   1.607   2.961  0.0231  0.6512 -0.0683
   16CHTO   H61 6700   5.441   1.670   2.934 -0.8465 -0.1048  0.9107
   16CHTO   O18 6701   5.626   1.682   3.029 -0.3765 -0.1158  0.2661
   16CHTO   C28 6702   5.671   1.799   2.955 -0.0459  0.3796  0.3664
   16CHTO   H56 6703   5.580   1.851   2.925  1.3048  2.1741 -0.6721
   16CHTO   C35 6704   5.746   1.888   3.055 -0.3701 -0.2548 -0.2753
   16CHTO   O24 6705   5.864   1.831   3.099  0.0487 -0.4483 -0.1460
   16CHTO   H39 6706   5.920   1.906   3.110 -1.3189  0.5629  0.1826
   16CHTO    O9 6707   5.475   1.502   3.048 -0.2692  0.1172  0.2216
   16CHTO   C13 6708   5.389   1.576   3.175 -0.3561  0.2572 -0.0545
   16CHTO   H26 6709   5.334   1.667   3.141  1.2127  1.5175  0.6958
   16CHTO   C11 6710   5.496   1.616   3.290  0.4235 -0.1095  0.2819
   16CHTO   H24 6711   5.561   1.695   3.249 -1.3096  1.0495 -0.2746
   16CHTO    O8 6712   5.580   1.503   3.322  0.0360 -0.1424 -0.7767
   16CHTO    H3 6713   5.646   1.530   3.383  1.0509  0.0331 -1.9222
   16CHTO    C9 6714   5.419   1.672   3.410 -0.6102 -0.6370 -0.1010
   16CHTO   H22 6715   5.341   1.735   3.365  0.4207 -0.1468 -1.2092
   16CHTO    N2 6716   5.497   1.755   3.499 -0.5075 -0.1616  0.3927
   16CHTO   H10 6717   5.499   1.856   3.461  0.5677 -0.2127  0.2913
   16CHTO   H11 6718   5.595   1.709   3.497 -0.9203 -1.0502  0.0763
   16CHTO    C7 6719   5.351   1.544   3.478 -0.0023  0.1461  0.6455
   16CHTO   H20 6720   5.274   1.591   3.542  1.1703 -0.3575  2.4782
   16CHTO    O4 6721   5.294   1.452   3.371 -0.4507  0.3099  0.0624
   16CHTO   C14 6722   5.271   1.491   3.237 -0.4826 -0.1305  0.3521
   16CHTO   H27 6723   5.181   1.556   3.239  1.1966  2.2296  1.9585
   16CHTO   C18 6724   5.232   1.370   3.152 -0.3052 -0.1978 -0.0693
   16CHTO   O13 6725   5.317   1.256   3.173 -0.4037  0.0945 -0.7635
   16CHTO    H7 6726   5.409   1.274   3.162 -0.0650 -0.4262  1.0090
   16CHTO    O2 6727   5.452   1.459   3.575  0.4317  0.2659 -0.4943
   16CHTO    C1 6728   5.385   1.363   3.661  0.1450  0.0361 -0.2505
   16CHTO   H14 6729   5.305   1.308   3.608 -0.9235  1.0229  0.3189
   16CHTO    C2 6730   5.326   1.421   3.795 -0.6657  0.6985  0.1218
   16CHTO   H15 6731   5.414   1.474   3.833  0.4742 -0.1012 -1.3452
   16CHTO    O6 6732   5.209   1.501   3.768 -0.6545 -0.2002 -0.1095
   16CHTO    H1 6733   5.242   1.588   3.757 -0.2568 -0.3042  0.2246
   16CHTO    C3 6734   5.282   1.303   3.892  0.4460 -0.1868  0.0215
   16CHTO   H16 6735   5.189   1.253   3.861  0.2366  0.5143 -0.5005
   16CHTO    N1 6736   5.245   1.356   4.028  1.2559 -0.3199  0.1004
   16CHTO    H8 6737   5.333   1.404   4.068  0.3771  0.5125  1.0552
   16CHTO    H9 6738   5.165   1.428   4.019  2.5725  1.4611  2.1664
   16CHTO    C4 6739   5.388   1.190   3.904 -0.0723 -0.2004 -0.8269
   16CHTO   H17 6740   5.478   1.231   3.950 -0.6686 -0.6741  0.8033
   16CHTO    O1 6741   5.418   1.148   3.767 -0.2375  0.3757  0.4698
   16CHTO    C5 6742   5.484   1.251   3.688  0.3354  0.0883  0.2017
   16CHTO   H18 6743   5.563   1.296   3.747 -1.1373 -0.1984  2.4666
   16CHTO   C16 6744   5.548   1.181   3.566 -0.5402  0.4990 -0.0635
   16CHTO   O11 6745   5.611   1.272   3.476  0.1534 -0.2134 -0.2232
   16CHTO    H5 6746   5.699   1.293   3.499  0.8231 -1.6646 -1.3735
   16CHTO    O3 6747   5.339   1.070   3.967  0.4940  0.2040 -0.3296
   16CHTO    C6 6748   5.420   1.027   4.085  0.7048  0.7788  0.3270
   16CHTO   H19 6749   5.486   1.107   4.117 -0.6734  1.2814  1.9869
   16CHTO    C8 6750   5.320   0.977   4.200  0.6204 -0.0044 -0.4300
   16CHTO   H21 6751   5.245   0.913   4.155 -0.3334  1.1672 -0.5308
   16CHTO    O7 6752   5.254   1.097   4.258 -0.1779 -0.2446  0.8932
   16CHTO    H2 6753   5.315   1.158   4.294  0.9894 -0.9408  0.1355
   16CHTO   C12 6754   5.402   0.893   4.312  0.3350  0.0502  0.2427
   16CHTO   H25 6755   5.469   0.963   4.366  1.5649 -0.3255 -0.7649
   16CHTO    N3 6756   5.315   0.841   4.427 -0.1861 -0.4951  1.0634
   16CHTO   H12 6757   5.308   0.734   4.437  0.3311 -0.8062 -1.4936
   16CHTO   H13 6758   5.348   0.895   4.514  0.2467 -1.5412  1.5503
   16CHTO   C15 6759   5.485   0.779   4.248 -0.2202 -0.5916  0.5572
   16CHTO   H28 6760   5.428   0.704   4.193 -1.7227 -0.3670  1.8062
   16CHTO   O10 6761   5.589   0.717   4.343 -0.0861  0.2475 -0.0868
   16CHTO    H4 6762   5.602   0.632   4.306 -2.5339 -0.0464 -0.3959
   16CHTO    O5 6763   5.572   0.840   4.149  0.2422 -0.3144 -0.3794
   16CHTO   C10 6764   5.505   0.903   4.035 -0.0609 -0.4845  0.4743
   16CHTO   H23 6765   5.437   0.825   4.000 -1.1992  1.6834 -2.3094
   16CHTO   C17 6766   5.601   0.936   3.919 -1.1748  0.4261 -0.0922
   16CHTO   O12 6767   5.631   0.812   3.850 -0.0324  0.0702  0.0362
   16CHTO    H6 6768   5.692   0.770   3.908  1.4397 -0.9617 -2.2188
   17CHTO  H203 6769   6.008   4.041   4.721  0.1332  0.4956  0.3936
   17CHTO   O82 6770   5.928   3.996   4.740  0.2821  0.0558 -0.0207
   17CHTO  C123 6771   5.813   4.083   4.724 -0.2165  0.0051 -0.0544
   17CHTO  H227 6772   5.725   4.035   4.769  1.6076 -3.5418 -0.0862
   17CHTO   O77 6773   5.852   4.209   4.803 -0.0364  0.5801 -0.2436
   17CHTO  C118 6774   5.768   4.324   4.803 -0.2334 -0.3723 -0.3506
   17CHTO  H222 6775   5.672   4.302   4.851  0.3753  0.0161  1.0897
   17CHTO  C125 6776   5.835   4.444   4.889 -0.6163  0.8026  0.1358
   17CHTO   O84 6777   5.884   4.386   5.011 -0.1154 -0.3169  0.0931
   17CHTO  H205 6778   5.893   4.450   5.080 -0.4936  1.3008 -1.3100
   17CHTO  C114 6779   5.731   4.368   4.663 -0.4250  0.4262  0.1813
   17CHTO  H218 6780   5.821   4.409   4.615 -1.6203  0.0690 -2.4347
   17CHTO  C116 6781   5.684   4.253   4.571  0.1676 -0.4728  0.5298
   17CHTO  H220 6782   5.583   4.223   4.606  0.0501 -0.5063  0.1623
   17CHTO   O79 6783   5.668   4.305   4.436  0.2523 -0.5046 -0.0035
   17CHTO  H201 6784   5.634   4.392   4.430  0.3365 -0.5006 -0.4663
   17CHTO  C120 6785   5.784   4.130   4.574  0.0516 -0.0150  0.1382
   17CHTO  H224 6786   5.883   4.165   4.538 -0.2295 -0.1787 -0.8163
   17CHTO   N21 6787   5.759   4.015   4.485  0.4734 -0.0924  0.0994
   17CHTO  H211 6788   5.735   4.036   4.382 -0.0715 -1.0302  0.0258
   17CHTO  H212 6789   5.841   3.946   4.501 -0.2370 -0.8143  0.6166
   17CHTO   O75 6790   5.635   4.474   4.677 -0.5749 -0.2489  0.6981
   17CHTO  C112 6791   5.614   4.578   4.535 -0.0737 -0.1290 -0.4322
   17CHTO  H216 6792   5.571   4.527   4.447  0.3389  1.3968 -1.5388
   17CHTO   O73 6793   5.739   4.640   4.505 -0.1178 -0.2193  0.3071
   17CHTO  C113 6794   5.734   4.733   4.390 -0.0278 -0.4015  0.3703
   17CHTO  H217 6795   5.686   4.692   4.298  0.1720  1.1815 -0.4544
   17CHTO  C124 6796   5.880   4.768   4.359  0.0320  0.2518 -0.0476
   17CHTO   O83 6797   5.966   4.655   4.332  0.0835  0.4469  0.3655
   17CHTO  H204 6798   5.995   4.615   4.412 -0.2206  0.7432  0.6256
   17CHTO  C109 6799   5.651   4.855   4.443  0.6070  0.6003 -0.0141
   17CHTO  H213 6800   5.700   4.888   4.536  1.1829  0.2688 -0.1933
   17CHTO  C110 6801   5.504   4.807   4.476  0.2687  0.3574  0.1130
   17CHTO  H214 6802   5.460   4.780   4.380  0.2432 -2.3476  0.8457
   17CHTO   O78 6803   5.415   4.919   4.510  0.0837  0.1380 -0.1090
   17CHTO  H200 6804   5.424   4.984   4.443 -0.3095  0.0567 -0.2375
   17CHTO  C111 6805   5.507   4.690   4.580 -0.2384  0.3895  0.0425
   17CHTO  H215 6806   5.537   4.736   4.675 -0.4597 -0.6650  0.6307
   17CHTO   N19 6807   5.370   4.634   4.595 -0.3533  0.1197  0.2841
   17CHTO  H207 6808   5.381   4.550   4.662  0.7574 -1.5926 -1.9854
   17CHTO  H208 6809   5.339   4.594   4.499 -1.5047 -0.9630  1.0818
   17CHTO   O74 6810   5.649   4.964   4.346  0.4688  0.2250  0.1813
   17CHTO  C115 6811   5.707   5.099   4.404  0.1149 -0.3156  0.2294
   17CHTO  H219 6812   5.692   5.108   4.512 -0.1756 -1.1478  0.2615
   17CHTO   O76 6813   5.865   5.106   4.386 -0.1694  0.4982 -0.1983
   17CHTO  C122 6814   5.909   5.129   4.252 -0.2898 -0.0831 -0.4640
   17CHTO  H226 6815   5.853   5.058   4.192 -2.7598  0.4833  1.0987
   17CHTO  C126 6816   6.059   5.104   4.233 -0.3927 -0.1543 -0.4535
   17CHTO   O85 6817   6.142   5.186   4.305 -0.0650 -0.5914 -0.1874
   17CHTO  H206 6818   6.142   5.169   4.398  1.1883 -0.5420 -0.1642
   17CHTO  C121 6819   5.863   5.278   4.207 -0.9297  0.2063 -0.7990
   17CHTO  H225 6820   5.951   5.345   4.210  1.4470 -2.7596 -1.0109
   17CHTO   O81 6821   5.810   5.279   4.071  0.7442  0.3742 -0.1687
   17CHTO  H202 6822   5.869   5.237   4.011  1.4996  0.2514  0.6616
   17CHTO  C119 6823   5.754   5.334   4.306  0.9146  0.5217  0.4281
   17CHTO  H223 6824   5.804   5.349   4.402  0.4837 -1.1337  0.9364
   17CHTO  C117 6825   5.639   5.228   4.331  0.3471  0.6039  0.4184
   17CHTO  H221 6826   5.591   5.194   4.239 -1.1485 -0.9751  1.7576
   17CHTO   N20 6827   5.533   5.278   4.423  0.2273 -0.4159 -0.1097
   17CHTO  H209 6828   5.509   5.377   4.386 -0.6903 -0.0608  1.4031
   17CHTO  H210 6829   5.554   5.278   4.529 -3.2939  0.9909  0.6265
   17CHTO   O80 6830   5.715   5.472   4.278  0.4545  0.0296  0.1211
   17CHTO  C103 6831   5.801   5.579   4.299 -0.1621 -0.4214  0.1405
   17CHTO  H190 6832   5.895   5.545   4.342  0.1200  1.6826  1.2263
   17CHTO  C101 6833   5.839   5.674   4.165  0.0281  0.4214  0.4427
   17CHTO  H188 6834   5.744   5.689   4.113 -0.0239 -1.0272  0.0947
   17CHTO   O68 6835   5.941   5.584   4.067 -0.1560  0.2290  0.4070
   17CHTO  H168 6836   5.950   5.620   3.981  0.6135 -0.0727  0.3559
   17CHTO   C99 6837   5.910   5.803   4.213 -0.6326  0.2978 -0.7488
   17CHTO  H186 6838   6.003   5.766   4.261 -1.1743 -0.9666 -0.6665
   17CHTO   N17 6839   5.958   5.889   4.097 -0.1076  0.0643  0.1979
   17CHTO  H174 6840   6.040   5.954   4.124  0.2174 -0.5895  0.7739
   17CHTO  H175 6841   5.980   5.833   4.008  0.6028 -1.1948  1.1510
   17CHTO   C97 6842   5.828   5.880   4.320 -0.2303 -0.4012  0.4300
   17CHTO  H184 6843   5.734   5.921   4.280 -0.0930  0.9200  1.4014
   17CHTO   O64 6844   5.805   5.788   4.428 -0.1789  0.2146 -0.1363
   17CHTO  C104 6845   5.730   5.668   4.409 -0.0523 -0.1152  0.6733
   17CHTO  H191 6846   5.626   5.677   4.378 -0.4469 -2.6532  1.1450
   17CHTO  C108 6847   5.731   5.592   4.538 -0.3959 -0.2831  0.2551
   17CHTO   O71 6848   5.650   5.649   4.632 -0.3584 -0.2525  0.2093
   17CHTO  H171 6849   5.655   5.602   4.713 -0.2146  1.5699  1.3072
   17CHTO   O62 6850   5.900   5.997   4.377 -0.1852  0.2819 -0.5268
   17CHTO   C91 6851   5.841   6.091   4.470 -0.0669 -0.4420  0.3741
   17CHTO  H178 6852   5.744   6.125   4.433  0.8372  1.9717  0.1202
   17CHTO   C92 6853   5.931   6.215   4.474 -0.4051 -0.5793 -0.3732
   17CHTO  H179 6854   5.964   6.250   4.375  0.0321 -2.1000 -0.7660
   17CHTO   O66 6855   5.861   6.324   4.524 -0.8247  0.0290  0.3631
   17CHTO  H166 6856   5.919   6.398   4.529  0.4480 -0.9733  0.6277
   17CHTO   C93 6857   6.050   6.206   4.573  0.2116  0.9367  0.1801
   17CHTO  H180 6858   6.091   6.307   4.584  0.2932  1.0059 -0.7138
   17CHTO   N16 6859   6.167   6.132   4.502 -0.2389  0.0229 -0.3319
   17CHTO  H172 6860   6.150   6.037   4.452  1.6782  1.4614 -3.9120
   17CHTO  H173 6861   6.196   6.199   4.423  2.1398  1.1028  1.4081
   17CHTO   C94 6862   6.011   6.141   4.713 -0.1485  0.7215 -0.0562
   17CHTO  H181 6863   6.061   6.046   4.728  0.4841  0.8491 -1.2932
   17CHTO   O61 6864   5.874   6.111   4.727 -0.1607  0.2643 -0.4726
   17CHTO   C95 6865   5.815   6.035   4.623  0.2081  0.9106  0.7923
   17CHTO  H182 6866   5.840   5.929   4.636  0.5048  0.9021  0.1215
   17CHTO  C106 6867   5.662   6.044   4.649 -0.2723 -0.0891 -0.0041
   17CHTO   O69 6868   5.602   5.933   4.720  0.3866  0.3635 -0.0509
   17CHTO  H169 6869   5.508   5.939   4.721  0.4536  1.5617 -0.9497
   17CHTO   O63 6870   6.078   6.237   4.828 -0.1613  0.0515 -0.4274
   17CHTO   C96 6871   5.972   6.324   4.903  0.4707  0.0992 -0.7301
   17CHTO  H183 6872   5.869   6.296   4.878 -0.6925  2.8200  0.8054
   17CHTO   C98 6873   5.972   6.469   4.864  0.2390  0.2014  0.3107
   17CHTO  H185 6874   6.077   6.500   4.857  0.7331 -1.4901  0.0079
   17CHTO   O67 6875   5.911   6.484   4.738 -0.7238 -0.0088 -0.2082
   17CHTO  H167 6876   5.972   6.499   4.668 -0.3225 -1.0141 -0.0799
   17CHTO  C102 6877   5.891   6.562   4.971  1.3535 -0.2202  0.0330
   17CHTO  H189 6878   5.783   6.539   4.964  1.4519 -0.4922 -0.7327
   17CHTO   N18 6879   5.899   6.704   4.951 -0.0249 -0.3694 -0.2587
   17CHTO  H176 6880   5.843   6.762   5.024 -1.5265 -0.4930 -1.2987
   17CHTO  H177 6881   5.839   6.713   4.862 -0.1966 -0.6575 -0.1707
   17CHTO  C105 6882   5.912   6.525   5.119 -0.5810  0.2328  0.5938
   17CHTO  H192 6883   6.017   6.547   5.140  0.0705  0.0175 -2.2050
   17CHTO   O65 6884   5.885   6.386   5.134  0.4464  0.2057 -0.1023
   17CHTO  C100 6885   5.987   6.309   5.062  0.5466 -0.1733 -0.1369
   17CHTO  H187 6886   6.086   6.345   5.094  0.4828  0.8774 -1.0783
   17CHTO  C107 6887   5.969   6.163   5.107 -0.4248  0.5886  0.3392
   17CHTO   O70 6888   6.005   6.150   5.244 -0.2449 -0.1768  0.3956
   17CHTO  H170 6889   5.999   6.058   5.262 -0.5630 -0.5594 -1.5058
   17CHTO   O57 6890   5.800   6.603   5.218  0.2681  0.0686  0.2545
   17CHTO   C85 6891   5.857   6.686   5.322  0.2646  0.7652 -0.4249
   17CHTO  H157 6892   5.934   6.743   5.265  0.4436 -0.0687 -1.0206
   17CHTO   C83 6893   5.924   6.602   5.438 -1.1325 -0.0626  0.4155
   17CHTO  H155 6894   5.994   6.534   5.389  0.3164  0.8880  1.1423
   17CHTO   O56 6895   5.822   6.511   5.500 -0.3243 -0.3992 -0.1266
   17CHTO  H135 6896   5.840   6.423   5.475  1.7796  0.5829 -2.2715
   17CHTO   C81 6897   5.997   6.704   5.525  0.0228 -0.5880  0.6277
   17CHTO  H153 6898   6.068   6.758   5.462 -1.5587 -0.5084 -1.1602
   17CHTO   N14 6899   6.079   6.633   5.626 -0.4745  0.0186  0.2488
   17CHTO  H141 6900   6.151   6.564   5.587  0.4906  0.5751  1.0289
   17CHTO  H142 6901   6.017   6.585   5.698  0.1732 -1.9718 -0.4986
   17CHTO   C79 6902   5.899   6.806   5.593  0.1169 -1.0718 -0.4523
   17CHTO  H151 6903   5.959   6.893   5.618 -1.4793 -0.1567  0.3019
   17CHTO   O52 6904   5.812   6.872   5.486  0.4296 -0.2467 -0.1948
   17CHTO   C86 6905   5.751   6.782   5.386 -0.4775  0.2744  0.5890
   17CHTO  H158 6906   5.684   6.720   5.449  0.9076 -1.2167  0.6314
   17CHTO   C90 6907   5.669   6.853   5.279 -0.1194 -0.4277  0.0946
   17CHTO   O60 6908   5.560   6.920   5.348  0.3999 -0.2166  0.4218
   17CHTO  H138 6909   5.591   6.988   5.404 -0.0732 -0.2343  0.7049
   17CHTO   O50 6910   5.823   6.758   5.705 -0.1453 -0.4397  0.0620
   17CHTO   C73 6911   5.737   6.820   5.806 -0.3971 -0.2034  0.0139
   17CHTO  H145 6912   5.725   6.927   5.784  0.2601 -0.4715 -1.8103
   17CHTO   C74 6913   5.784   6.802   5.953 -0.5081 -0.1663 -0.5524
   17CHTO  H146 6914   5.887   6.840   5.948 -0.8569  0.6503 -1.8210
   17CHTO   O54 6915   5.696   6.882   6.034 -0.0548 -0.5052  0.1781
   17CHTO  H133 6916   5.736   6.894   6.118 -1.5121 -1.6293  1.0367
   17CHTO   C75 6917   5.780   6.647   5.986  0.0055  0.2199 -0.9836
   17CHTO  H147 6918   5.855   6.598   5.923 -0.1789 -0.2586 -0.8369
   17CHTO   N13 6919   5.816   6.610   6.123  0.6350  0.3274 -0.0673
   17CHTO  H139 6920   5.913   6.562   6.118  0.7223  0.5014 -0.0598
   17CHTO  H140 6921   5.811   6.693   6.192  2.1346 -0.0412  0.5198
   17CHTO   C76 6922   5.639   6.585   5.953  0.0712  0.2864  0.4125
   17CHTO  H148 6923   5.567   6.633   6.020 -0.3406 -1.8812  1.5650
   17CHTO   O49 6924   5.608   6.620   5.817 -0.2144 -0.2765 -0.8336
   17CHTO   C77 6925   5.592   6.756   5.789  0.3194  0.3255 -0.6349
   17CHTO  H149 6926   5.520   6.811   5.851  2.0757  1.8347  0.0903
   17CHTO   C88 6927   5.530   6.760   5.652  0.0162 -0.0971 -0.1612
   17CHTO   O58 6928   5.475   6.922   5.633 -0.1593 -0.2020  0.0503
   17CHTO  H136 6929   5.529   6.972   5.575 -1.2711  0.1746 -0.6792
   17CHTO   O51 6930   5.636   6.438   5.955 -0.3395  0.5009  0.1916
   17CHTO   C78 6931   5.517   6.348   5.894  0.3899 -0.8463  0.1999
   17CHTO  H150 6932   5.441   6.406   5.838 -1.0091 -1.4968  1.3985
   17CHTO   C80 6933   5.452   6.273   6.017 -0.0346  0.1494 -0.2337
   17CHTO  H152 6934   5.528   6.212   6.070 -2.6589 -3.3737 -0.3798
   17CHTO   O55 6935   5.395   6.372   6.100  0.4607 -0.6754 -0.2357
   17CHTO  H134 6936   5.358   6.337   6.179 -1.4331  1.9787  0.1136
   17CHTO   C84 6937   5.340   6.167   5.968 -0.1661 -0.1284  0.2134
   17CHTO  H156 6938   5.263   6.228   5.922 -0.5911  1.9466  3.5617
   17CHTO   N15 6939   5.272   6.090   6.079  0.0754  0.3127  0.3008
   17CHTO  H143 6940   5.196   6.027   6.037 -0.7551 -0.4376  2.8434
   17CHTO  H144 6941   5.341   6.025   6.129 -1.6358 -2.1638 -0.4541
   17CHTO   C87 6942   5.399   6.081   5.851  0.7792 -0.4787 -0.2996
   17CHTO  H159 6943   5.467   6.006   5.889  0.3604  0.0872  1.6485
   17CHTO   O53 6944   5.466   6.170   5.743  0.9878  0.3037 -0.0826
   17CHTO   C82 6945   5.574   6.250   5.789  0.0955  0.1500  0.0710
   17CHTO  H154 6946   5.653   6.190   5.836 -0.1858 -0.5824 -0.3770
   17CHTO   C89 6947   5.644   6.328   5.679 -0.5018  1.0112 -0.1552
   17CHTO   O59 6948   5.557   6.417   5.610 -0.2970 -0.5532  0.1298
   17CHTO  H137 6949   5.538   6.492   5.664  0.1278 -0.3589  0.0113
   17CHTO   O45 6950   5.275   6.002   5.779 -0.5800  0.1475 -0.4395
   17CHTO   C67 6951   5.297   5.859   5.755 -0.3593 -0.8487 -0.2946
   17CHTO  H124 6952   5.394   5.820   5.786 -0.2437  0.3712  0.9274
   17CHTO   C65 6953   5.184   5.779   5.834 -0.0966 -0.3998  0.3914
   17CHTO  H122 6954   5.178   5.825   5.933 -0.1427  0.0593  0.1764
   17CHTO   O44 6955   5.224   5.641   5.860 -0.2565  0.3301 -0.1545
   17CHTO  H102 6956   5.268   5.634   5.943 -1.1056  0.7460  0.3343
   17CHTO   C63 6957   5.049   5.814   5.771  0.2301 -0.1175 -0.5614
   17CHTO  H120 6958   5.037   5.922   5.779  0.1394 -0.0605 -1.3964
   17CHTO   N11 6959   4.929   5.767   5.853  0.2594 -0.0935 -0.3296
   17CHTO  H108 6960   4.950   5.701   5.934 -0.3125  1.2497  0.9447
   17CHTO  H109 6961   4.861   5.720   5.785  0.5849 -0.6786 -0.2518
   17CHTO   C61 6962   5.041   5.764   5.622 -0.2765 -0.2173 -0.6104
   17CHTO  H118 6963   4.953   5.811   5.576 -0.7946  0.9236  1.4407
   17CHTO   O40 6964   5.152   5.820   5.550  0.3882 -0.1350  0.4112
   17CHTO   C68 6965   5.286   5.820   5.611  1.4397 -0.7769 -0.0231
   17CHTO  H125 6966   5.341   5.904   5.565 -1.1534  2.1576  2.0782
   17CHTO   C72 6967   5.365   5.690   5.580 -0.2768  0.2860 -0.0834
   17CHTO   O48 6968   5.406   5.694   5.443 -0.4340  1.0377 -0.2140
   17CHTO  H105 6969   5.457   5.770   5.426  0.6640 -0.0247 -1.8338
   17CHTO   O38 6970   5.045   5.619   5.612  0.5086  0.7428 -0.3957
   17CHTO   C55 6971   4.978   5.547   5.505 -0.3652 -0.5803  0.1115
   17CHTO  H112 6972   5.014   5.443   5.506 -1.5980 -1.0401 -1.1312
   17CHTO   C56 6973   4.997   5.618   5.360  0.5249 -0.6038 -0.9105
   17CHTO  H113 6974   4.969   5.724   5.364 -0.7575 -0.9355 -0.9758
   17CHTO   O42 6975   5.140   5.633   5.331  0.3865  0.1908  0.1477
   17CHTO  H100 6976   5.155   5.689   5.257  0.0463  0.3770  0.2224
   17CHTO   C57 6977   4.915   5.539   5.249 -0.3132 -0.4015 -0.6768
   17CHTO  H114 6978   4.960   5.440   5.239  1.3168  0.0604  1.7490
   17CHTO   N10 6979   4.904   5.604   5.121 -0.0534  0.0065 -0.5175
   17CHTO  H106 6980   4.877   5.539   5.039 -1.6708 -2.4219  1.8756
   17CHTO  H107 6981   4.998   5.652   5.098  0.1461  0.0696  0.4093
   17CHTO   C58 6982   4.774   5.518   5.314  0.3640 -0.5918  0.1385
   17CHTO  H115 6983   4.724   5.616   5.327  0.5891 -0.4019 -0.3920
   17CHTO   O37 6984   4.771   5.454   5.443  0.3135  0.1048  0.2827
   17CHTO   C59 6985   4.833   5.533   5.547 -1.1162 -0.2122  0.6191
   17CHTO  H116 6986   4.794   5.633   5.565  0.4293  0.1963  1.8864
   17CHTO   C70 6987   4.820   5.449   5.671 -0.1939  0.0454  0.4909
   17CHTO   O46 6988   4.685   5.455   5.722  0.0748 -0.3741 -0.0829
   17CHTO  H103 6989   4.687   5.423   5.810  0.8126  1.0338  0.4244
   17CHTO   O39 6990   4.670   5.422   5.222  0.2740  0.0823 -0.0770
   17CHTO   C60 6991   4.542   5.486   5.196 -0.4013  1.1417  0.0770
   17CHTO  H117 6992   4.539   5.569   5.267  1.7236  0.1548  1.3495
   17CHTO   C62 6993   4.526   5.534   5.050 -0.6137 -0.2831  0.7305
   17CHTO  H119 6994   4.608   5.604   5.025  1.2609 -1.7545  2.6204
   17CHTO   O43 6995   4.547   5.428   4.955  0.5808  0.0536 -0.0842
   17CHTO  H101 6996   4.553   5.454   4.865 -0.0363 -0.1035 -0.1736
   17CHTO   C66 6997   4.390   5.613   5.030 -0.2230  0.1431 -0.3038
   17CHTO  H123 6998   4.382   5.690   5.108  2.7680  0.2296 -0.0559
   17CHTO   N12 6999   4.370   5.682   4.897 -0.5424 -0.7081 -0.7705
   17CHTO  H110 7000   4.344   5.787   4.905 -0.7792 -0.8898  0.9350
   17CHTO  H111 7001   4.461   5.666   4.842  0.1925  1.3106 -0.1814
   17CHTO   C69 7002   4.275   5.516   5.067 -0.2532  0.1292 -0.2858
   17CHTO  H126 7003   4.266   5.425   5.005  1.0255 -0.7809  0.8323
   17CHTO   O41 7004   4.291   5.481   5.222  0.4766  0.7142 -0.0855
   17CHTO   C64 7005   4.423   5.397   5.231  0.2642 -0.2340 -0.4920
   17CHTO  H121 7006   4.429   5.311   5.161 -0.0096 -1.3874  0.8803
   17CHTO   C71 7007   4.444   5.354   5.373 -0.1723  0.2126  0.3747
   17CHTO   O47 7008   4.350   5.263   5.404 -0.2946 -0.5132 -0.5802
   17CHTO  H104 7009   4.391   5.195   5.455 -2.3336 -0.7535  0.8418
   17CHTO   O34 7010   4.142   5.592   5.063 -0.1269  0.3499 -0.0196
   17CHTO   C49 7011   4.045   5.690   5.114 -0.2038 -0.0952 -0.3436
   17CHTO   H91 7012   4.077   5.787   5.076  3.2282 -1.2479 -0.5938
   17CHTO   C47 7013   4.041   5.690   5.263  0.4733  0.2168  0.1968
   17CHTO   H89 7014   3.980   5.778   5.289  0.4944  0.0968  0.6705
   17CHTO   O33 7015   4.169   5.713   5.321  0.1213 -0.2967 -0.4000
   17CHTO   H70 7016   4.230   5.648   5.291  0.0547 -0.0225 -1.1364
   17CHTO   C45 7017   3.983   5.551   5.325  0.4582  0.1314 -0.8502
   17CHTO   H87 7018   4.062   5.483   5.362 -1.4005 -1.8905 -0.4550
   17CHTO    N8 7019   3.900   5.587   5.444 -0.2496  0.0688  0.0991
   17CHTO   H75 7020   3.953   5.564   5.536  0.6916  2.9218  0.3211
   17CHTO   H76 7021   3.893   5.695   5.453 -0.6992 -0.1549  2.8235
   17CHTO   C43 7022   3.912   5.463   5.203  0.7641 -0.2251 -0.3608
   17CHTO   H85 7023   3.993   5.404   5.160  1.7638  1.6480 -1.0770
   17CHTO   O29 7024   3.839   5.542   5.107  0.5480  0.0491  0.0301
   17CHTO   C50 7025   3.905   5.658   5.059  0.2742  0.3378  0.6001
   17CHTO   H92 7026   3.917   5.652   4.949 -0.5615  2.5902  0.3424
   17CHTO   C54 7027   3.814   5.783   5.064 -0.1399  0.2603  0.1445
   17CHTO   O36 7028   3.690   5.760   5.001 -0.2079 -0.2291  0.4463
   17CHTO   H72 7029   3.702   5.754   4.908 -0.8329  0.6234  0.2974
   17CHTO   O27 7030   3.822   5.364   5.259 -0.3375 -0.2517  0.4751
   17CHTO   C37 7031   3.858   5.224   5.249 -0.2035  0.1288  0.1172
   17CHTO   H79 7032   3.776   5.168   5.296 -0.8636  0.1256 -1.0167
   17CHTO   C38 7033   3.854   5.175   5.101 -0.1233  0.0165 -0.2782
   17CHTO   H80 7034   3.916   5.246   5.044 -2.0330 -0.7786 -3.4115
   17CHTO   O31 7035   3.721   5.190   5.055  0.9152  0.0312 -0.0737
   17CHTO   H68 7036   3.712   5.195   4.961 -0.2177  2.8798  0.1094
   17CHTO   C39 7037   3.921   5.033   5.082  0.4674 -0.0467  0.2607
   17CHTO   H81 7038   3.864   4.958   5.137 -0.0803 -1.7512 -2.5548
   17CHTO    N7 7039   3.911   4.998   4.937  0.8300  0.7877  0.4394
   17CHTO   H73 7040   3.812   5.025   4.902 -0.2816 -1.5312  1.6545
   17CHTO   H74 7041   3.906   4.890   4.941  0.3844  0.8021  0.3343
   17CHTO   C40 7042   4.063   5.037   5.150 -0.5489 -0.3804  0.0229
   17CHTO   H82 7043   4.125   5.115   5.105 -1.1129  1.2428  2.0063
   17CHTO   O26 7044   4.051   5.053   5.288 -0.0353  0.6039 -0.1177
   17CHTO   C41 7045   3.995   5.190   5.322  0.3533  0.3757  0.5246
   17CHTO   H83 7046   4.068   5.271   5.310 -1.2559  1.6093 -1.1587
   17CHTO   C52 7047   3.962   5.183   5.472 -0.6951  0.2931 -0.3031
   17CHTO   O35 7048   4.087   5.179   5.559  0.1476  0.1905  0.1336
   17CHTO   H71 7049   4.064   5.145   5.643  0.6690  1.4279  0.7957
   17CHTO   O28 7050   4.128   4.909   5.141  0.5182 -0.4732 -0.5396
   17CHTO   C42 7051   4.261   4.897   5.099  0.0897  0.0853  0.8377
   17CHTO   H84 7052   4.289   4.796   5.128  4.4727  1.3788  1.4120
   17CHTO   C44 7053   4.367   4.984   5.165 -0.6575 -0.8073 -0.4483
   17CHTO   H86 7054   4.352   5.087   5.132 -0.8435 -1.5177 -2.6815
   17CHTO   O32 7055   4.339   4.968   5.308  0.0214 -0.2526  0.2093
   17CHTO   H69 7056   4.408   5.009   5.355  0.9791  2.4333 -3.2957
   17CHTO   C48 7057   4.512   4.957   5.112 -0.1683  0.6440  0.2165
   17CHTO   H90 7058   4.536   4.853   5.135 -0.2427  0.3226 -1.1424
   17CHTO    N9 7059   4.617   5.041   5.182  0.0200 -0.2919  0.2476
   17CHTO   H77 7060   4.573   5.110   5.252  0.9412 -0.1585  0.7058
   17CHTO   H78 7061   4.688   5.101   5.125 -0.9006  1.6498  1.1115
   17CHTO   C51 7062   4.522   4.981   4.955 -0.7722  0.3177  0.5577
   17CHTO   H93 7063   4.488   5.082   4.931 -3.0289 -0.9273 -1.7460
   17CHTO   O30 7064   4.440   4.885   4.893 -0.0985  0.0623 -0.3868
   17CHTO   C46 7065   4.284   4.911   4.940  0.4201 -0.2193 -0.5077
   17CHTO   H88 7066   4.254   5.014   4.924 -0.0564 -0.2962 -0.1260
   17CHTO   C53 7067   4.198   4.806   4.866 -0.3000 -1.2637 -0.1207
   17CHTO   O72 7068   4.245   4.820   4.727 -0.3531 -0.2390  0.2389
   17CHTO  H199 7069   4.235   4.734   4.691 -1.0964  0.4016 -1.1120
   17CHTO   O22 7070   4.654   4.962   4.903 -0.0535 -0.0144  0.3966
   17CHTO   C31 7071   4.717   5.037   4.789  0.8595  0.2332  0.5357
   17CHTO   H59 7072   4.806   4.980   4.755  1.1796  0.8745  0.2996
   17CHTO   C29 7073   4.626   5.063   4.664 -0.6204 -0.2242  0.0959
   17CHTO   H57 7074   4.526   5.093   4.698 -0.4175 -0.0357  0.5364
   17CHTO   O21 7075   4.601   4.936   4.603  0.1873 -0.2564 -0.0094
   17CHTO   H37 7076   4.525   4.926   4.549  0.6494  0.2781 -0.7636
   17CHTO   C27 7077   4.685   5.179   4.574  0.5134  0.6380 -0.6030
   17CHTO   H55 7078   4.782   5.142   4.538  1.2385  0.8296  1.1107
   17CHTO    N5 7079   4.594   5.202   4.463 -0.1834 -0.5851  0.0055
   17CHTO   H43 7080   4.620   5.286   4.402 -1.9150 -0.6320 -0.8456
   17CHTO   H44 7081   4.600   5.109   4.408 -1.2611  0.0178 -1.1679
   17CHTO   C25 7082   4.717   5.302   4.661 -0.4466  0.0161  0.1433
   17CHTO   H53 7083   4.631   5.331   4.723 -0.9133  1.3422 -1.0899
   17CHTO   O17 7084   4.822   5.265   4.756 -0.1057 -0.0833  0.0172
   17CHTO   C32 7085   4.772   5.173   4.852  0.2867  0.4759  0.4221
   17CHTO   H60 7086   4.690   5.225   4.901  0.1245 -0.1531  0.8313
   17CHTO   C36 7087   4.889   5.154   4.951  0.0880 -0.2429 -0.0358
   17CHTO   O25 7088   4.918   5.263   5.035 -0.2661 -0.1132 -0.0024
   17CHTO   H40 7089   4.922   5.337   4.977 -2.9790  0.0891  0.0082
   17CHTO   O15 7090   4.758   5.422   4.575 -0.1666 -0.3343 -0.4741
   17CHTO   C19 7091   4.813   5.552   4.597 -0.6939 -0.1497 -0.0938
   17CHTO   H47 7092   4.841   5.582   4.495 -0.9305  0.7598  0.1005
   17CHTO   C20 7093   4.703   5.643   4.645 -0.0948 -0.2515  0.1275
   17CHTO   H48 7094   4.670   5.612   4.745  1.7750  1.0027  1.1646
   17CHTO   O19 7095   4.602   5.640   4.543 -0.0114 -0.0703 -0.0574
   17CHTO   H35 7096   4.531   5.580   4.562  0.3861 -0.7730 -0.7656
   17CHTO   C21 7097   4.749   5.792   4.665  0.5908  0.4232 -0.0046
   17CHTO   H49 7098   4.763   5.841   4.568  1.5526  1.8366  0.8156
   17CHTO    N4 7099   4.653   5.881   4.734 -0.0156 -0.6965  0.3301
   17CHTO   H41 7100   4.628   5.969   4.677  0.1693 -0.3699  0.7475
   17CHTO   H42 7101   4.567   5.823   4.766  1.0298 -2.9869 -0.9189
   17CHTO   C22 7102   4.888   5.794   4.742 -0.3865 -0.2122 -0.3953
   17CHTO   H50 7103   4.875   5.778   4.849  0.9367  1.0590 -0.0189
   17CHTO   O14 7104   4.981   5.696   4.701 -0.3936 -0.4066 -0.2061
   17CHTO   C23 7105   4.938   5.560   4.685 -0.4957  0.4255  0.4194
   17CHTO   H51 7106   4.918   5.525   4.788  0.1202  3.4672  1.6362
   17CHTO   C34 7107   5.053   5.478   4.634 -0.4314 -0.2762  0.4603
   17CHTO   O23 7108   5.155   5.457   4.733 -0.1065  0.1504 -1.0917
   17CHTO   H38 7109   5.151   5.368   4.765  0.3086  0.6144  0.3242
   17CHTO   O16 7110   4.970   5.906   4.712  0.5737 -0.0345 -0.1321
   17CHTO   C24 7111   5.037   5.972   4.835  0.0389 -0.1999  0.3063
   17CHTO   H52 7112   5.004   5.930   4.930  1.1162 -0.7141  0.4670
   17CHTO   C26 7113   5.000   6.127   4.835 -0.0018  0.3028 -0.0411
   17CHTO   H54 7114   4.996   6.167   4.732  2.1259  1.1202  0.1848
   17CHTO   O20 7115   4.863   6.139   4.875  0.0933 -0.2660 -0.2425
   17CHTO   H36 7116   4.849   6.110   4.963 -0.4828 -2.8463 -1.1318
   17CHTO   C30 7117   5.089   6.215   4.925  0.2456  0.4363  0.1999
   17CHTO   H58 7118   5.070   6.208   5.033 -2.8647  0.0671 -0.3466
   17CHTO    N6 7119   5.072   6.362   4.903 -0.2437  0.2546  0.0456
   17CHTO   H45 7120   4.969   6.393   4.899 -0.6282 -1.1390 -1.5625
   17CHTO   H46 7121   5.123   6.425   4.974  0.0011 -0.5800  0.6140
   17CHTO   C33 7122   5.237   6.175   4.912 -0.1255  0.2190 -0.1943
   17CHTO   H61 7123   5.272   6.201   4.811 -2.0410  0.2239 -0.8747
   17CHTO   O18 7124   5.249   6.033   4.928  0.1344 -0.3356  0.5666
   17CHTO   C28 7125   5.189   5.948   4.830  0.2084  0.0758  0.1917
   17CHTO   H56 7126   5.221   5.983   4.732 -0.4592  1.0389  0.3054
   17CHTO   C35 7127   5.222   5.802   4.876 -0.4328 -0.0021 -0.2792
   17CHTO   O24 7128   5.356   5.781   4.908 -0.1369 -0.2375 -0.8380
   17CHTO   H39 7129   5.386   5.845   4.970 -1.1389 -0.6206  0.0467
   17CHTO    O9 7130   5.329   6.244   5.001 -0.5109  0.0557 -0.2873
   17CHTO   C13 7131   5.482   6.202   4.998  0.7085 -0.1082  0.5424
   17CHTO   H26 7132   5.507   6.149   4.904  1.2240  0.4882  0.3433
   17CHTO   C11 7133   5.528   6.121   5.125 -0.0752  0.2366  0.0894
   17CHTO   H24 7134   5.601   6.044   5.096 -2.2640 -2.1877  0.7597
   17CHTO    O8 7135   5.409   6.053   5.176  0.2577 -0.2643  0.0399
   17CHTO    H3 7136   5.339   6.112   5.196 -0.2977 -0.7152 -0.5756
   17CHTO    C9 7137   5.598   6.208   5.231 -0.3683 -0.7411 -0.1642
   17CHTO   H22 7138   5.697   6.229   5.187 -0.9122 -0.5966 -1.3544
   17CHTO    N2 7139   5.630   6.139   5.359 -0.1684 -0.0474 -0.1198
   17CHTO   H10 7140   5.557   6.157   5.437 -0.2039 -3.3550  0.6795
   17CHTO   H11 7141   5.728   6.178   5.381 -0.2790  0.1535  0.0148
   17CHTO    C7 7142   5.526   6.346   5.237 -0.0331  0.2303  0.1265
   17CHTO   H20 7143   5.574   6.403   5.320  1.0350 -0.9034  0.3188
   17CHTO    O4 7144   5.544   6.412   5.111  0.3019  0.2538 -0.1528
   17CHTO   C14 7145   5.565   6.340   4.987 -0.0164  0.1720  0.6203
   17CHTO   H27 7146   5.674   6.320   4.987  0.3538  2.1162  0.8674
   17CHTO   C18 7147   5.528   6.436   4.870 -0.1098  0.0426  0.1659
   17CHTO   O13 7148   5.396   6.490   4.878 -0.5516  0.1865 -0.3253
   17CHTO    H7 7149   5.395   6.565   4.822 -1.0628 -1.1717 -2.2037
   17CHTO    O2 7150   5.356   6.338   5.265 -0.3909 -0.1225  0.6362
   17CHTO    C1 7151   5.314   6.362   5.400  0.0322 -0.3879 -0.0613
   17CHTO   H14 7152   5.402   6.362   5.468  1.0570 -0.0885 -1.3590
   17CHTO    C2 7153   5.213   6.248   5.439  0.2642  0.9350  0.3231
   17CHTO   H15 7154   5.136   6.256   5.361  0.6789 -0.1515 -0.2016
   17CHTO    O6 7155   5.275   6.120   5.442 -0.3556  0.9538  0.2075
   17CHTO    H1 7156   5.320   6.105   5.361  0.0743  0.7950  0.4742
   17CHTO    C3 7157   5.141   6.278   5.579  0.8637  0.2925  0.0150
   17CHTO   H16 7158   5.213   6.273   5.661  0.3160 -2.0432  0.4098
   17CHTO    N1 7159   5.032   6.175   5.599  0.1587 -0.6389  0.0711
   17CHTO    H8 7160   4.943   6.182   5.537 -1.5026 -1.5848  2.2817
   17CHTO    H9 7161   4.988   6.194   5.696  0.4984 -0.6377  0.2229
   17CHTO    C4 7162   5.090   6.430   5.580 -0.5514  0.3012  0.2694
   17CHTO   H17 7163   5.009   6.440   5.509 -0.9740  1.5407  0.9103
   17CHTO    O1 7164   5.201   6.518   5.543  0.3662 -0.1496  0.1105
   17CHTO    C5 7165   5.242   6.505   5.409  0.4304 -0.4663  0.1605
   17CHTO   H18 7166   5.165   6.508   5.332  0.1517 -0.0739  0.4503
   17CHTO   C16 7167   5.336   6.620   5.372 -0.2934  0.3158  0.3184
   17CHTO   O11 7168   5.344   6.635   5.231  0.5434 -0.1870  0.4319
   17CHTO    H5 7169   5.430   6.632   5.194  0.7890  0.6296  0.9194
   17CHTO    O3 7170   5.058   6.472   5.710 -0.0542  0.4660 -0.0258
   17CHTO    C6 7171   4.987   6.599   5.719  0.8141 -0.7661 -0.6064
   17CHTO   H19 7172   4.993   6.656   5.626 -2.4867  0.1321 -0.3507
   17CHTO    C8 7173   4.830   6.581   5.740  0.1362 -0.1218 -0.5589
   17CHTO   H21 7174   4.815   6.557   5.845  0.7650 -2.2725 -0.9248
   17CHTO    O7 7175   4.780   6.481   5.656  0.2787  0.3201  0.1872
   17CHTO    H2 7176   4.693   6.452   5.675  0.3586  0.6040  0.9938
   17CHTO   C12 7177   4.756   6.725   5.732 -0.2675  0.0930  0.6394
   17CHTO   H25 7178   4.781   6.764   5.631  1.0621 -1.7947  0.2174
   17CHTO    N3 7179   4.609   6.704   5.759  0.3079 -0.5833 -0.3104
   17CHTO   H12 7180   4.562   6.663   5.670 -1.8059  1.6494 -0.2607
   17CHTO   H13 7181   4.601   6.641   5.846  1.5812 -0.8037 -0.3470
   17CHTO   C15 7182   4.822   6.819   5.841 -0.3766  0.5663  0.2682
   17CHTO   H28 7183   4.802   6.784   5.942 -0.7583 -2.0872 -0.6819
   17CHTO   O10 7184   4.792   6.955   5.818 -0.0191 -0.0092  0.5560
   17CHTO    H4 7185   4.702   6.979   5.810  0.1946  0.1317 -1.7404
   17CHTO    O5 7186   4.965   6.819   5.825 -0.0680  0.5411  0.4254
   17CHTO   C10 7187   5.034   6.690   5.832  0.1744  0.0671 -0.0016
   17CHTO   H23 7188   5.025   6.643   5.929 -1.7614  0.4022  0.0043
   17CHTO   C17 7189   5.180   6.728   5.823 -0.1736 -0.2417  0.0890
   17CHTO   O12 7190   5.274   6.627   5.865  0.0436 -0.6351  0.2308
   17CHTO    H6 7191   5.272   6.566   5.793 -0.1191  0.7147 -0.9190
   18CHTO  H203 7192   6.387   7.115   1.198  1.0206  2.2209 -0.0576
   18CHTO   O82 7193   6.459   7.098   1.141  0.4104 -0.1393 -0.2084
   18CHTO  C123 7194   6.415   6.995   1.055  0.0411 -0.1958  0.1485
   18CHTO  H227 7195   6.328   6.948   1.102  0.3425 -1.5037 -0.5640
   18CHTO   O77 7196   6.373   7.066   0.937 -0.8607 -0.0800  0.1431
   18CHTO  C118 7197   6.334   6.988   0.826  0.5856  0.0048 -0.9952
   18CHTO  H222 7198   6.244   6.932   0.854  1.8246 -1.4347  0.1822
   18CHTO  C125 7199   6.305   7.075   0.692 -0.9083 -0.2963 -0.5174
   18CHTO   O84 7200   6.416   7.164   0.672  0.4074 -0.1272 -0.1453
   18CHTO  H205 7201   6.414   7.205   0.587  0.0840 -0.7848 -0.4544
   18CHTO  C114 7202   6.441   6.884   0.785 -0.4488 -0.3606  0.2294
   18CHTO  H218 7203   6.532   6.940   0.765 -1.4907  1.0884 -0.5716
   18CHTO  C116 7204   6.479   6.797   0.912  0.2539  0.7311 -0.1718
   18CHTO  H220 7205   6.386   6.741   0.935 -0.7470  2.6092  0.5361
   18CHTO   O79 7206   6.569   6.697   0.870  0.2503  0.0185  0.4356
   18CHTO  H201 7207   6.611   6.661   0.946 -0.8817 -0.5656  0.7938
   18CHTO  C120 7208   6.526   6.884   1.026 -0.2835  0.2036 -0.2101
   18CHTO  H224 7209   6.619   6.928   0.985  0.2787 -0.5167  0.2798
   18CHTO   N21 7210   6.563   6.803   1.149  0.4566  0.1147  0.1316
   18CHTO  H211 7211   6.632   6.867   1.202 -0.0732  1.0901 -0.3319
   18CHTO  H212 7212   6.590   6.701   1.130 -0.6084  0.0673 -1.1588
   18CHTO   O75 7213   6.392   6.809   0.668 -0.1201 -0.0169 -0.7213
   18CHTO  C112 7214   6.519   6.815   0.546 -0.4218 -0.5058 -0.1660
   18CHTO  H216 7215   6.614   6.819   0.600 -0.9409  0.8865  0.6712
   18CHTO   O73 7216   6.494   6.933   0.467 -0.2729 -0.5290  0.5444
   18CHTO  C113 7217   6.592   6.953   0.361 -0.1340  0.4168  0.1528
   18CHTO  H217 7218   6.692   6.960   0.409 -0.1087  2.2288 -0.1449
   18CHTO  C124 7219   6.550   7.078   0.288 -0.6947 -0.7350 -0.0894
   18CHTO   O83 7220   6.500   7.191   0.370  0.0552 -0.0950 -0.4151
   18CHTO  H204 7221   6.493   7.260   0.307 -0.7775  0.4382  0.2419
   18CHTO  C109 7222   6.596   6.827   0.265  0.6959 -0.7828  0.5834
   18CHTO  H213 7223   6.495   6.817   0.221  0.8600  1.5574 -0.3976
   18CHTO  C110 7224   6.634   6.698   0.346  0.3021 -0.4818 -0.2928
   18CHTO  H214 7225   6.728   6.706   0.402 -0.2641  0.8889  0.4856
   18CHTO   O78 7226   6.641   6.585   0.252  0.4847 -0.2621  0.7716
   18CHTO  H200 7227   6.707   6.607   0.189 -2.2591  0.8095 -1.8300
   18CHTO  C111 7228   6.524   6.683   0.460  0.0426 -0.9396  0.0049
   18CHTO  H215 7229   6.425   6.664   0.414 -0.1505 -0.1230  0.0725
   18CHTO   N19 7230   6.557   6.567   0.541  0.6478 -0.2383 -0.3684
   18CHTO  H207 7231   6.473   6.502   0.562  1.3964 -0.3738  2.3353
   18CHTO  H208 7232   6.582   6.604   0.639 -1.0366  0.5363 -0.2163
   18CHTO   O74 7233   6.687   6.865   0.159  0.0116 -0.3830 -0.0048
   18CHTO  C115 7234   6.641   6.806   0.014 -0.1096  0.2129  0.2611
   18CHTO  H219 7235   6.598   6.705   0.021  0.5371 -0.0266  0.8402
   18CHTO   O76 7236   6.533   6.887  -0.051  0.3622 -0.0985  0.4042
   18CHTO  C122 7237   6.580   7.016  -0.090 -0.3375 -0.2315  0.2058
   18CHTO  H226 7238   6.622   7.070  -0.005  0.8129  1.0667 -1.1542
   18CHTO  C126 7239   6.454   7.103  -0.119 -0.0321  0.1270 -0.3623
   18CHTO   O85 7240   6.468   7.242  -0.141  0.0520  0.1065 -0.0503
   18CHTO  H206 7241   6.542   7.274  -0.092  0.0587  0.9972 -0.6227
   18CHTO  C121 7242   6.680   7.001  -0.220 -0.0142  0.2267  0.4153
   18CHTO  H225 7243   6.621   7.008  -0.314 -1.2890 -2.2470  0.9882
   18CHTO   O81 7244   6.773   7.107  -0.202  0.4754 -0.1381  0.2032
   18CHTO  H202 7245   6.768   7.169  -0.272 -0.2136  2.4332  2.4782
   18CHTO  C119 7246   6.746   6.859  -0.219  0.4245  0.2011  0.9777
   18CHTO  H223 7247   6.667   6.796  -0.261  0.0694  0.3524  1.4130
   18CHTO  C117 7248   6.770   6.802  -0.077  0.3357 -0.1872  0.0430
   18CHTO  H221 7249   6.834   6.865  -0.015  0.3769 -0.4586  0.2805
   18CHTO   N20 7250   6.836   6.668  -0.078 -0.4384 -0.1207 -0.0193
   18CHTO  H209 7251   6.852   6.648  -0.183  0.0381 -0.4111  0.1063
   18CHTO  H210 7252   6.928   6.674  -0.021  0.3755 -0.0923 -1.3244
   18CHTO   O80 7253   6.874   6.848  -0.344  0.1324  0.7418 -0.6175
   18CHTO  C103 7254   6.848   6.763  -0.479 -0.2080 -0.4079  0.1360
   18CHTO  H190 7255   6.945   6.749  -0.525 -0.3496 -0.7979 -0.0510
   18CHTO  C101 7256   6.771   6.630  -0.466 -0.7060  0.2669  0.4175
   18CHTO  H188 7257   6.678   6.643  -0.410 -0.8127 -2.3581  0.8950
   18CHTO   O68 7258   6.885   6.532  -0.386  0.3267 -0.4890 -0.1804
   18CHTO  H168 7259   6.887   6.447  -0.425 -0.6788 -1.1089  1.0673
   18CHTO   C99 7260   6.736   6.569  -0.607  0.1283  0.0231  0.7799
   18CHTO  H186 7261   6.828   6.550  -0.665 -0.4068  0.5889 -0.2726
   18CHTO   N17 7262   6.663   6.437  -0.596 -0.6326 -0.3009 -0.0545
   18CHTO  H174 7263   6.633   6.417  -0.494 -2.1204 -0.4435 -0.5036
   18CHTO  H175 7264   6.730   6.364  -0.638  0.2895  0.5676 -0.1109
   18CHTO   C97 7265   6.662   6.674  -0.697 -0.1393 -0.1875  0.0828
   18CHTO  H184 7266   6.560   6.682  -0.656  0.1385  1.0657  0.5428
   18CHTO   O64 7267   6.730   6.798  -0.701  0.2650 -0.3837 -0.7466
   18CHTO  C104 7268   6.760   6.858  -0.570 -0.1813 -0.3340 -0.1225
   18CHTO  H191 7269   6.666   6.884  -0.520  0.8405  2.5567  0.3700
   18CHTO  C108 7270   6.824   6.994  -0.597 -0.3440  0.0399  0.0432
   18CHTO   O71 7271   6.953   6.994  -0.664  0.4939 -0.3412  0.1935
   18CHTO  H171 7272   7.021   6.946  -0.622  0.6861 -1.1898 -1.0659
   18CHTO   O62 7273   6.645   6.637  -0.836 -0.2202 -0.3781 -0.0442
   18CHTO   C91 7274   6.516   6.658  -0.893  0.4084 -0.4109 -0.1139
   18CHTO  H178 7275   6.441   6.651  -0.814 -0.8890  0.6877 -1.2042
   18CHTO   C92 7276   6.476   6.550  -0.999  0.0256  0.5419 -1.3081
   18CHTO  H179 7277   6.543   6.554  -1.086 -1.0157  0.9727 -2.1097
   18CHTO   O66 7278   6.506   6.423  -0.943 -0.2855  0.2282 -0.2097
   18CHTO  H166 7279   6.442   6.415  -0.874  0.3451  0.5270  0.4119
   18CHTO   C93 7280   6.326   6.564  -1.046  0.4200  0.0345  0.3372
   18CHTO  H180 7281   6.265   6.518  -0.967 -0.3593 -0.1390 -0.3626
   18CHTO   N16 7282   6.304   6.476  -1.167 -0.6303  0.0466  0.4586
   18CHTO  H172 7283   6.330   6.375  -1.139  1.7733  0.0713 -1.4895
   18CHTO  H173 7284   6.348   6.502  -1.262  1.0767  0.1610  1.2641
   18CHTO   C94 7285   6.276   6.711  -1.072  0.0110  0.6567  0.0032
   18CHTO  H181 7286   6.289   6.738  -1.176 -0.4052  0.7844 -0.0152
   18CHTO   O61 7287   6.343   6.816  -0.999  0.3148  0.0597  0.4959
   18CHTO   C95 7288   6.486   6.799  -0.987 -0.2291  0.0706 -0.4309
   18CHTO  H182 7289   6.530   6.787  -1.086  0.2642  0.9087 -0.3249
   18CHTO  C106 7290   6.548   6.934  -0.939 -0.4259  0.1658  0.2177
   18CHTO   O69 7291   6.488   6.975  -0.814 -0.2599  0.1854 -0.1451
   18CHTO  H169 7292   6.543   7.015  -0.750  0.2743 -0.5468 -0.1361
   18CHTO   O63 7293   6.133   6.712  -1.013  0.1423 -0.1682 -0.2474
   18CHTO   C96 7294   6.045   6.823  -1.075 -0.4752  0.4146  1.1200
   18CHTO  H183 7295   5.945   6.792  -1.047 -0.9846 -0.0161 -1.0584
   18CHTO   C98 7296   6.053   6.854  -1.224 -0.2534 -0.6132 -0.0038
   18CHTO  H185 7297   6.152   6.900  -1.237 -1.0150  1.3657  1.0893
   18CHTO   O67 7298   6.057   6.729  -1.286  0.4579  0.6062 -0.6354
   18CHTO  H167 7299   6.002   6.732  -1.362  0.0489 -0.7933 -0.4020
   18CHTO  C102 7300   5.944   6.972  -1.262 -0.4419 -0.6228  0.4123
   18CHTO  H189 7301   5.846   6.926  -1.242  0.8117 -3.8987 -0.7254
   18CHTO   N18 7302   5.942   7.007  -1.407 -0.0542  0.1280  0.0052
   18CHTO  H176 7303   5.983   6.931  -1.471 -0.9119  0.4616 -0.9461
   18CHTO  H177 7304   5.849   7.044  -1.445  0.8349  0.8123 -1.5270
   18CHTO  C105 7305   5.966   7.095  -1.165  0.2052  0.3284 -0.1468
   18CHTO  H192 7306   6.061   7.140  -1.193  0.1864  0.7319  0.4325
   18CHTO   O65 7307   5.969   7.056  -1.024  0.2825 -0.0832  0.1958
   18CHTO  C100 7308   6.064   6.953  -0.995 -0.2285  1.0414  0.6309
   18CHTO  H187 7309   6.167   6.987  -1.014 -0.6647  1.7865 -0.4463
   18CHTO  C107 7310   6.056   6.937  -0.843  0.1523 -0.0712  0.8460
   18CHTO   O70 7311   6.175   6.895  -0.772 -0.2772  0.7913  0.9299
   18CHTO  H170 7312   6.222   6.968  -0.738 -0.2667  0.4823  1.5924
   18CHTO   O57 7313   5.851   7.203  -1.188 -0.2057  0.0406  0.1610
   18CHTO   C85 7314   5.880   7.343  -1.173 -0.0876  0.1842  0.1404
   18CHTO  H157 7315   5.974   7.359  -1.231 -0.0924 -3.2248 -0.9554
   18CHTO   C83 7316   5.917   7.387  -1.035  0.4423  0.0768 -0.9668
   18CHTO  H155 7317   6.005   7.329  -1.008  1.9035  2.5322 -0.2456
   18CHTO   O56 7318   5.806   7.344  -0.949  0.7070 -0.1318  0.2450
   18CHTO  H135 7319   5.773   7.256  -0.955 -0.7425  0.4736 -0.8647
   18CHTO   C81 7320   5.954   7.541  -1.029 -0.0511  0.0142 -0.3453
   18CHTO  H153 7321   6.037   7.559  -1.098 -0.1088  1.4618 -0.0546
   18CHTO   N14 7322   6.000   7.582  -0.895  0.2464 -0.1617 -0.6378
   18CHTO  H141 7323   6.074   7.511  -0.864  0.8648 -0.4843 -2.7479
   18CHTO  H142 7324   5.911   7.575  -0.836 -0.4413  2.5887 -1.3143
   18CHTO   C79 7325   5.833   7.626  -1.082  0.6486 -0.3586 -0.0929
   18CHTO  H151 7326   5.863   7.731  -1.081 -2.8926  0.7417 -1.2844
   18CHTO   O52 7327   5.796   7.582  -1.212 -0.3633 -0.0959 -0.2098
   18CHTO   C86 7328   5.765   7.439  -1.224  0.2464 -0.3581 -0.2151
   18CHTO  H158 7329   5.675   7.422  -1.161  0.2932 -0.4698 -0.1801
   18CHTO   C90 7330   5.727   7.405  -1.372  0.4779  0.1796 -0.3314
   18CHTO   O60 7331   5.834   7.457  -1.445  0.0996 -0.3444 -0.3773
   18CHTO  H138 7332   5.811   7.472  -1.535  1.0745  0.4697 -0.5011
   18CHTO   O50 7333   5.711   7.623  -1.005  0.1284 -0.5419  0.1414
   18CHTO   C73 7334   5.588   7.689  -0.979  0.5737  0.3836  0.2297
   18CHTO  H145 7335   5.529   7.691  -1.071 -1.4430  1.8094  1.5072
   18CHTO   C74 7336   5.615   7.836  -0.940 -0.4426 -0.1120 -0.4133
   18CHTO  H146 7337   5.673   7.885  -1.020  0.8447  1.2747  1.3340
   18CHTO   O54 7338   5.498   7.914  -0.941 -0.2614 -0.3661  0.0258
   18CHTO  H133 7339   5.424   7.878  -0.895 -0.6977  0.9451  0.3884
   18CHTO   C75 7340   5.688   7.840  -0.798  0.5682  0.0387  0.1718
   18CHTO  H147 7341   5.780   7.780  -0.802 -0.0888 -0.8696 -2.5127
   18CHTO   N13 7342   5.730   7.975  -0.761  0.0383  0.3116 -0.2274
   18CHTO  H139 7343   5.825   7.978  -0.710 -0.8797  2.1413  1.4943
   18CHTO  H140 7344   5.736   8.035  -0.850  1.1263  0.7785  0.1499
   18CHTO   C76 7345   5.602   7.772  -0.691  0.0391 -0.2355  0.1927
   18CHTO  H148 7346   5.507   7.827  -0.694  0.2562  0.2135  1.5004
   18CHTO   O49 7347   5.575   7.634  -0.737  0.0946 -0.2578  0.1248
   18CHTO   C77 7348   5.506   7.623  -0.863  0.3246  0.5610  0.1435
   18CHTO  H149 7349   5.402   7.655  -0.871  0.5682  0.7559 -3.1295
   18CHTO   C88 7350   5.482   7.473  -0.884 -0.1357  0.2494 -0.1922
   18CHTO   O58 7351   5.413   7.454  -1.010  0.5791  0.1043  0.5316
   18CHTO  H136 7352   5.472   7.477  -1.080  1.3198 -0.5080  0.9491
   18CHTO   O51 7353   5.662   7.777  -0.545 -0.7706  0.2808 -0.2626
   18CHTO   C78 7354   5.550   7.701  -0.424  0.2159 -0.1083 -0.2197
   18CHTO  H150 7355   5.496   7.614  -0.468 -0.2032 -1.0317  2.0755
   18CHTO   C80 7356   5.444   7.797  -0.375  0.6196  0.0960  0.3045
   18CHTO  H152 7357   5.500   7.882  -0.330  0.2033  1.1052 -1.0262
   18CHTO   O55 7358   5.364   7.827  -0.495  0.2687  0.1092 -0.2568
   18CHTO  H134 7359   5.417   7.882  -0.548  0.7498 -1.5931 -1.5822
   18CHTO   C84 7360   5.349   7.740  -0.264  0.1087  0.0801  0.2371
   18CHTO  H156 7361   5.291   7.664  -0.316 -2.9024  1.5307  1.2952
   18CHTO   N15 7362   5.256   7.848  -0.207  0.1393  0.5242  0.2621
   18CHTO  H143 7363   5.278   7.873  -0.105 -0.9803  0.2724  0.5772
   18CHTO  H144 7364   5.252   7.937  -0.266  2.8961  1.1838  1.0310
   18CHTO   C87 7365   5.442   7.679  -0.156  0.0583 -0.1830  0.3498
   18CHTO  H159 7366   5.501   7.761  -0.114  0.7916 -0.5301  0.0024
   18CHTO   O53 7367   5.520   7.591  -0.213 -0.7622 -0.0489  0.2390
   18CHTO   C82 7368   5.624   7.639  -0.302 -0.8621 -0.2068  0.2342
   18CHTO  H154 7369   5.687   7.703  -0.241 -3.5638  0.4042  2.4867
   18CHTO   C89 7370   5.707   7.525  -0.353 -0.0527  0.1828 -0.0004
   18CHTO   O59 7371   5.770   7.463  -0.238  0.3369 -0.4429 -0.1522
   18CHTO  H137 7372   5.845   7.414  -0.263  0.8968  1.1424 -1.6638
   18CHTO   O45 7373   5.355   7.613  -0.040 -0.0965  0.2896  0.2612
   18CHTO   C67 7374   5.389   7.646   0.094  0.1201 -0.3336  0.8970
   18CHTO  H124 7375   5.493   7.678   0.100 -0.3524  1.8749 -1.8589
   18CHTO   C65 7376   5.301   7.762   0.144  0.0868 -0.4191 -0.0130
   18CHTO  H122 7377   5.207   7.745   0.090 -0.3102  1.4495  0.0406
   18CHTO   O44 7378   5.357   7.884   0.094  0.1168 -0.0941  0.2085
   18CHTO  H102 7379   5.292   7.951   0.102  0.8081  0.9815 -2.4992
   18CHTO   C63 7380   5.262   7.754   0.299 -0.6342  0.0324  0.5483
   18CHTO  H120 7381   5.185   7.677   0.308  0.5295 -1.1471  0.5336
   18CHTO   N11 7382   5.198   7.874   0.358  0.6802 -0.1171  0.1978
   18CHTO  H108 7383   5.202   7.953   0.286 -1.5226 -0.5779 -0.4843
   18CHTO  H109 7384   5.097   7.849   0.384  0.6347 -0.8906 -0.7085
   18CHTO   C61 7385   5.391   7.700   0.370 -0.3654  0.3449 -1.2086
   18CHTO  H118 7386   5.352   7.681   0.471  3.7470  0.1794  0.4427
   18CHTO   O40 7387   5.430   7.567   0.323  0.1333 -0.1914 -0.5195
   18CHTO   C68 7388   5.377   7.527   0.195  0.2152  0.6678 -0.5526
   18CHTO  H125 7389   5.272   7.501   0.220  0.7032  0.6594  1.6556
   18CHTO   C72 7390   5.443   7.397   0.139 -0.1759 -0.4400 -0.0450
   18CHTO   O48 7391   5.569   7.433   0.089  0.3152 -0.5307 -0.4655
   18CHTO  H105 7392   5.631   7.428   0.159  1.7310  0.5020 -1.6156
   18CHTO   O38 7393   5.507   7.788   0.362  0.6609  0.2212  0.3272
   18CHTO   C55 7394   5.638   7.735   0.395 -0.0513 -0.4713 -0.0144
   18CHTO  H112 7395   5.657   7.632   0.361 -1.7106 -1.1897  1.1437
   18CHTO   C56 7396   5.669   7.750   0.549  0.0366 -0.1368  0.8363
   18CHTO  H113 7397   5.639   7.849   0.586 -0.9943 -0.5325  1.0936
   18CHTO   O42 7398   5.585   7.660   0.624  0.8805  0.1871  0.0918
   18CHTO  H100 7399   5.506   7.705   0.648  1.0378  0.5812 -0.1206
   18CHTO   C57 7400   5.820   7.720   0.586  0.1532  0.3953  0.3973
   18CHTO  H114 7401   5.832   7.612   0.578  1.2145  0.5922 -0.8490
   18CHTO   N10 7402   5.862   7.753   0.724 -0.4905 -0.0600  0.4677
   18CHTO  H106 7403   5.806   7.835   0.767  0.9306  0.4998  1.2802
   18CHTO  H107 7404   5.851   7.668   0.790  1.3034  0.7358  1.8362
   18CHTO   C58 7405   5.917   7.784   0.482 -0.5685  0.0249  0.3392
   18CHTO  H115 7406   5.919   7.894   0.491 -3.0968  0.1875 -0.6582
   18CHTO   O37 7407   5.871   7.760   0.348 -0.0270  0.0994 -0.0126
   18CHTO   C59 7408   5.744   7.808   0.314  0.4729 -0.8840 -0.0087
   18CHTO  H116 7409   5.741   7.917   0.318  1.1027 -0.8175 -1.0466
   18CHTO   C70 7410   5.732   7.772   0.165 -0.6145 -0.1536  0.2244
   18CHTO   O46 7411   5.651   7.872   0.098 -0.2591  0.4646  0.1460
   18CHTO  H103 7412   5.694   7.953   0.080 -1.2809  1.0217  0.1244
   18CHTO   O39 7413   6.079   7.722   0.498 -0.6755 -0.0141  0.4800
   18CHTO   C60 7414   6.106   7.599   0.425  0.0795  0.1253 -0.1022
   18CHTO  H117 7415   6.020   7.532   0.429 -1.2001  1.8494  1.9075
   18CHTO   C62 7416   6.140   7.618   0.272 -1.6098 -0.1756 -0.2220
   18CHTO  H119 7417   6.065   7.695   0.245 -1.2534  0.2093 -0.0978
   18CHTO   O43 7418   6.267   7.679   0.271  0.1515 -0.8711 -0.1310
   18CHTO  H101 7419   6.263   7.769   0.299  0.5758 -1.2991  1.3187
   18CHTO   C66 7420   6.133   7.478   0.200 -0.2413 -0.8941 -1.1859
   18CHTO  H123 7421   6.034   7.435   0.212 -0.6004  0.2466  0.0975
   18CHTO   N12 7422   6.149   7.491   0.056  0.5147 -0.6826 -0.2177
   18CHTO  H110 7423   6.101   7.407   0.010 -0.7319  0.4331 -0.9974
   18CHTO  H111 7424   6.255   7.504   0.037  0.6763 -0.2915  0.8539
   18CHTO   C69 7425   6.240   7.379   0.263  0.1772 -0.1616  0.2127
   18CHTO  H126 7426   6.344   7.406   0.237  0.3697  0.3027  1.3945
   18CHTO   O41 7427   6.222   7.374   0.434  0.2801 -0.6924 -0.1315
   18CHTO   C64 7428   6.216   7.523   0.498 -0.8468 -0.0053  0.2103
   18CHTO  H121 7429   6.311   7.576   0.480 -0.9071  0.3323  0.8705
   18CHTO   C71 7430   6.187   7.490   0.653  0.4626  0.5937 -0.4361
   18CHTO   O47 7431   6.281   7.399   0.717 -0.5081 -0.6968 -0.0217
   18CHTO  H104 7432   6.248   7.312   0.728  2.9465 -1.9629  0.9846
   18CHTO   O34 7433   6.224   7.260   0.224 -0.5118  0.1498  0.3407
   18CHTO   C49 7434   6.154   7.107   0.210  0.0719  0.0531  0.2385
   18CHTO   H91 7435   6.226   7.052   0.148 -0.5420 -2.2276  1.5010
   18CHTO   C47 7436   6.019   7.103   0.133 -0.0713  0.1758  0.3124
   18CHTO   H89 7437   5.999   6.995   0.118 -2.2603  0.4340  1.1636
   18CHTO   O33 7438   6.039   7.173   0.008  0.2292 -0.0436  0.5093
   18CHTO   H70 7439   5.953   7.204  -0.014 -0.1265 -1.2248  0.1765
   18CHTO   C45 7440   5.898   7.173   0.218  0.1164  0.0531 -0.6631
   18CHTO   H87 7441   5.884   7.281   0.201  0.6019 -0.0762 -1.9438
   18CHTO    N8 7442   5.771   7.107   0.180 -0.4375 -0.6574 -0.0819
   18CHTO   H75 7443   5.685   7.140   0.237  0.3969  0.3689  0.5977
   18CHTO   H76 7444   5.743   7.136   0.080  1.3785 -0.7605 -0.6367
   18CHTO   C43 7445   5.933   7.172   0.375  0.3230 -0.4056  0.7045
   18CHTO   H85 7446   5.993   7.263   0.385 -2.7299  1.9617 -1.6226
   18CHTO   O29 7447   5.998   7.055   0.412  0.1355 -0.0018  0.4098
   18CHTO   C50 7448   6.127   7.040   0.355  0.3753  0.4914 -0.2724
   18CHTO   H92 7449   6.203   7.089   0.418  1.1314  0.1718 -0.9404
   18CHTO   C54 7450   6.170   6.893   0.333  0.4344  0.8360  0.0976
   18CHTO   O36 7451   6.194   6.822   0.459 -0.9503  0.1692 -0.3749
   18CHTO   H72 7452   6.117   6.813   0.512 -0.2123 -1.7498  0.4127
   18CHTO   O27 7453   5.824   7.203   0.465  0.1850  0.3685 -0.2750
   18CHTO   C37 7454   5.769   7.211   0.602 -0.6925 -0.7721 -0.0522
   18CHTO   H79 7455   5.722   7.114   0.626 -0.6423 -0.7484  0.1448
   18CHTO   C38 7456   5.886   7.234   0.708  0.0872  0.2329  0.4199
   18CHTO   H80 7457   5.948   7.317   0.672  1.7630  0.1265  2.9054
   18CHTO   O31 7458   5.968   7.118   0.714  0.0801  0.8016  0.1218
   18CHTO   H68 7459   5.917   7.040   0.711  1.1181 -0.0095  2.3387
   18CHTO   C39 7460   5.822   7.273   0.848 -0.1884  0.2706  0.4006
   18CHTO   H81 7461   5.773   7.182   0.882  0.1821  0.6367  1.9349
   18CHTO    N7 7462   5.931   7.289   0.950 -0.0557 -0.1999  0.0964
   18CHTO   H73 7463   5.965   7.196   0.994  0.2150  0.5207  1.4445
   18CHTO   H74 7464   6.008   7.351   0.909  2.3505 -2.6054  0.8210
   18CHTO   C40 7465   5.724   7.394   0.836  0.8617 -0.2598  0.1303
   18CHTO   H82 7466   5.784   7.474   0.794  0.5346 -0.1709 -0.1745
   18CHTO   O26 7467   5.621   7.356   0.744 -0.6509  0.1772 -0.3425
   18CHTO   C41 7468   5.655   7.325   0.605 -0.4202  0.4789  0.7780
   18CHTO   H83 7469   5.685   7.420   0.559 -0.4640 -0.6989 -1.7173
   18CHTO   C52 7470   5.532   7.282   0.521  0.4830 -0.4402 -0.2844
   18CHTO   O35 7471   5.429   7.373   0.540  0.7035 -0.0206  0.4876
   18CHTO   H71 7472   5.394   7.348   0.623  0.7991  0.6544  0.7410
   18CHTO   O28 7473   5.677   7.432   0.971  0.1306  0.2885 -0.1282
   18CHTO   C42 7474   5.534   7.409   1.022 -0.4166  0.1744 -0.2555
   18CHTO   H84 7475   5.546   7.440   1.125 -0.4909 -2.4838  0.5794
   18CHTO   C44 7476   5.486   7.258   1.027  0.2531 -0.2275 -0.0910
   18CHTO   H86 7477   5.497   7.213   0.929  1.2789 -2.2528  0.9221
   18CHTO   O32 7478   5.576   7.185   1.117 -0.0015  0.0240 -0.0501
   18CHTO   H69 7479   5.560   7.093   1.116 -0.8185  0.1377  0.8713
   18CHTO   C48 7480   5.333   7.246   1.066  0.7024  0.1004  0.0887
   18CHTO   H90 7481   5.312   7.291   1.163  1.1235 -2.0611  1.2109
   18CHTO    N9 7482   5.287   7.108   1.086 -0.4497  0.0959  0.3134
   18CHTO   H77 7483   5.184   7.103   1.118 -1.2614 -2.6647 -2.4306
   18CHTO   H78 7484   5.357   7.051   1.146  0.2044  1.1189  0.5355
   18CHTO   C51 7485   5.260   7.326   0.954  0.4195 -0.7851 -0.5139
   18CHTO   H93 7486   5.305   7.300   0.858 -2.0059 -0.8368 -1.6706
   18CHTO   O30 7487   5.284   7.465   0.983 -0.6951 -0.1527 -0.3493
   18CHTO   C46 7488   5.431   7.508   0.949 -0.4064 -0.0426 -0.4733
   18CHTO   H88 7489   5.446   7.507   0.841  2.0881 -0.1136 -0.1480
   18CHTO   C53 7490   5.438   7.654   0.992 -0.0195 -0.2332 -0.7099
   18CHTO   O72 7491   5.544   7.732   0.935 -0.4196 -0.6015  0.3038
   18CHTO  H199 7492   5.545   7.809   0.987 -0.0834 -0.3359 -0.0934
   18CHTO   O22 7493   5.117   7.315   0.948 -0.1144  0.3169 -0.8966
   18CHTO   C31 7494   5.048   7.321   0.818 -0.0832  0.0934 -0.2323
   18CHTO   H59 7495   4.939   7.320   0.839 -0.1707 -2.7055 -0.6696
   18CHTO   C29 7496   5.073   7.449   0.730 -0.0559  0.0979  0.0844
   18CHTO   H57 7497   5.180   7.453   0.707 -0.2612 -1.2152 -1.1838
   18CHTO   O21 7498   5.054   7.570   0.806 -0.1636  0.2799 -0.0889
   18CHTO   H37 7499   5.135   7.607   0.835  0.1042  1.1250 -1.7962
   18CHTO   C27 7500   4.982   7.437   0.594 -0.2875 -0.7986 -0.4247
   18CHTO   H55 7501   4.875   7.443   0.620  0.0429  0.7666  0.6526
   18CHTO    N5 7502   5.000   7.553   0.503 -0.1833 -0.2921 -0.6099
   18CHTO   H43 7503   4.966   7.520   0.406  0.4106 -0.6404 -0.7066
   18CHTO   H44 7504   4.951   7.640   0.544  1.2394  0.0274  0.4384
   18CHTO   C25 7505   5.024   7.303   0.524 -0.0208  0.4572 -0.1494
   18CHTO   H53 7506   5.130   7.313   0.497 -0.3243  0.3481 -1.4029
   18CHTO   O17 7507   4.995   7.196   0.613 -0.3900 -0.2848 -0.2092
   18CHTO   C32 7508   5.080   7.193   0.727  0.2700  0.0629  0.5027
   18CHTO   H60 7509   5.179   7.203   0.683  0.1520  2.3843  0.7052
   18CHTO   C36 7510   5.072   7.057   0.802  0.0523  0.2600  0.1328
   18CHTO   O25 7511   5.127   6.946   0.734  0.2428 -0.0663 -0.4684
   18CHTO   H40 7512   5.212   6.934   0.772  0.5976  1.6309 -0.6779
   18CHTO   O15 7513   4.915   7.268   0.399 -0.8305  0.1193  0.1828
   18CHTO   C19 7514   4.947   7.242   0.255 -1.1438 -0.3298  0.1092
   18CHTO   H47 7515   4.888   7.151   0.240 -1.6897 -0.1968  1.4192
   18CHTO   C20 7516   4.891   7.345   0.151  0.5083 -0.5725  0.9742
   18CHTO   H48 7517   4.938   7.444   0.160 -4.1134  2.0911 -2.1701
   18CHTO   O19 7518   4.749   7.358   0.170 -0.2001 -0.2390  0.5269
   18CHTO   H35 7519   4.737   7.393   0.256  0.7013  1.7556 -0.1168
   18CHTO   C21 7520   4.918   7.300   0.004  0.1995  0.4816 -0.1668
   18CHTO   H49 7521   4.861   7.209  -0.016  0.1138  0.3067  0.8487
   18CHTO    N4 7522   4.871   7.408  -0.089 -0.0516 -0.6364 -0.0028
   18CHTO   H41 7523   4.764   7.400  -0.100 -0.0073 -0.6015 -0.4976
   18CHTO   H42 7524   4.897   7.510  -0.064 -0.2760 -0.7163  0.5541
   18CHTO   C22 7525   5.071   7.274  -0.004 -0.1207  0.1186 -0.2263
   18CHTO   H50 7526   5.131   7.364   0.011  0.4234 -0.0245 -1.4634
   18CHTO   O14 7527   5.101   7.167   0.089 -0.6242 -0.2971  0.2045
   18CHTO   C23 7528   5.095   7.212   0.224  1.1033 -0.3948 -0.1028
   18CHTO   H51 7529   5.160   7.297   0.245  1.3526 -0.5246 -0.3587
   18CHTO   C34 7530   5.140   7.083   0.298  0.2361  0.5845  0.1467
   18CHTO   O23 7531   5.281   7.074   0.285  0.5852  0.3437  0.7358
   18CHTO   H38 7532   5.296   7.011   0.217 -1.0530 -0.4893  1.1326
   18CHTO   O16 7533   5.104   7.212  -0.127  0.2237 -0.4650 -0.1736
   18CHTO   C24 7534   5.237   7.243  -0.186 -0.8871 -0.0048 -0.0827
   18CHTO   H52 7535   5.297   7.307  -0.121  1.0169 -1.0422 -0.7828
   18CHTO   C26 7536   5.206   7.303  -0.316 -0.4685 -0.1451 -0.5834
   18CHTO   H54 7537   5.129   7.237  -0.361 -0.1472 -0.9447  0.0215
   18CHTO   O20 7538   5.154   7.433  -0.288  0.2925  0.3243 -0.2623
   18CHTO   H36 7539   5.188   7.474  -0.211 -0.5198  1.3557 -0.4314
   18CHTO   C30 7540   5.331   7.308  -0.408 -0.0490  0.1729 -0.2033
   18CHTO   H58 7541   5.404   7.372  -0.355 -0.2406 -0.2620  0.5952
   18CHTO    N6 7542   5.296   7.366  -0.538 -0.1587 -0.7502  0.1242
   18CHTO   H45 7543   5.379   7.418  -0.583 -0.6435  0.4694  0.6144
   18CHTO   H46 7544   5.256   7.287  -0.600  1.1373 -0.1469 -1.5192
   18CHTO   C33 7545   5.399   7.168  -0.423  0.4547 -0.0238  0.0840
   18CHTO   H61 7546   5.342   7.086  -0.469  0.8381 -0.4398  0.3391
   18CHTO   O18 7547   5.430   7.132  -0.288  0.0103  0.3048 -0.0992
   18CHTO   C28 7548   5.315   7.110  -0.204 -0.1918 -0.4373  0.4318
   18CHTO   H56 7549   5.249   7.038  -0.253 -0.1197  0.4347 -0.9838
   18CHTO   C35 7550   5.372   7.057  -0.067 -0.0453  0.4161  0.8296
   18CHTO   O24 7551   5.435   6.937  -0.094  0.4564 -0.2467 -0.3313
   18CHTO   H39 7552   5.482   6.920  -0.015 -1.4639 -0.7494  0.7591
   18CHTO    O9 7553   5.515   7.174  -0.502  0.1577  0.7814  0.1550
   18CHTO   C13 7554   5.547   7.058  -0.624 -0.0224 -0.2023 -0.6150
   18CHTO   H26 7555   5.502   7.105  -0.714 -2.3419  0.9148  1.0766
   18CHTO   C11 7556   5.480   6.918  -0.598  0.3032  0.4504 -0.0415
   18CHTO   H24 7557   5.371   6.922  -0.612  0.3501  0.8480 -0.2695
   18CHTO    O8 7558   5.494   6.867  -0.465  0.4046 -0.0574  0.8896
   18CHTO    H3 7559   5.431   6.913  -0.412  1.2690  0.5905  1.3600
   18CHTO    C9 7560   5.545   6.810  -0.688  0.3294  0.5000 -0.2693
   18CHTO   H22 7561   5.534   6.849  -0.791  2.5989  0.0091 -0.7231
   18CHTO    N2 7562   5.472   6.680  -0.692  0.2699  0.0077  0.5979
   18CHTO   H10 7563   5.435   6.670  -0.591 -0.2781  0.8255  0.4823
   18CHTO   H11 7564   5.537   6.600  -0.724  2.5978  1.4334  1.6191
   18CHTO    C7 7565   5.705   6.804  -0.661 -1.0317 -0.2662  0.1050
   18CHTO   H20 7566   5.738   6.779  -0.763 -2.2564 -2.3246  0.1917
   18CHTO    O4 7567   5.747   6.931  -0.599 -0.1395 -0.0741 -0.2954
   18CHTO   C14 7568   5.698   7.059  -0.646  0.0984  0.1232  0.3699
   18CHTO   H27 7569   5.718   7.067  -0.755 -0.5029 -0.5328  0.2075
   18CHTO   C18 7570   5.767   7.179  -0.578 -0.4164 -0.1599  0.0849
   18CHTO   O13 7571   5.882   7.227  -0.655  0.3243  0.0533 -0.0512
   18CHTO    H7 7572   5.963   7.189  -0.628  0.4627  1.3797  1.4103
   18CHTO    O2 7573   5.745   6.682  -0.558 -0.3393  0.2988  0.0628
   18CHTO    C1 7574   5.878   6.687  -0.513 -0.0570 -0.6732 -0.0545
   18CHTO   H14 7575   5.912   6.792  -0.523  1.3089 -1.1482 -0.4772
   18CHTO    C2 7576   5.982   6.594  -0.586  0.1796  0.3530  0.1826
   18CHTO   H15 7577   5.951   6.489  -0.573  0.3963  0.4283  1.3704
   18CHTO    O6 7578   5.988   6.642  -0.722 -0.1999  0.3519  0.2626
   18CHTO    H1 7579   6.023   6.576  -0.778 -0.7428 -0.7502  1.2015
   18CHTO    C3 7580   6.132   6.608  -0.525  0.3648  0.5097 -0.5539
   18CHTO   H16 7581   6.175   6.709  -0.536  1.8414  0.0876  1.0188
   18CHTO    N1 7582   6.220   6.506  -0.578  0.1692  0.4468 -0.0563
   18CHTO    H8 7583   6.169   6.418  -0.616 -1.0200  1.3692 -0.6263
   18CHTO    H9 7584   6.275   6.553  -0.658  1.0965  1.6269  1.2391
   18CHTO    C4 7585   6.113   6.588  -0.371 -0.4608  0.8903 -0.0466
   18CHTO   H17 7586   6.096   6.483  -0.347  2.0616 -0.3239 -3.2572
   18CHTO    O1 7587   6.011   6.677  -0.315  0.2379  0.1425 -0.5489
   18CHTO    C5 7588   5.879   6.667  -0.361  0.0854 -0.2063 -0.4228
   18CHTO   H18 7589   5.831   6.569  -0.354  0.7157 -0.5735 -1.1335
   18CHTO   C16 7590   5.793   6.776  -0.282 -0.1471 -0.6376  0.0612
   18CHTO   O11 7591   5.855   6.902  -0.262  0.1507  0.3048 -0.4360
   18CHTO    H5 7592   5.891   6.935  -0.343 -1.5879  0.0889 -1.3262
   18CHTO    O3 7593   6.238   6.622  -0.306  0.2735 -0.4938 -0.2948
   18CHTO    C6 7594   6.275   6.547  -0.182 -0.3694  0.0548 -0.1816
   18CHTO   H19 7595   6.202   6.470  -0.156 -2.1879  1.7194 -0.2088
   18CHTO    C8 7596   6.403   6.465  -0.198 -0.0345 -0.3537 -0.2304
   18CHTO   H21 7597   6.486   6.534  -0.215  1.9406 -2.7698 -0.7160
   18CHTO    O7 7598   6.391   6.389  -0.320  0.2904 -0.1330 -0.2156
   18CHTO    H2 7599   6.388   6.446  -0.394  0.0409 -0.4702 -0.4650
   18CHTO   C12 7600   6.420   6.373  -0.074  0.1710 -0.1856 -0.6363
   18CHTO   H25 7601   6.340   6.295  -0.073  1.1679 -1.2414 -1.2071
   18CHTO    N3 7602   6.544   6.293  -0.083  0.4948 -0.0577 -0.1758
   18CHTO   H12 7603   6.633   6.353  -0.077 -0.7289  1.9049 -1.1525
   18CHTO   H13 7604   6.552   6.213  -0.012  1.0807  2.2183  2.3962
   18CHTO   C15 7605   6.413   6.458   0.060  0.0478  0.1325 -0.3255
   18CHTO   H28 7606   6.511   6.506   0.067 -0.2552  0.5184  1.4988
   18CHTO   O10 7607   6.386   6.367   0.177  0.4113 -0.1363  0.2477
   18CHTO    H4 7608   6.335   6.413   0.242 -0.3214 -0.0980 -0.3439
   18CHTO    O5 7609   6.315   6.554   0.061 -0.0903  0.0684  0.6733
   18CHTO   C10 7610   6.304   6.638  -0.058  0.1072 -0.1211  0.1676
   18CHTO   H23 7611   6.387   6.705  -0.078 -0.5762  0.7938  0.3605
   18CHTO   C17 7612   6.189   6.738  -0.026 -0.4453 -0.1232 -0.0224
   18CHTO   O12 7613   6.173   6.850  -0.118  0.2034 -0.3254  0.2565
   18CHTO    H6 7614   6.139   6.831  -0.204  0.4384  1.7194 -0.3254
   19CHTO  H203 7615   6.648   8.042   1.205  0.6197  2.0898  2.7529
   19CHTO   O82 7616   6.603   8.115   1.168 -0.0598  0.1635 -0.4524
   19CHTO  C123 7617   6.464   8.083   1.174 -0.1203  0.7184 -0.0748
   19CHTO  H227 7618   6.410   8.161   1.118 -0.6801  0.0391 -0.4914
   19CHTO   O77 7619   6.460   7.966   1.088  0.5339  0.1480 -0.2264
   19CHTO  C118 7620   6.330   7.927   1.045 -0.3167 -0.1751 -0.1241
   19CHTO  H222 7621   6.274   8.017   1.013  0.8002  0.4594 -0.3042
   19CHTO  C125 7622   6.333   7.818   0.931  0.5625 -0.6024  0.2786
   19CHTO   O84 7623   6.219   7.823   0.846 -0.5603  0.4367 -0.6902
   19CHTO  H205 7624   6.229   7.839   0.754  0.0642  1.4276 -0.4679
   19CHTO  C114 7625   6.265   7.868   1.170  0.0441  0.3411  0.9563
   19CHTO  H218 7626   6.330   7.791   1.211 -0.8703 -1.2763 -0.5463
   19CHTO  C116 7627   6.267   7.970   1.287  0.1721 -0.5334  0.8366
   19CHTO  H220 7628   6.189   8.042   1.254 -0.7591 -1.4771  0.9577
   19CHTO   O79 7629   6.220   7.902   1.403 -0.0110  0.1659  0.0242
   19CHTO  H201 7630   6.287   7.884   1.466 -0.8795 -2.7053  0.1983
   19CHTO  C120 7631   6.405   8.045   1.316  0.3607  0.2084  0.0467
   19CHTO  H224 7632   6.467   7.975   1.376  1.8863 -0.0470 -1.7964
   19CHTO   N21 7633   6.382   8.168   1.399  0.0812 -0.2805  0.4201
   19CHTO  H211 7634   6.442   8.254   1.373 -1.4922  1.4184  2.2866
   19CHTO  H212 7635   6.403   8.139   1.501  0.4946  0.3430  0.5178
   19CHTO   O75 7636   6.136   7.822   1.125 -0.4814  0.3247 -0.1776
   19CHTO  C112 7637   6.047   7.711   1.226  0.0600 -0.2189  0.2458
   19CHTO  H216 7638   6.036   7.758   1.325 -1.7032 -1.0328  0.4599
   19CHTO   O73 7639   6.117   7.582   1.233  0.5650 -0.4783  0.4376
   19CHTO  C113 7640   6.077   7.503   1.343 -0.7838  0.0633 -0.1415
   19CHTO  H217 7641   6.086   7.564   1.435 -0.9926  0.5282 -0.4292
   19CHTO  C124 7642   6.174   7.394   1.363  0.1227 -0.1448  0.4061
   19CHTO   O83 7643   6.216   7.307   1.260  0.3386 -0.0049 -0.3816
   19CHTO  H204 7644   6.262   7.230   1.286  0.3274  0.5868  1.4438
   19CHTO  C109 7645   5.932   7.454   1.323 -0.1797  0.1672  0.2041
   19CHTO  H213 7646   5.938   7.386   1.237  0.1699 -1.6858  1.6653
   19CHTO  C110 7647   5.845   7.580   1.294 -0.9344  0.8179 -0.0406
   19CHTO  H214 7648   5.838   7.633   1.389 -0.0962 -0.8919  1.0005
   19CHTO   O78 7649   5.716   7.537   1.259 -0.3325  0.8937  0.0048
   19CHTO  H200 7650   5.678   7.587   1.190 -1.3948  0.0539 -0.0310
   19CHTO  C111 7651   5.903   7.669   1.182  0.0819 -0.0985 -0.8864
   19CHTO  H215 7652   5.908   7.611   1.089  0.2688 -1.4059 -0.0841
   19CHTO   N19 7653   5.825   7.792   1.155  0.2643  0.0575  0.2472
   19CHTO  H207 7654   5.804   7.859   1.238  0.0164 -0.4406  0.5870
   19CHTO  H208 7655   5.746   7.766   1.087 -1.3312  0.3354  1.9449
   19CHTO   O74 7656   5.882   7.376   1.437  0.2853  0.1025 -0.0912
   19CHTO  C115 7657   5.788   7.271   1.390 -0.2036  0.3157  0.1651
   19CHTO  H219 7658   5.746   7.296   1.293 -0.1132  0.7385  0.2334
   19CHTO   O76 7659   5.870   7.126   1.355  0.3659  0.2606 -0.8757
   19CHTO  C122 7660   5.930   7.085   1.477 -0.5974 -0.2967 -0.1892
   19CHTO  H226 7661   5.995   7.162   1.518  0.3049 -1.6881  1.0968
   19CHTO  C126 7662   6.028   6.967   1.443  0.0076  0.0464  0.2477
   19CHTO   O85 7663   6.145   7.024   1.379 -0.0932 -0.3539  0.2888
   19CHTO  H206 7664   6.122   7.060   1.296 -0.6183  1.7567  1.3169
   19CHTO  C121 7665   5.815   7.034   1.575  0.4082  0.4605  0.2375
   19CHTO  H225 7666   5.816   6.923   1.579  0.2100  0.4103 -1.0974
   19CHTO   O81 7667   5.853   7.062   1.710 -0.8022 -0.6687 -0.2258
   19CHTO  H202 7668   5.841   7.150   1.738  1.5204 -0.5774  0.5941
   19CHTO  C119 7669   5.675   7.084   1.536  0.0860  0.6639 -0.4949
   19CHTO  H223 7670   5.650   7.041   1.439 -2.6000  2.3337 -0.5937
   19CHTO  C117 7671   5.672   7.241   1.498 -0.3336  0.6754 -0.8419
   19CHTO  H221 7672   5.692   7.314   1.576  1.4876 -1.8834  1.1795
   19CHTO   N20 7673   5.542   7.275   1.437  0.3592 -0.7290  0.1612
   19CHTO  H209 7674   5.494   7.356   1.490  1.6505 -0.1850  0.5180
   19CHTO  H210 7675   5.472   7.193   1.422 -0.3454  0.0116 -0.6540
   19CHTO   O80 7676   5.555   7.031   1.626  0.1876  0.2977  0.4528
   19CHTO  C103 7677   5.533   6.876   1.633  0.4317  0.3920  0.5619
   19CHTO  H190 7678   5.594   6.825   1.558  1.2617  1.6874  0.3426
   19CHTO  C101 7679   5.548   6.804   1.773 -0.8863  0.1084 -0.2218
   19CHTO  H188 7680   5.505   6.873   1.845 -1.4608 -2.1050  1.6056
   19CHTO   O68 7681   5.702   6.790   1.816 -0.0854  0.2016  0.4621
   19CHTO  H168 7682   5.735   6.703   1.802  1.4117  0.9302 -0.7336
   19CHTO   C99 7683   5.475   6.661   1.778 -0.2944  0.0829  0.5853
   19CHTO  H186 7684   5.527   6.582   1.720 -3.4522 -1.6457 -0.0233
   19CHTO   N17 7685   5.469   6.597   1.918 -0.0116 -0.2092  0.8455
   19CHTO  H174 7686   5.373   6.553   1.943 -1.4665  0.6754 -2.7256
   19CHTO  H175 7687   5.550   6.532   1.944  0.4121  0.2023  0.5659
   19CHTO   C97 7688   5.334   6.669   1.714 -0.5610  0.0703  0.5507
   19CHTO  H184 7689   5.257   6.717   1.777 -1.5349  0.9298 -1.2557
   19CHTO   O64 7690   5.339   6.733   1.586 -0.3554  0.0686 -0.4979
   19CHTO  C104 7691   5.378   6.872   1.589 -0.3278  0.1492 -0.2784
   19CHTO  H191 7692   5.314   6.932   1.654  0.9420 -1.1839  2.2990
   19CHTO  C108 7693   5.367   6.933   1.447 -0.2658  0.1846 -0.5270
   19CHTO   O71 7694   5.247   6.908   1.372 -0.2260  0.2563 -0.1700
   19CHTO  H171 7695   5.270   6.925   1.283 -2.7896 -1.7610 -1.2857
   19CHTO   O62 7696   5.296   6.533   1.677  0.5398 -0.0670 -0.5644
   19CHTO   C91 7697   5.156   6.516   1.645 -0.1140 -0.1616  0.0693
   19CHTO  H178 7698   5.090   6.602   1.658  0.8514  0.4699  0.8214
   19CHTO   C92 7699   5.115   6.408   1.747  0.3015  0.0132  0.5689
   19CHTO  H179 7700   5.189   6.327   1.745 -0.4233 -0.6375 -0.8981
   19CHTO   O66 7701   5.130   6.463   1.883  0.0951 -0.4373  0.1742
   19CHTO  H166 7702   5.207   6.514   1.893 -0.3005  0.0768  0.6157
   19CHTO   C93 7703   4.976   6.344   1.715  0.1772 -0.3443 -0.1362
   19CHTO  H180 7704   4.908   6.428   1.734  0.5978  0.3526 -1.6311
   19CHTO   N16 7705   4.931   6.238   1.805 -0.1054  0.3815  0.6724
   19CHTO  H172 7706   4.955   6.149   1.748 -0.7588  1.4517 -1.3018
   19CHTO  H173 7707   4.823   6.233   1.804 -0.0732 -0.2825 -1.1382
   19CHTO   C94 7708   4.970   6.305   1.565  0.2756 -0.7412  0.4627
   19CHTO  H181 7709   5.050   6.236   1.538  0.9810  0.3682 -0.3400
   19CHTO   O61 7710   4.988   6.423   1.487  0.0711  0.2606  0.7680
   19CHTO   C95 7711   5.125   6.467   1.494  0.1574  0.6308 -0.4465
   19CHTO  H182 7712   5.192   6.384   1.472 -1.2528 -0.3622 -1.1070
   19CHTO  C106 7713   5.158   6.566   1.384 -0.0382 -0.7850 -0.0133
   19CHTO   O69 7714   5.062   6.666   1.368 -0.3619 -0.1077  0.1995
   19CHTO  H169 7715   4.987   6.633   1.321  0.5919 -0.5597 -1.0208
   19CHTO   O63 7716   4.835   6.235   1.522  0.4950  0.3445 -0.2301
   19CHTO   C96 7717   4.851   6.139   1.394  0.1037  0.5238 -0.2064
   19CHTO  H183 7718   4.916   6.056   1.422 -2.3758 -0.8491  1.6392
   19CHTO   C98 7719   4.886   6.200   1.259 -0.7096 -0.2824 -0.4261
   19CHTO  H185 7720   4.981   6.254   1.271  0.2069 -2.1674  1.0014
   19CHTO   O67 7721   4.917   6.086   1.177 -0.4421  0.2332 -0.7862
   19CHTO  H167 7722   4.881   6.089   1.090  1.7645 -0.3011 -1.7645
   19CHTO  C102 7723   4.770   6.283   1.199 -0.0755 -0.5862  0.5932
   19CHTO  H189 7724   4.803   6.319   1.100 -2.0009  2.1525  0.8995
   19CHTO   N18 7725   4.730   6.408   1.277 -0.3267  0.2085  0.2272
   19CHTO  H176 7726   4.825   6.457   1.294 -0.3817 -0.6271  3.0966
   19CHTO  H177 7727   4.710   6.365   1.374  2.9735  0.4639  1.0770
   19CHTO  C105 7728   4.645   6.188   1.174 -0.1859 -0.0456  0.4309
   19CHTO  H192 7729   4.557   6.247   1.198 -0.5798 -0.9257  1.1965
   19CHTO   O65 7730   4.654   6.067   1.249  0.6482  0.4399  0.2673
   19CHTO  C100 7731   4.705   6.069   1.387  0.4307 -0.5470 -0.1287
   19CHTO  H187 7732   4.630   6.129   1.441 -1.5669 -3.1130  0.0438
   19CHTO  C107 7733   4.689   5.935   1.454  0.4301 -0.2060  0.2228
   19CHTO   O70 7734   4.746   5.933   1.585  0.4668 -0.0143  0.9476
   19CHTO  H170 7735   4.834   5.903   1.586  0.7902  0.5317 -3.0026
   19CHTO   O57 7736   4.654   6.167   1.027 -0.0317 -0.1116  0.1257
   19CHTO   C85 7737   4.545   6.096   0.961 -0.5595 -0.0205 -0.5815
   19CHTO  H157 7738   4.470   6.072   1.039 -0.8807  0.5155 -0.7205
   19CHTO   C83 7739   4.592   5.952   0.926 -0.0589 -0.1933 -0.4276
   19CHTO  H155 7740   4.643   5.913   1.014 -1.8939  0.0170  0.7624
   19CHTO   O56 7741   4.694   5.962   0.830 -0.0862 -0.1602  0.2923
   19CHTO  H135 7742   4.730   5.880   0.800  1.7147  0.1535  1.4958
   19CHTO   C81 7743   4.478   5.865   0.870  0.0266 -0.0906 -0.2308
   19CHTO  H153 7744   4.398   5.865   0.944 -0.3906  0.7426 -0.6662
   19CHTO   N14 7745   4.499   5.719   0.844 -0.4451 -0.6670 -0.1144
   19CHTO  H141 7746   4.584   5.704   0.780 -0.1450  0.7253 -0.0609
   19CHTO  H142 7747   4.412   5.679   0.796 -0.7669  0.1547 -0.2296
   19CHTO   C79 7748   4.420   5.943   0.740  0.1406  1.0885 -0.5841
   19CHTO  H151 7749   4.322   5.898   0.726  2.3768 -4.3508 -0.1329
   19CHTO   O52 7750   4.391   6.083   0.759 -0.3290  0.0625 -0.0512
   19CHTO   C86 7751   4.479   6.166   0.837 -0.3847  0.2496  0.0172
   19CHTO  H158 7752   4.554   6.194   0.761  0.5873  0.5614  1.0771
   19CHTO   C90 7753   4.412   6.299   0.886 -0.5503  0.0645 -0.5402
   19CHTO   O60 7754   4.489   6.401   0.949 -0.1522  0.0735 -0.3077
   19CHTO  H138 7755   4.561   6.379   1.006 -0.3194  1.0251  0.2824
   19CHTO   O50 7756   4.504   5.921   0.619 -0.2059  0.0350 -0.3587
   19CHTO   C73 7757   4.533   5.907   0.481  0.0259  0.3633  0.1166
   19CHTO  H145 7758   4.481   5.815   0.452 -2.7737  1.6146  1.0104
   19CHTO   C74 7759   4.683   5.907   0.455  0.5505  1.0260 -0.5518
   19CHTO  H146 7760   4.725   5.824   0.514 -1.0638 -0.0592 -0.9135
   19CHTO   O54 7761   4.704   5.885   0.306 -0.3460  0.1110  0.5141
   19CHTO  H133 7762   4.670   5.959   0.260 -0.5895 -0.7107 -0.6533
   19CHTO   C75 7763   4.746   6.044   0.497 -0.4732 -0.6877  0.2489
   19CHTO  H147 7764   4.727   6.048   0.605 -0.2609 -1.2023  0.3087
   19CHTO   N13 7765   4.891   6.046   0.472  0.2241 -0.9661  0.0329
   19CHTO  H139 7766   4.909   5.981   0.387  2.2347 -0.5332  0.0991
   19CHTO  H140 7767   4.933   6.143   0.452  0.2507 -0.9346  0.2443
   19CHTO   C76 7768   4.668   6.169   0.439 -0.5724  0.3292  0.3109
   19CHTO  H148 7769   4.710   6.200   0.343  1.7856 -0.8355  0.9263
   19CHTO   O49 7770   4.524   6.145   0.424  0.2062 -0.3222  0.0875
   19CHTO   C77 7771   4.474   6.017   0.403 -0.2834  0.1108  0.8319
   19CHTO  H149 7772   4.479   6.000   0.296  3.2418 -1.9507  1.2658
   19CHTO   C88 7773   4.323   6.020   0.434 -0.2815  0.6709  0.0489
   19CHTO   O58 7774   4.251   6.140   0.343  0.2942 -0.5987 -0.1548
   19CHTO  H136 7775   4.298   6.221   0.357 -2.8368  1.0717  1.2515
   19CHTO   O51 7776   4.678   6.287   0.551 -0.6096  0.1439 -0.0839
   19CHTO   C78 7777   4.669   6.439   0.496  0.0207 -0.3507 -0.5475
   19CHTO  H150 7778   4.634   6.442   0.391 -0.1538 -0.2950 -0.4881
   19CHTO   C80 7779   4.805   6.500   0.505 -0.0022  0.3431 -0.0046
   19CHTO  H152 7780   4.834   6.493   0.612 -0.4257  2.0827  0.2440
   19CHTO   O55 7781   4.879   6.420   0.406 -0.4660  0.4727  0.2463
   19CHTO  H134 7782   4.967   6.405   0.434 -0.5947 -0.7278  0.0373
   19CHTO   C84 7783   4.800   6.658   0.464 -0.1220  0.4234 -0.1445
   19CHTO  H156 7784   4.768   6.658   0.360 -1.0064 -0.8053  0.1111
   19CHTO   N15 7785   4.931   6.728   0.466 -0.5350  0.4680 -0.2716
   19CHTO  H143 7786   4.959   6.756   0.366  0.9022  1.4933  0.3976
   19CHTO  H144 7787   5.010   6.669   0.508 -0.9747 -1.4074 -2.0552
   19CHTO   C87 7788   4.690   6.725   0.542 -0.4734 -0.1165  0.6470
   19CHTO  H159 7789   4.710   6.711   0.648  0.9629  0.2175  0.4282
   19CHTO   O53 7790   4.560   6.652   0.510 -0.0746 -0.6392  0.1685
   19CHTO   C82 7791   4.563   6.521   0.570 -0.5047 -0.2785 -0.0888
   19CHTO  H154 7792   4.593   6.525   0.675  0.2198  0.2864 -0.3106
   19CHTO   C89 7793   4.417   6.467   0.561  0.8722 -0.6465  0.3972
   19CHTO   O59 7794   4.379   6.461   0.427  0.4881 -0.0604 -0.0900
   19CHTO  H137 7795   4.299   6.509   0.417  0.2170 -0.6787 -1.0196
   19CHTO   O45 7796   4.674   6.872   0.503  0.0673  0.2583  0.2884
   19CHTO   C67 7797   4.583   6.946   0.587 -0.2917 -0.0408  0.0569
   19CHTO  H124 7798   4.528   6.878   0.652 -0.6779  0.9456  0.7548
   19CHTO   C65 7799   4.648   7.059   0.673  0.4625 -0.2104  0.8160
   19CHTO  H122 7800   4.739   7.091   0.623 -0.9030  0.2209 -1.4768
   19CHTO   O44 7801   4.691   6.982   0.780 -0.4989  0.4760 -0.5911
   19CHTO  H102 7802   4.622   6.978   0.844  1.6127  0.3604  1.7724
   19CHTO   C63 7803   4.562   7.196   0.684 -0.1287 -0.5392 -0.0102
   19CHTO  H120 7804   4.578   7.259   0.597 -0.9244  3.1984  2.4478
   19CHTO   N11 7805   4.615   7.291   0.788 -0.5778  0.5111  0.8800
   19CHTO  H108 7806   4.605   7.394   0.762  1.2866  0.2851 -0.8821
   19CHTO  H109 7807   4.721   7.274   0.796 -0.4978  0.2901 -0.5909
   19CHTO   C61 7808   4.415   7.158   0.688  0.1588 -0.5041  0.0354
   19CHTO  H118 7809   4.354   7.250   0.686 -2.1365 -1.9826 -1.7054
   19CHTO   O40 7810   4.380   7.086   0.571  0.0474 -0.8735  0.8462
   19CHTO   C68 7811   4.479   7.010   0.492  0.2602  1.0266  1.1448
   19CHTO  H125 7812   4.531   7.080   0.422 -1.3146  1.6960  0.6104
   19CHTO   C72 7813   4.400   6.909   0.399  0.0208  0.2015 -0.6527
   19CHTO   O48 7814   4.494   6.845   0.315 -0.0476  0.2972  0.1641
   19CHTO  H105 7815   4.442   6.821   0.240  1.0947 -0.7850 -0.3174
   19CHTO   O38 7816   4.389   7.079   0.807 -0.4277  0.4101  0.3617
   19CHTO   C55 7817   4.253   7.060   0.845  0.4216  0.2649 -0.2920
   19CHTO  H112 7818   4.191   7.053   0.755  1.6650  0.1477 -1.1553
   19CHTO   C56 7819   4.200   7.175   0.947 -0.3115 -0.0228  0.7595
   19CHTO  H113 7820   4.265   7.177   1.035 -0.6055  1.1118  0.9603
   19CHTO   O42 7821   4.229   7.300   0.891  0.2349 -0.0345  0.2786
   19CHTO  H100 7822   4.186   7.371   0.936  0.6288 -0.4240  1.2771
   19CHTO   C57 7823   4.060   7.141   0.998  0.1977 -0.4979  0.6441
   19CHTO  H114 7824   4.004   7.158   0.906 -0.3519 -1.1705  0.8561
   19CHTO   N10 7825   4.008   7.235   1.102 -0.3094 -0.0633  0.7994
   19CHTO  H106 7826   4.020   7.326   1.044 -0.0637 -0.6039 -0.0098
   19CHTO  H107 7827   4.087   7.228   1.175  0.3236 -0.7091  0.0725
   19CHTO   C58 7828   4.050   6.994   1.043  0.0716  0.0068 -0.4533
   19CHTO  H115 7829   4.102   6.987   1.141  1.0090 -0.0474 -0.9502
   19CHTO   O37 7830   4.119   6.900   0.958  0.1418 -0.5686 -0.3637
   19CHTO   C59 7831   4.255   6.924   0.914  0.7349 -0.7200  0.9992
   19CHTO  H116 7832   4.323   6.912   0.998  1.2977 -2.5141  0.3127
   19CHTO   C70 7833   4.291   6.807   0.821 -0.1523  0.0181  0.7931
   19CHTO   O46 7834   4.211   6.786   0.706 -0.1040 -0.1370 -0.1190
   19CHTO  H103 7835   4.218   6.697   0.680  0.8381 -0.5478  1.4527
   19CHTO   O39 7836   3.893   6.952   1.056 -0.2001 -0.1126  0.2654
   19CHTO   C60 7837   3.838   6.896   0.936  0.0586 -0.3791  0.6489
   19CHTO  H117 7838   3.883   6.954   0.856 -3.0407  0.3466 -0.6578
   19CHTO   C62 7839   3.872   6.744   0.911  0.4823  0.0917  0.6622
   19CHTO  H119 7840   3.982   6.739   0.925  1.0523  0.8024 -2.9461
   19CHTO   O43 7841   3.811   6.658   1.006 -0.6140  0.6890 -0.4303
   19CHTO  H101 7842   3.869   6.651   1.079  1.7252 -0.0488 -2.3020
   19CHTO   C66 7843   3.836   6.709   0.758 -0.1577 -0.0306 -0.3709
   19CHTO  H123 7844   3.874   6.790   0.695 -0.0923  1.0227  1.0076
   19CHTO   N12 7845   3.901   6.584   0.710 -0.0685 -0.5764  0.2908
   19CHTO  H110 7846   3.838   6.527   0.643 -0.5729  0.0964  0.1824
   19CHTO  H111 7847   3.944   6.528   0.791  0.9514 -1.2589 -0.7040
   19CHTO   C69 7848   3.683   6.715   0.746 -1.0350  0.1006 -0.2278
   19CHTO  H126 7849   3.648   6.636   0.816 -3.1398 -1.2713 -2.7264
   19CHTO   O41 7850   3.635   6.852   0.796  0.0461 -0.1380 -0.0749
   19CHTO   C64 7851   3.688   6.919   0.922 -0.5204  0.2961  0.0300
   19CHTO  H121 7852   3.637   6.884   1.014  2.8125 -3.3567  0.6088
   19CHTO   C71 7853   3.656   7.066   0.910 -0.2686 -0.2828  0.0883
   19CHTO   O47 7854   3.694   7.126   0.785 -0.4152 -0.2448 -0.3157
   19CHTO  H104 7855   3.653   7.088   0.709 -0.1444 -1.5818  0.1850
   19CHTO   O34 7856   3.636   6.672   0.615 -0.3616  0.4445  0.8215
   19CHTO   C49 7857   3.553   6.746   0.519  0.7065  0.0767 -0.4630
   19CHTO   H91 7858   3.489   6.813   0.576  3.2442  1.9789  0.2209
   19CHTO   C47 7859   3.472   6.636   0.448 -0.3154 -0.1508 -0.0908
   19CHTO   H89 7860   3.398   6.695   0.390  0.4895 -0.5069 -1.5212
   19CHTO   O33 7861   3.395   6.557   0.536 -0.3052  0.0633  0.0586
   19CHTO   H70 7862   3.322   6.519   0.492  0.6576 -0.9420 -0.7140
   19CHTO   C45 7863   3.566   6.544   0.356 -0.1602  0.9944 -0.1395
   19CHTO   H87 7864   3.586   6.451   0.412 -0.1229  0.5256 -0.9231
   19CHTO    N8 7865   3.502   6.511   0.227  0.0793  0.0820  0.5938
   19CHTO   H75 7866   3.563   6.475   0.146  1.8255  1.8789  1.0705
   19CHTO   H76 7867   3.427   6.579   0.192 -1.3975 -1.9124 -0.2145
   19CHTO   C43 7868   3.707   6.616   0.334  0.7773  0.3920 -0.5484
   19CHTO   H85 7869   3.764   6.593   0.424  0.8605 -0.2146 -0.7577
   19CHTO   O29 7870   3.686   6.760   0.307  0.9069  0.1502 -0.5404
   19CHTO   C50 7871   3.632   6.830   0.420 -0.0167  0.3048 -0.2364
   19CHTO   H92 7872   3.712   6.875   0.481  1.1739 -0.3617 -1.2693
   19CHTO   C54 7873   3.551   6.957   0.376  0.3211  0.1978 -0.0983
   19CHTO   O36 7874   3.472   6.921   0.259  0.0580  0.1235  0.0897
   19CHTO   H72 7875   3.413   6.993   0.248  0.1676  0.1817 -0.1387
   19CHTO   O27 7876   3.793   6.555   0.230 -0.5176  0.3097 -0.2702
   19CHTO   C37 7877   3.918   6.531   0.152 -0.0725  0.2393 -0.0908
   19CHTO   H79 7878   3.925   6.426   0.120  1.3143  1.3296 -3.5839
   19CHTO   C38 7879   3.910   6.615   0.024  0.3954 -0.0501  0.5819
   19CHTO   H80 7880   3.879   6.716   0.054  2.5480  0.6179  0.6072
   19CHTO   O31 7881   3.807   6.559  -0.061  0.4763 -0.0177 -0.0043
   19CHTO   H68 7882   3.800   6.469  -0.089 -2.3423 -0.0676  0.7251
   19CHTO   C39 7883   4.052   6.622  -0.044  0.0656 -0.3826 -0.0792
   19CHTO   H81 7884   4.071   6.524  -0.089 -2.0851 -0.8919  0.0812
   19CHTO    N7 7885   4.064   6.720  -0.159  0.3654  0.3764  0.0885
   19CHTO   H73 7886   4.159   6.701  -0.207 -0.6914 -0.9267 -1.5397
   19CHTO   H74 7887   3.978   6.724  -0.224 -0.3659 -1.5788  0.8997
   19CHTO   C40 7888   4.164   6.655   0.053  0.1202  0.1232 -0.3680
   19CHTO   H82 7889   4.157   6.758   0.090  0.6620  0.3877 -0.9862
   19CHTO   O26 7890   4.161   6.559   0.161  0.2363 -0.1474  0.6351
   19CHTO   C41 7891   4.039   6.578   0.237  0.4002  0.2698  0.0218
   19CHTO   H83 7892   4.025   6.684   0.264 -0.7605  0.4105 -1.1055
   19CHTO   C52 7893   4.055   6.504   0.375  0.2596 -0.8126  0.3881
   19CHTO   O35 7894   4.051   6.349   0.366 -0.0498  0.1046  0.2923
   19CHTO   H71 7895   4.137   6.314   0.360 -0.2507 -0.4911  0.8040
   19CHTO   O28 7896   4.293   6.618  -0.004  0.2126  0.3728 -0.2130
   19CHTO   C42 7897   4.407   6.701   0.027 -0.0584 -0.1896  0.1938
   19CHTO   H84 7898   4.389   6.725   0.131 -0.1972 -1.7776  0.5522
   19CHTO   C44 7899   4.435   6.843  -0.049  0.2919 -0.0102  0.4038
   19CHTO   H86 7900   4.422   6.833  -0.157 -4.1995  1.2443  0.7146
   19CHTO   O32 7901   4.324   6.927  -0.012  0.6444 -0.2455 -0.3636
   19CHTO   H69 7902   4.256   6.931  -0.077 -0.1511  2.4107  0.5934
   19CHTO   C48 7903   4.575   6.914  -0.021  0.1618  0.1093  0.0736
   19CHTO   H90 7904   4.565   6.938   0.085  1.7917  0.6320  0.1155
   19CHTO    N9 7905   4.586   7.035  -0.099 -0.1935  0.2840 -0.4544
   19CHTO   H77 7906   4.489   7.081  -0.114  0.2503  1.1761 -0.6611
   19CHTO   H78 7907   4.659   7.106  -0.062  0.6197 -0.0002 -1.4814
   19CHTO   C51 7908   4.695   6.815  -0.042 -0.2188  0.0971 -0.8694
   19CHTO   H93 7909   4.683   6.772  -0.142 -1.0972 -2.7113  0.3969
   19CHTO   O30 7910   4.681   6.711   0.056 -0.4466  0.5968 -0.7684
   19CHTO   C46 7911   4.552   6.626   0.021  0.1793 -0.2054  0.4325
   19CHTO   H88 7912   4.560   6.582  -0.078 -0.1069  0.1239  0.2649
   19CHTO   C53 7913   4.550   6.503   0.124 -0.3550  0.8787 -0.4661
   19CHTO   O72 7914   4.659   6.420   0.111 -0.5999  0.4526  0.0216
   19CHTO  H199 7915   4.740   6.447   0.149  0.0919 -1.5575 -0.0003
   19CHTO   O22 7916   4.828   6.874  -0.019  0.5955 -0.8645 -0.1532
   19CHTO   C31 7917   4.937   6.805  -0.092  0.3829  0.4133 -0.4746
   19CHTO   H59 7918   4.909   6.698  -0.105  1.3199  0.0590  0.3811
   19CHTO   C29 7919   4.957   6.861  -0.234 -0.5242  0.1997  0.1562
   19CHTO   H57 7920   5.003   6.961  -0.224  0.6950 -0.1137 -2.0565
   19CHTO   O21 7921   4.834   6.888  -0.304  0.0784 -0.0494 -0.3602
   19CHTO   H37 7922   4.841   6.962  -0.360  1.3905 -0.9733 -1.4427
   19CHTO   C27 7923   5.051   6.762  -0.318  0.7707 -0.1094  0.5052
   19CHTO   H55 7924   4.991   6.671  -0.336  0.6423  0.4445 -1.9618
   19CHTO    N5 7925   5.082   6.821  -0.455  0.3798  0.0977 -0.5351
   19CHTO   H43 7926   4.988   6.820  -0.508  0.2100 -3.5710 -0.2805
   19CHTO   H44 7927   5.114   6.922  -0.432  1.6051 -0.0328 -1.5829
   19CHTO   C25 7928   5.184   6.733  -0.244 -1.1534 -0.5550 -0.5428
   19CHTO   H53 7929   5.248   6.822  -0.249 -1.5988 -0.1915  0.2189
   19CHTO   O17 7930   5.162   6.703  -0.098  0.2222 -0.1929  0.2128
   19CHTO   C32 7931   5.077   6.796  -0.025  0.0391  0.3744 -0.0152
   19CHTO   H60 7932   5.126   6.893  -0.019  0.3236  0.3608 -1.7636
   19CHTO   C36 7933   5.063   6.736   0.125 -0.1985  0.2981  0.6570
   19CHTO   O25 7934   5.186   6.740   0.199 -0.5310 -0.1567 -0.7990
   19CHTO   H40 7935   5.157   6.727   0.288  1.8611  0.0439  0.0433
   19CHTO   O15 7936   5.264   6.608  -0.307  0.4882 -0.2578  0.6160
   19CHTO   C19 7937   5.279   6.466  -0.284 -0.0276  0.4071 -0.0668
   19CHTO   H47 7938   5.303   6.458  -0.177  1.7200 -0.2764 -0.4838
   19CHTO   C20 7939   5.151   6.390  -0.311 -0.9250  0.0557  0.2370
   19CHTO   H48 7940   5.107   6.418  -0.408 -0.4490  0.6893  0.2068
   19CHTO   O19 7941   5.054   6.430  -0.203 -0.2151 -0.1009  0.3429
   19CHTO   H35 7942   5.010   6.511  -0.219 -0.2450 -0.0821  0.5249
   19CHTO   C21 7943   5.178   6.233  -0.305  0.3657  0.0229 -0.4483
   19CHTO   H49 7944   5.193   6.207  -0.200 -1.0675  1.7802  0.2220
   19CHTO    N4 7945   5.063   6.156  -0.353  0.3050 -0.4730 -0.0384
   19CHTO   H41 7946   4.967   6.171  -0.306  0.9323  2.6651  0.3798
   19CHTO   H42 7947   5.049   6.172  -0.459  2.1988  1.6354 -0.0094
   19CHTO   C22 7948   5.308   6.185  -0.370  0.3508  0.5352 -0.1214
   19CHTO   H50 7949   5.302   6.193  -0.478 -1.3266 -2.2185 -0.2577
   19CHTO   O14 7950   5.420   6.266  -0.323  0.7220  0.5209 -0.3567
   19CHTO   C23 7951   5.397   6.401  -0.364 -0.8146  0.0856 -0.7845
   19CHTO   H51 7952   5.378   6.399  -0.472  0.4388  1.7389 -1.0575
   19CHTO   C34 7953   5.533   6.477  -0.340 -0.4318 -0.2589  0.1438
   19CHTO   O23 7954   5.631   6.443  -0.444  0.1016 -0.0545  0.0509
   19CHTO   H38 7955   5.594   6.370  -0.490  0.5479 -0.8318  0.9138
   19CHTO   O16 7956   5.350   6.060  -0.316 -0.2534  0.0905 -0.1631
   19CHTO   C24 7957   5.404   5.939  -0.412 -0.4028 -0.1837  0.7697
   19CHTO   H52 7958   5.498   5.896  -0.376 -0.0349 -0.2938 -0.3041
   19CHTO   C26 7959   5.436   5.978  -0.560 -0.1227  0.3221 -0.0370
   19CHTO   H54 7960   5.340   6.013  -0.603 -0.5460 -0.0996  0.5552
   19CHTO   O20 7961   5.543   6.076  -0.564  0.5157  0.2072  0.0391
   19CHTO   H36 7962   5.519   6.162  -0.535 -0.5899 -0.2725  0.6063
   19CHTO   C30 7963   5.474   5.850  -0.650 -0.7812 -0.2445 -0.3045
   19CHTO   H58 7964   5.569   5.809  -0.612 -0.6005  1.4843  1.1734
   19CHTO    N6 7965   5.505   5.888  -0.790 -0.1084  0.2847 -0.1008
   19CHTO   H45 7966   5.521   5.798  -0.848  1.1461  0.5905 -0.2566
   19CHTO   H46 7967   5.420   5.939  -0.832 -0.0182 -0.1705 -0.8523
   19CHTO   C33 7968   5.369   5.733  -0.624 -0.1410  0.3200 -0.9348
   19CHTO   H61 7969   5.275   5.772  -0.666 -1.5969 -0.0197  1.8519
   19CHTO   O18 7970   5.351   5.717  -0.483  0.2264 -0.2427 -0.3335
   19CHTO   C28 7971   5.300   5.826  -0.405  0.3441 -0.0903  0.6936
   19CHTO   H56 7972   5.207   5.867  -0.443  1.1180 -0.0941 -1.2746
   19CHTO   C35 7973   5.278   5.782  -0.262  0.8820  0.3003 -0.2364
   19CHTO   O24 7974   5.396   5.722  -0.207 -0.2233  0.4703 -0.2727
   19CHTO   H39 7975   5.402   5.744  -0.116  1.3549 -0.1620 -0.1989
   19CHTO    O9 7976   5.395   5.606  -0.688  0.0316 -0.6938 -0.6854
   19CHTO   C13 7977   5.253   5.538  -0.743 -0.0694 -0.8218  1.0031
   19CHTO   H26 7978   5.211   5.602  -0.823  2.6204  0.5668  0.6661
   19CHTO   C11 7979   5.153   5.528  -0.619 -0.2749  0.2718  0.0040
   19CHTO   H24 7980   5.138   5.634  -0.590  1.8739  1.0215 -1.4858
   19CHTO    O8 7981   5.222   5.461  -0.515 -0.8590  0.0406  0.0097
   19CHTO    H3 7982   5.246   5.378  -0.551 -1.4294 -0.1662  0.0993
   19CHTO    C9 7983   5.021   5.462  -0.661  0.2199  0.0046 -0.3642
   19CHTO   H22 7984   4.987   5.522  -0.747 -0.0912 -0.6322 -0.6882
   19CHTO    N2 7985   4.900   5.469  -0.570 -1.0802  0.0872  0.0178
   19CHTO   H10 7986   4.925   5.422  -0.475 -0.5625 -0.5682 -0.4397
   19CHTO   H11 7987   4.824   5.410  -0.619 -1.3551  1.0283 -0.6905
   19CHTO    C7 7988   5.061   5.315  -0.709  0.2230 -0.5554  0.3706
   19CHTO   H20 7989   4.962   5.278  -0.742  0.1683 -0.4569  0.4250
   19CHTO    O4 7990   5.146   5.328  -0.824 -0.7993 -0.2288  0.1160
   19CHTO   C14 7991   5.272   5.398  -0.809  0.5000  0.5136 -0.5219
   19CHTO   H27 7992   5.302   5.418  -0.915 -0.8613  2.0815 -0.6304
   19CHTO   C18 7993   5.387   5.314  -0.748  0.1710 -0.1056  0.4378
   19CHTO   O13 7994   5.510   5.383  -0.758 -0.2608  0.1238 -0.3002
   19CHTO    H7 7995   5.571   5.336  -0.811  0.5483  0.5322  0.2629
   19CHTO    O2 7996   5.125   5.229  -0.609 -0.2411 -0.0705  0.1955
   19CHTO    C1 7997   5.112   5.087  -0.611  0.1342  0.0210  0.4915
   19CHTO   H14 7998   5.214   5.046  -0.599 -0.1676 -0.8594  0.0664
   19CHTO    C2 7999   5.045   5.024  -0.748  0.3660 -0.3653 -0.1996
   19CHTO   H15 8000   4.970   5.094  -0.787  2.0357  1.1826 -0.6425
   19CHTO    O6 8001   5.145   5.021  -0.852  0.1872 -0.2524  0.4445
   19CHTO    H1 8002   5.221   4.972  -0.827 -1.0161 -1.8881  1.0021
   19CHTO    C3 8003   4.983   4.870  -0.714  0.1144 -0.1824  0.1429
   19CHTO   H16 8004   5.058   4.790  -0.714  1.0650  0.6999  1.5830
   19CHTO    N1 8005   4.886   4.837  -0.824 -0.0765 -0.2953  0.0759
   19CHTO    H8 8006   4.817   4.920  -0.836 -0.1676 -0.3456  0.2521
   19CHTO    H9 8007   4.942   4.818  -0.915  0.1082 -0.0304  0.1359
   19CHTO    C4 8008   4.917   4.868  -0.574 -0.4309 -0.1914 -0.3031
   19CHTO   H17 8009   4.834   4.939  -0.578 -0.3968 -0.1500 -0.2606
   19CHTO    O1 8010   5.012   4.912  -0.476  0.0715  0.1936  0.3403
   19CHTO    C5 8011   5.040   5.052  -0.485  0.0055  0.8154 -0.0082
   19CHTO   H18 8012   4.957   5.122  -0.484 -0.0427  0.7592  1.5683
   19CHTO   C16 8013   5.125   5.073  -0.354  0.0727  0.5358  0.0351
   19CHTO   O11 8014   5.039   5.084  -0.244  0.4105 -0.1502 -0.4340
   19CHTO    H5 8015   5.090   5.086  -0.166 -0.3267 -1.6388  0.1051
   19CHTO    O3 8016   4.871   4.735  -0.541 -0.1528 -0.6553 -0.0037
   19CHTO    C6 8017   4.762   4.726  -0.448 -0.1859  0.0252 -0.4838
   19CHTO   H19 8018   4.733   4.821  -0.403 -1.1400 -0.7175  0.4764
   19CHTO    C8 8019   4.635   4.682  -0.527  0.5769  0.2195 -0.8640
   19CHTO   H21 8020   4.655   4.588  -0.578  1.1596  0.3430 -0.8728
   19CHTO    O7 8021   4.602   4.780  -0.630  0.4875 -0.8462 -0.5307
   19CHTO    H2 8022   4.658   4.853  -0.613  0.0359 -1.0082  1.8355
   19CHTO   C12 8023   4.513   4.661  -0.423 -0.1085  0.3361  0.1241
   19CHTO   H25 8024   4.491   4.763  -0.385 -0.4908  1.6567 -3.5077
   19CHTO    N3 8025   4.390   4.611  -0.482 -0.4209  0.4795  0.5937
   19CHTO   H12 8026   4.350   4.684  -0.551 -0.4877 -0.9506 -0.9140
   19CHTO   H13 8027   4.314   4.581  -0.411 -0.3047 -0.4372  0.3411
   19CHTO   C15 8028   4.555   4.569  -0.299 -0.2652 -1.3693  0.5561
   19CHTO   H28 8029   4.584   4.468  -0.328  0.1695 -1.5193  1.5073
   19CHTO   O10 8030   4.451   4.567  -0.189  0.0077  0.6173  0.2894
   19CHTO    H4 8031   4.472   4.590  -0.100 -0.4692  1.5639  0.1606
   19CHTO    O5 8032   4.670   4.633  -0.237 -0.0330  0.0222 -0.1431
   19CHTO   C10 8033   4.784   4.628  -0.332 -0.1016  0.2274  0.2317
   19CHTO   H23 8034   4.802   4.527  -0.370  0.1605  0.5701 -0.5575
   19CHTO   C17 8035   4.908   4.664  -0.256  0.0450  0.5290 -0.1690
   19CHTO   O12 8036   4.893   4.782  -0.179 -0.0782  0.0115 -0.0303
   19CHTO    H6 8037   4.900   4.768  -0.086  0.6387  1.4847  0.1464
   20CHTO  H203 8038   4.922   0.674   0.412 -1.2387  0.1232 -0.4571
   20CHTO   O82 8039   4.922   0.680   0.506 -0.3109 -0.0078 -0.4399
   20CHTO  C123 8040   4.934   0.818   0.540  0.6788  0.3222 -0.1720
   20CHTO  H227 8041   4.939   0.877   0.447 -1.8209  0.2326 -0.4044
   20CHTO   O77 8042   4.802   0.850   0.595  0.7025  0.4500 -0.1322
   20CHTO  C118 8043   4.792   0.989   0.613 -0.4954 -0.7983 -0.5923
   20CHTO  H222 8044   4.816   1.059   0.532 -1.0846 -0.9155 -0.8719
   20CHTO  C125 8045   4.643   1.012   0.657  0.1838  0.1932 -0.4224
   20CHTO   O84 8046   4.538   0.951   0.571  0.2423 -0.9965 -0.1136
   20CHTO  H205 8047   4.497   1.012   0.514  0.5265 -1.7935 -1.1851
   20CHTO  C114 8048   4.895   1.036   0.721  0.1899 -0.3883  0.5671
   20CHTO  H218 8049   4.881   0.980   0.814 -0.0836  0.7657  1.2325
   20CHTO  C116 8050   5.043   0.996   0.689  0.5957  0.9894  0.5160
   20CHTO  H220 8051   5.078   1.068   0.613 -1.5583  2.7180  1.1082
   20CHTO   O79 8052   5.116   1.014   0.806  0.2178  0.0083 -0.0366
   20CHTO  H201 8053   5.111   1.102   0.841  1.9591 -0.4261  1.3869
   20CHTO  C120 8054   5.053   0.843   0.640  0.6219 -1.0156 -0.1761
   20CHTO  H224 8055   5.043   0.772   0.725 -1.5282  0.4078  0.8007
   20CHTO   N21 8056   5.192   0.826   0.578  0.6869  0.3025  0.6686
   20CHTO  H211 8057   5.177   0.782   0.480 -1.4542  3.1278 -0.3588
   20CHTO  H212 8058   5.249   0.764   0.645 -2.2064 -2.2040  0.9165
   20CHTO   O75 8059   4.854   1.170   0.747  0.1859  0.7726 -0.1512
   20CHTO  C112 8060   4.929   1.290   0.684  0.4754 -0.3477 -0.0100
   20CHTO  H216 8061   4.972   1.253   0.590 -0.0558 -1.4021  0.1603
   20CHTO   O73 8062   5.029   1.333   0.771 -0.4556 -0.4127 -0.3250
   20CHTO  C113 8063   5.123   1.431   0.721 -0.2135  0.8167  0.8824
   20CHTO  H217 8064   5.171   1.393   0.629 -1.3853 -1.5419  1.2138
   20CHTO  C124 8065   5.238   1.441   0.821  0.7148  0.0384  0.6156
   20CHTO   O83 8066   5.354   1.392   0.755  0.4190  0.0613 -0.5731
   20CHTO  H204 8067   5.414   1.463   0.740 -0.4050  0.6716 -1.0428
   20CHTO  C109 8068   5.045   1.564   0.714  1.0210  0.5098 -0.1751
   20CHTO  H213 8069   5.018   1.594   0.817 -0.6951 -0.6486 -0.2733
   20CHTO  C110 8070   4.917   1.546   0.627  0.3604 -0.5108 -0.0116
   20CHTO  H214 8071   4.948   1.548   0.522  0.3077  2.7961 -0.0407
   20CHTO   O78 8072   4.830   1.663   0.637 -0.0354  0.1925  0.0546
   20CHTO  H200 8073   4.789   1.673   0.721  1.7779  0.1323  0.9812
   20CHTO  C111 8074   4.837   1.417   0.652 -0.5031  0.9498 -0.8134
   20CHTO  H215 8075   4.787   1.428   0.749 -0.9700 -2.8575 -0.5779
   20CHTO   N19 8076   4.738   1.369   0.552 -0.0619 -0.4453  0.1578
   20CHTO  H207 8077   4.663   1.311   0.604  0.9217 -0.2291  1.8405
   20CHTO  H208 8078   4.684   1.446   0.499  0.3544 -0.3323 -0.1047
   20CHTO   O74 8079   5.118   1.666   0.645 -0.4654  0.2018  0.1024
   20CHTO  C115 8080   5.113   1.826   0.717 -0.5335  0.0923 -0.6485
   20CHTO  H219 8081   5.016   1.852   0.759 -0.2022 -0.0014  0.1846
   20CHTO   O76 8082   5.214   1.842   0.826 -0.2024 -0.4900 -0.7001
   20CHTO  C122 8083   5.354   1.835   0.787  0.2922 -0.1395 -0.2921
   20CHTO  H226 8084   5.382   1.731   0.794 -1.0121 -0.4622  0.2470
   20CHTO  C126 8085   5.437   1.920   0.897  0.4369  0.3256  0.0021
   20CHTO   O85 8086   5.441   1.903   1.036  0.0648  0.1345  0.4979
   20CHTO  H206 8087   5.355   1.906   1.073 -0.0865  1.0282  0.0872
   20CHTO  C121 8088   5.391   1.889   0.644 -0.2574  0.2965  0.1018
   20CHTO  H225 8089   5.488   1.943   0.648  0.0034 -0.0529 -1.1378
   20CHTO   O81 8090   5.413   1.780   0.551  0.0189  0.0741 -0.2969
   20CHTO  H202 8091   5.345   1.780   0.486  0.5534 -0.1362 -0.8577
   20CHTO  C119 8092   5.281   1.989   0.595  0.0704 -0.2220  0.1455
   20CHTO  H223 8093   5.283   2.082   0.652 -1.5139  0.2223 -0.4913
   20CHTO  C117 8094   5.133   1.933   0.600  0.1000  0.8970 -0.9966
   20CHTO  H221 8095   5.103   1.873   0.514 -1.1873 -0.3001  0.2748
   20CHTO   N20 8096   5.039   2.051   0.594  0.6820  0.0422 -0.3573
   20CHTO  H209 8097   5.071   2.109   0.509 -2.1391  0.4823 -1.1535
   20CHTO  H210 8098   4.941   2.010   0.576  0.9904 -0.6212 -0.5723
   20CHTO   O80 8099   5.317   2.051   0.445  0.2144  0.0682 -0.0792
   20CHTO  C103 8100   5.414   2.181   0.420  0.2611 -0.6406 -0.6718
   20CHTO  H190 8101   5.367   2.260   0.478  1.7453 -0.3592  0.1603
   20CHTO  C101 8102   5.571   2.168   0.465 -0.1721  0.2799  0.3771
   20CHTO  H188 8103   5.602   2.068   0.433 -0.7099 -0.2220  1.4044
   20CHTO   O68 8104   5.577   2.176   0.613  0.0074  0.1467  0.3340
   20CHTO  H168 8105   5.547   2.261   0.639  1.2979  0.4777  0.7866
   20CHTO   C99 8106   5.661   2.283   0.392 -0.8081 -0.2652  0.2664
   20CHTO  H186 8107   5.655   2.377   0.451 -2.4612 -0.7202  0.8325
   20CHTO   N17 8108   5.810   2.260   0.400  0.3958  0.3973  0.3466
   20CHTO  H174 8109   5.828   2.200   0.488 -1.5696 -2.6854 -1.2407
   20CHTO  H175 8110   5.852   2.359   0.406 -0.0618  0.6253 -0.1400
   20CHTO   C97 8111   5.611   2.320   0.250 -0.0207 -0.0935 -1.0605
   20CHTO  H184 8112   5.636   2.236   0.183  0.1983 -1.4660  0.7158
   20CHTO   O64 8113   5.468   2.339   0.255  0.4810 -0.2378 -0.2521
   20CHTO  C104 8114   5.398   2.218   0.271 -0.5944  0.5656 -0.2541
   20CHTO  H191 8115   5.446   2.138   0.214 -2.3188 -0.2256 -0.6235
   20CHTO  C108 8116   5.255   2.228   0.221  0.1466 -0.7395  0.9843
   20CHTO   O71 8117   5.250   2.257   0.083 -0.3132  0.0610 -0.1709
   20CHTO  H171 8118   5.224   2.183   0.031 -1.8254  0.6319 -0.2480
   20CHTO   O62 8119   5.653   2.441   0.198  0.2894 -0.2814 -0.0019
   20CHTO   C91 8120   5.681   2.448   0.058 -0.5618  0.4206 -0.3855
   20CHTO  H178 8121   5.646   2.358   0.007 -2.1115  0.3994  0.6750
   20CHTO   C92 8122   5.832   2.448   0.027  0.0886  0.0854  0.1219
   20CHTO  H179 8123   5.879   2.535   0.075 -0.4835  0.1665  0.5505
   20CHTO   O66 8124   5.891   2.330   0.087 -0.5067  0.2205  0.3539
   20CHTO  H166 8125   5.853   2.250   0.055  1.6225 -1.8048  2.6347
   20CHTO   C93 8126   5.855   2.458  -0.129  0.1289 -0.3547 -0.1887
   20CHTO  H180 8127   5.811   2.360  -0.157  0.1712 -0.1307 -1.0276
   20CHTO   N16 8128   5.996   2.471  -0.179  0.2323  0.1052  0.5325
   20CHTO  H172 8129   6.054   2.389  -0.139 -0.4518 -2.2141 -3.0136
   20CHTO  H173 8130   6.030   2.566  -0.140 -0.6045 -0.2215  2.0882
   20CHTO   C94 8131   5.769   2.577  -0.195 -0.0320 -0.0909 -0.8812
   20CHTO  H181 8132   5.805   2.676  -0.168 -0.6836  0.0810 -0.6510
   20CHTO   O61 8133   5.630   2.557  -0.160  0.7012  0.0248  0.3272
   20CHTO   C95 8134   5.596   2.563  -0.018  0.1413 -0.0882  0.1135
   20CHTO  H182 8135   5.636   2.654   0.028 -1.2278 -0.4417  2.0732
   20CHTO  C106 8136   5.441   2.560  -0.006  0.2518 -0.1694  0.5965
   20CHTO   O69 8137   5.391   2.582   0.127  0.2657  0.1880 -0.1783
   20CHTO  H169 8138   5.434   2.537   0.198  0.6412  0.1519 -0.4303
   20CHTO   O63 8139   5.772   2.576  -0.363  0.3608  0.1856 -0.4567
   20CHTO   C96 8140   5.713   2.435  -0.426 -0.7227  0.2201  0.0509
   20CHTO  H183 8141   5.707   2.357  -0.350 -0.3611 -1.1425 -1.2928
   20CHTO   C98 8142   5.802   2.388  -0.547 -0.0124  0.1994 -0.5652
   20CHTO  H185 8143   5.904   2.364  -0.512  0.1584  0.1143 -1.1195
   20CHTO   O67 8144   5.758   2.258  -0.585 -0.2239  0.0748  0.0059
   20CHTO  H167 8145   5.806   2.221  -0.656 -1.6689  1.8088 -1.9376
   20CHTO  C102 8146   5.795   2.479  -0.674  0.0007 -0.2077 -0.5029
   20CHTO  H189 8147   5.815   2.413  -0.759 -1.3007  0.3504 -1.2692
   20CHTO   N18 8148   5.897   2.587  -0.684  0.1050  0.4356  0.1741
   20CHTO  H176 8149   5.879   2.658  -0.763  2.4800  0.6589 -0.2035
   20CHTO  H177 8150   5.986   2.546  -0.728 -0.3772 -0.4668  0.0198
   20CHTO  C105 8151   5.648   2.524  -0.704  0.0805  0.1524  0.5459
   20CHTO  H192 8152   5.630   2.630  -0.688  1.0282  0.7650 -2.2989
   20CHTO   O65 8153   5.553   2.456  -0.619  0.0957  0.2675  0.3033
   20CHTO  C100 8154   5.569   2.469  -0.480 -0.5536 -0.5521 -0.9022
   20CHTO  H187 8155   5.544   2.574  -0.458 -2.2143 -1.1142  0.0347
   20CHTO  C107 8156   5.456   2.383  -0.403  0.0910  0.4094  0.3584
   20CHTO   O70 8157   5.335   2.451  -0.425 -0.5387  0.3076  0.4397
   20CHTO  H170 8158   5.314   2.443  -0.516  2.5495 -0.2999 -0.2575
   20CHTO   O57 8159   5.624   2.490  -0.843  0.5039 -0.1854  0.3239
   20CHTO   C85 8160   5.519   2.545  -0.916  0.2630  0.3641 -1.0473
   20CHTO  H157 8161   5.491   2.635  -0.858  0.4654 -0.2283 -0.0196
   20CHTO   C83 8162   5.389   2.451  -0.910  0.3912 -0.5149 -0.0523
   20CHTO  H155 8163   5.369   2.436  -0.804 -2.2022 -0.6998 -0.5391
   20CHTO   O56 8164   5.421   2.324  -0.974 -0.2373 -0.2598 -0.0133
   20CHTO  H135 8165   5.390   2.251  -0.925 -1.3138  0.7872  0.8940
   20CHTO   C81 8166   5.273   2.532  -0.977 -0.8469 -0.1640 -0.2272
   20CHTO  H153 8167   5.270   2.625  -0.921 -0.1830 -1.0700  1.3349
   20CHTO   N14 8168   5.142   2.471  -0.953 -0.2641  0.8808  1.0336
   20CHTO  H141 8169   5.090   2.518  -0.872 -0.9512  1.8170  0.0658
   20CHTO  H142 8170   5.084   2.473  -1.043  0.0646 -1.5647  0.7348
   20CHTO   C79 8171   5.302   2.569  -1.127 -0.3799  0.0827 -0.5401
   20CHTO  H151 8172   5.229   2.643  -1.158  1.1988  1.6954 -0.4701
   20CHTO   O52 8173   5.438   2.634  -1.141 -0.4855 -0.5127  0.0822
   20CHTO   C86 8174   5.550   2.575  -1.071  0.4327 -0.5781  0.0981
   20CHTO  H158 8175   5.568   2.487  -1.136  0.6861 -0.5619  0.1445
   20CHTO   C90 8176   5.672   2.666  -1.085  0.2288  0.1624  0.0141
   20CHTO   O60 8177   5.651   2.797  -1.029 -0.1913  0.2267  0.3450
   20CHTO  H138 8178   5.721   2.822  -0.972  0.2189 -1.0021  0.4090
   20CHTO   O50 8179   5.294   2.450  -1.207 -0.1468  0.0838  0.1479
   20CHTO   C73 8180   5.332   2.426  -1.343 -0.5437  0.2299  0.3833
   20CHTO  H145 8181   5.439   2.402  -1.337 -0.4408  0.8345  1.0535
   20CHTO   C74 8182   5.301   2.545  -1.441  0.3754  0.3586 -0.1672
   20CHTO  H146 8183   5.346   2.639  -1.406  1.3571  0.1076 -0.7541
   20CHTO   O54 8184   5.369   2.508  -1.563  0.2918  0.2696 -0.3855
   20CHTO  H133 8185   5.456   2.543  -1.563  1.2644 -2.0812 -0.4486
   20CHTO   C75 8186   5.141   2.554  -1.457  0.2460  0.6581  0.2725
   20CHTO  H147 8187   5.107   2.574  -1.354  0.0426 -1.4082  0.6138
   20CHTO   N13 8188   5.102   2.661  -1.551  0.2178  0.5282  0.2542
   20CHTO  H139 8189   5.047   2.737  -1.498 -1.7276 -0.2349 -0.6398
   20CHTO  H140 8190   5.037   2.625  -1.629 -1.7089 -0.6515  2.3355
   20CHTO   C76 8191   5.073   2.413  -1.493 -0.7775 -0.0179  0.0819
   20CHTO  H148 8192   5.097   2.396  -1.598 -0.3245 -3.1028  0.6444
   20CHTO   O49 8193   5.121   2.311  -1.403 -0.0436  0.6278  0.0857
   20CHTO   C77 8194   5.264   2.298  -1.396 -0.0132  0.0754 -0.2334
   20CHTO  H149 8195   5.314   2.273  -1.489  1.6054 -0.0966  0.6629
   20CHTO   C88 8196   5.295   2.181  -1.298 -0.5791  0.0511 -0.3255
   20CHTO   O58 8197   5.222   2.055  -1.342 -0.2329  0.1650  0.3675
   20CHTO  H136 8198   5.137   2.069  -1.378  0.2930  1.5999 -0.3224
   20CHTO   O51 8199   4.921   2.423  -1.477  0.0806 -0.2221 -0.2884
   20CHTO   C78 8200   4.842   2.298  -1.471  0.2588 -0.3753 -0.1069
   20CHTO  H150 8201   4.902   2.206  -1.485  0.1001 -0.3865 -0.7620
   20CHTO   C80 8202   4.730   2.307  -1.583 -0.6240 -0.2594 -0.2429
   20CHTO  H152 8203   4.675   2.402  -1.573  1.1987  0.9224 -1.1261
   20CHTO   O55 8204   4.790   2.326  -1.715 -0.1558 -0.0333 -0.3746
   20CHTO  H134 8205   4.731   2.295  -1.781  0.5060  0.0463 -1.0141
   20CHTO   C84 8206   4.624   2.185  -1.571 -0.0244  0.9741  0.4738
   20CHTO  H156 8207   4.671   2.092  -1.603 -1.8109  0.7330 -1.5773
   20CHTO   N15 8208   4.503   2.193  -1.665  0.4724 -0.3592 -0.2051
   20CHTO  H143 8209   4.532   2.207  -1.767  1.4325 -0.7677  0.0037
   20CHTO  H144 8210   4.440   2.272  -1.631  0.4171  1.4576 -4.2984
   20CHTO   C87 8211   4.585   2.169  -1.422 -0.5515  0.0450  0.3058
   20CHTO  H159 8212   4.516   2.244  -1.386 -0.3999 -0.3592  1.4753
   20CHTO   O53 8213   4.692   2.162  -1.340  0.1945  0.7987 -0.6669
   20CHTO   C82 8214   4.773   2.281  -1.340 -0.2179 -0.0156  0.2894
   20CHTO  H154 8215   4.704   2.364  -1.324 -0.1748  0.5318 -2.2685
   20CHTO   C89 8216   4.860   2.270  -1.214  0.4477  0.0304 -0.4975
   20CHTO   O59 8217   4.908   2.402  -1.184  0.3821  0.8763 -0.2875
   20CHTO  H137 8218   4.974   2.416  -1.250  0.5073 -0.4811 -0.4773
   20CHTO   O45 8219   4.504   2.005  -1.394  0.3295 -0.5085 -0.5159
   20CHTO   C67 8220   4.446   2.008  -1.264  0.1644  0.2318  0.0878
   20CHTO  H124 8221   4.505   2.070  -1.196  1.0719 -0.3981 -0.1227
   20CHTO   C65 8222   4.297   2.071  -1.273 -0.0689 -0.7955  0.5476
   20CHTO  H122 8223   4.265   2.068  -1.377 -0.7268 -0.8659  0.7485
   20CHTO   O44 8224   4.309   2.208  -1.231  0.0530 -0.0154 -0.7344
   20CHTO  H102 8225   4.331   2.265  -1.302  1.9418  0.3214  0.0720
   20CHTO   C63 8226   4.194   1.984  -1.196 -0.6130 -0.3856  0.2887
   20CHTO  H120 8227   4.189   1.891  -1.252  1.3049 -0.1179 -0.3748
   20CHTO   N11 8228   4.051   2.037  -1.184 -0.2807  0.1285 -0.2604
   20CHTO  H108 8229   3.999   2.028  -1.277 -0.4179 -1.0716 -0.0785
   20CHTO  H109 8230   4.054   2.141  -1.158  0.2078  0.3728 -1.2762
   20CHTO   C61 8231   4.254   1.939  -1.058  0.0540 -0.3804  0.0425
   20CHTO  H118 8232   4.182   1.879  -1.002  0.6034 -0.3069  0.8340
   20CHTO   O40 8233   4.373   1.855  -1.083 -0.0194  0.0674  0.0198
   20CHTO   C68 8234   4.453   1.864  -1.208  0.0333 -0.6611  0.2054
   20CHTO  H125 8235   4.424   1.786  -1.282 -0.4018 -0.1097 -0.2113
   20CHTO   C72 8236   4.599   1.846  -1.173 -0.4577 -0.2808 -0.2520
   20CHTO   O48 8237   4.635   1.706  -1.150 -0.2140  0.1839  0.2314
   20CHTO  H105 8238   4.606   1.657  -1.225 -2.2377 -1.4691  2.0396
   20CHTO   O38 8239   4.304   2.048  -0.976 -0.1177 -0.2558  0.1870
   20CHTO   C55 8240   4.269   2.038  -0.833  0.1602  0.0694  0.2636
   20CHTO  H112 8241   4.203   1.952  -0.817 -0.0190  0.0482 -0.5379
   20CHTO   C56 8242   4.203   2.170  -0.791  0.2053  0.4405 -0.5603
   20CHTO  H113 8243   4.269   2.246  -0.834  0.7186  0.6754  0.6169
   20CHTO   O42 8244   4.078   2.186  -0.861  0.0295  0.6349  0.2727
   20CHTO  H100 8245   4.084   2.243  -0.935  2.9931  0.5515  0.3573
   20CHTO   C57 8246   4.180   2.186  -0.636 -0.3535  0.0747  0.0100
   20CHTO  H114 8247   4.102   2.120  -0.600  0.2283 -1.6096 -1.7417
   20CHTO   N10 8248   4.134   2.325  -0.599  0.6242 -0.1994 -0.3487
   20CHTO  H106 8249   4.084   2.377  -0.679  0.9317  0.3954 -0.1509
   20CHTO  H107 8250   4.068   2.321  -0.513  0.6681  0.4465 -0.2880
   20CHTO   C58 8251   4.314   2.161  -0.562  0.4858 -0.4822  0.3698
   20CHTO  H115 8252   4.395   2.230  -0.594  0.6894 -0.7240  0.3658
   20CHTO   O37 8253   4.358   2.033  -0.602 -0.4438 -0.3613 -0.1090
   20CHTO   C59 8254   4.395   2.014  -0.741  0.6714 -0.5962  0.1038
   20CHTO  H116 8255   4.471   2.086  -0.773 -0.5599  0.6990  0.0086
   20CHTO   C70 8256   4.436   1.868  -0.756 -0.5624 -0.6496  0.4495
   20CHTO   O46 8257   4.576   1.859  -0.727 -0.6002 -0.0143 -0.2134
   20CHTO  H103 8258   4.603   1.774  -0.698  2.1963 -0.1322 -2.9463
   20CHTO   O39 8259   4.297   2.155  -0.408  0.4193 -0.0697 -0.3042
   20CHTO   C60 8260   4.395   2.190  -0.311 -0.1908  0.3406 -0.0252
   20CHTO  H117 8261   4.492   2.188  -0.361 -0.0867  0.2805  0.1788
   20CHTO   C62 8262   4.378   2.331  -0.250 -0.0036 -0.4984 -0.2353
   20CHTO  H119 8263   4.394   2.411  -0.326  0.0590  1.3711  1.7012
   20CHTO   O43 8264   4.246   2.340  -0.204 -0.1880  0.0745 -0.3184
   20CHTO  H101 8265   4.237   2.421  -0.158  1.7966 -0.1296  0.4804
   20CHTO   C66 8266   4.498   2.360  -0.142  0.8789  0.7160 -0.0408
   20CHTO  H123 8267   4.594   2.365  -0.194  0.8393  0.9574 -0.0912
   20CHTO   N12 8268   4.479   2.485  -0.067 -0.6168 -0.0230  0.0047
   20CHTO  H110 8269   4.518   2.569  -0.123  0.1881 -1.3569 -1.4729
   20CHTO  H111 8270   4.536   2.485   0.025  1.1490  2.1822 -1.0347
   20CHTO   C69 8271   4.490   2.233  -0.050 -0.1409 -0.3380 -0.3189
   20CHTO  H126 8272   4.396   2.228   0.009  1.1499 -0.9390  1.7443
   20CHTO   O41 8273   4.493   2.109  -0.116 -0.1243  0.1426 -0.7286
   20CHTO   C64 8274   4.392   2.079  -0.205 -0.5679 -0.5709 -0.1801
   20CHTO  H121 8275   4.291   2.075  -0.158 -0.2380  1.0738  0.6724
   20CHTO   C71 8276   4.421   1.938  -0.275  0.7950  0.2501 -0.2476
   20CHTO   O47 8277   4.311   1.889  -0.348 -0.1184 -0.1212 -0.1950
   20CHTO  H104 8278   4.351   1.832  -0.411  1.4516 -0.9181  1.4818
   20CHTO   O34 8279   4.616   2.236   0.047  0.2023  0.0426 -0.3199
   20CHTO   C49 8280   4.762   2.234   0.103 -0.2745 -0.1803  0.7814
   20CHTO   H91 8281   4.744   2.250   0.210  2.1730 -1.1518  1.3783
   20CHTO   C47 8282   4.855   2.347   0.047  0.2851  0.8482 -0.1591
   20CHTO   H89 8283   4.946   2.334   0.110 -0.1240  2.6470  0.8295
   20CHTO   O33 8284   4.804   2.479   0.065  0.3980 -0.5037 -0.0725
   20CHTO   H70 8285   4.822   2.522   0.147 -0.4334 -0.5401  0.1334
   20CHTO   C45 8286   4.885   2.326  -0.108 -0.3239  0.5655  0.2915
   20CHTO   H87 8287   4.804   2.375  -0.163 -1.7427  0.3296  2.1362
   20CHTO    N8 8288   5.013   2.390  -0.150  0.8966  0.3924 -0.1776
   20CHTO   H75 8289   5.079   2.309  -0.179 -1.7245 -2.2035  0.7719
   20CHTO   H76 8290   5.060   2.452  -0.076 -1.1556  2.1472 -0.2979
   20CHTO   C43 8291   4.863   2.165  -0.147  0.0478 -0.1474 -0.1633
   20CHTO   H85 8292   4.760   2.146  -0.174  0.0642 -0.5519  0.0454
   20CHTO   O29 8293   4.907   2.084  -0.036 -0.4292  0.2293  0.3601
   20CHTO   C50 8294   4.816   2.094   0.070 -0.3761  0.1796  0.5830
   20CHTO   H92 8295   4.724   2.034   0.056  0.7128 -1.5867  0.7813
   20CHTO   C54 8296   4.875   2.024   0.198 -0.5253  0.5424 -0.4242
   20CHTO   O36 8297   4.890   1.890   0.159  0.0844  0.0125 -0.2243
   20CHTO   H72 8298   4.872   1.824   0.223  1.5545 -0.4147 -0.2416
   20CHTO   O27 8299   4.945   2.134  -0.264  0.2091 -0.3271  0.0014
   20CHTO   C37 8300   4.951   2.018  -0.344 -0.7547  1.2433 -0.0564
   20CHTO   H79 8301   4.900   1.928  -0.309 -1.2251  1.8615  0.8560
   20CHTO   C38 8302   4.880   2.052  -0.475  0.2468  0.4765 -0.5736
   20CHTO   H80 8303   4.891   2.159  -0.497  0.2002 -0.1436 -3.9611
   20CHTO   O31 8304   4.739   2.042  -0.441  0.2522 -0.3386 -0.6035
   20CHTO   H68 8305   4.703   2.128  -0.431 -0.1515 -0.5883  0.0904
   20CHTO   C39 8306   4.916   1.959  -0.604  0.8078  0.5117 -0.8801
   20CHTO   H81 8307   4.860   1.866  -0.593  2.3262 -0.2359  0.7259
   20CHTO    N7 8308   4.882   2.025  -0.738 -0.3311 -0.0305  0.1575
   20CHTO   H73 8309   4.775   2.020  -0.749 -0.6226  3.0453  1.3763
   20CHTO   H74 8310   4.928   2.122  -0.738 -1.4693  0.5269  1.8710
   20CHTO   C40 8311   5.074   1.922  -0.601 -0.0941  0.1764  0.6185
   20CHTO   H82 8312   5.130   2.012  -0.627  0.4092 -0.4651 -0.5629
   20CHTO   O26 8313   5.107   1.877  -0.477 -0.2924  0.2342 -0.7277
   20CHTO   C41 8314   5.099   1.979  -0.373  1.0799  0.4014  0.2451
   20CHTO   H83 8315   5.163   2.066  -0.399  1.3384  0.1029 -0.1193
   20CHTO   C52 8316   5.183   1.925  -0.249  0.5628 -0.0578  0.5920
   20CHTO   O35 8317   5.153   1.977  -0.104  0.0927 -0.1532 -0.0614
   20CHTO   H71 8318   5.061   1.967  -0.089  0.0505 -2.0209 -1.4679
   20CHTO   O28 8319   5.102   1.832  -0.704  0.1520  0.5405 -0.1622
   20CHTO   C42 8320   5.231   1.804  -0.769  0.6022 -0.4945 -0.2971
   20CHTO   H84 8321   5.219   1.716  -0.832 -1.3629 -0.2434 -0.2812
   20CHTO   C44 8322   5.341   1.763  -0.665 -0.5212  0.3835 -0.7118
   20CHTO   H86 8323   5.369   1.844  -0.597 -0.8946  0.5807 -0.7949
   20CHTO   O32 8324   5.277   1.659  -0.590 -0.3370  0.3621  0.4303
   20CHTO   H69 8325   5.242   1.594  -0.649  0.9217 -0.2550  0.3579
   20CHTO   C48 8326   5.473   1.720  -0.739  0.4811  1.0716  0.3807
   20CHTO   H90 8327   5.437   1.646  -0.811 -0.2708 -0.1569  1.9914
   20CHTO    N9 8328   5.573   1.649  -0.655  0.2551  0.2138 -0.5733
   20CHTO   H77 8329   5.647   1.610  -0.724  0.5816 -1.2777  0.5981
   20CHTO   H78 8330   5.621   1.722  -0.592 -1.4971 -0.7203  1.9109
   20CHTO   C51 8331   5.527   1.844  -0.823 -0.7801  0.0054 -0.4293
   20CHTO   H93 8332   5.549   1.928  -0.758  1.2495 -1.9098  1.4407
   20CHTO   O30 8333   5.427   1.868  -0.925 -0.3387 -0.3600 -0.6719
   20CHTO   C46 8334   5.282   1.919  -0.865 -0.3402  0.2584  0.0537
   20CHTO   H88 8335   5.296   2.013  -0.812 -1.5944  1.7116 -2.1219
   20CHTO   C53 8336   5.186   1.930  -0.987  0.4398  0.8205 -0.2025
   20CHTO   O72 8337   5.177   1.815  -1.076 -0.4995  0.3724  0.7559
   20CHTO  H199 8338   5.100   1.769  -1.050 -0.3475  0.2274  0.9483
   20CHTO   O22 8339   5.638   1.801  -0.905 -0.0606 -0.6060  0.0197
   20CHTO   C31 8340   5.751   1.887  -0.939 -0.1750 -0.2562 -0.2333
   20CHTO   H59 8341   5.795   1.842  -1.031 -0.0913  0.4690 -0.5575
   20CHTO   C29 8342   5.719   2.031  -0.978 -0.0964 -0.2475  0.1285
   20CHTO   H57 8343   5.661   2.077  -0.897 -0.0924 -0.6356  0.3562
   20CHTO   O21 8344   5.618   2.029  -1.082 -0.4241 -0.0663 -0.3058
   20CHTO   H37 8345   5.646   1.970  -1.149 -1.2597  0.4675 -1.1525
   20CHTO   C27 8346   5.846   2.118  -1.013  0.5639  0.2534  0.0573
   20CHTO   H55 8347   5.896   2.066  -1.095 -0.6962  0.7794 -1.0652
   20CHTO    N5 8348   5.820   2.259  -1.050 -0.3341  0.5200  0.0526
   20CHTO   H43 8349   5.908   2.302  -1.095  0.7107 -2.2871 -0.6979
   20CHTO   H44 8350   5.742   2.256  -1.125  1.6935  1.1907 -2.1667
   20CHTO   C25 8351   5.948   2.110  -0.892 -0.3300  0.3726 -0.1031
   20CHTO   H53 8352   5.909   2.164  -0.805  0.5381 -0.8193  1.0341
   20CHTO   O17 8353   5.981   1.973  -0.840  0.0984 -0.6619 -0.5367
   20CHTO   C32 8354   5.865   1.885  -0.825  0.1437 -0.0522 -0.6187
   20CHTO   H60 8355   5.817   1.921  -0.734 -1.3334  0.4114 -1.5589
   20CHTO   C36 8356   5.920   1.746  -0.791 -0.3962  0.0455 -0.0612
   20CHTO   O25 8357   5.989   1.750  -0.668  0.1365  0.3914  0.0029
   20CHTO   H40 8358   6.068   1.800  -0.656 -0.1967  0.9632 -0.1658
   20CHTO   O15 8359   6.090   2.189  -0.926 -0.2078 -0.0952  0.1600
   20CHTO   C19 8360   6.221   2.162  -0.862 -0.5964 -0.3864  0.6972
   20CHTO   H47 8361   6.289   2.234  -0.909 -2.0415  0.2305 -0.4722
   20CHTO   C20 8362   6.213   2.192  -0.707  0.4429  0.4095  0.0140
   20CHTO   H48 8363   6.141   2.125  -0.659  0.8005 -0.1354 -0.2046
   20CHTO   O19 8364   6.175   2.330  -0.696 -0.3191  0.3530  0.1035
   20CHTO   H35 8365   6.192   2.381  -0.772 -0.0222 -0.1104 -0.1482
   20CHTO   C21 8366   6.354   2.183  -0.635 -0.0914 -0.1787  0.6487
   20CHTO   H49 8367   6.425   2.245  -0.690  0.2562 -0.1421  1.1379
   20CHTO    N4 8368   6.351   2.216  -0.486 -0.4286  0.4230  0.3492
   20CHTO   H41 8369   6.414   2.296  -0.448 -1.3471  0.6502  1.4089
   20CHTO   H42 8370   6.253   2.226  -0.441 -0.0783 -0.5887  1.3618
   20CHTO   C22 8371   6.409   2.039  -0.679 -0.2428 -0.2425  0.1997
   20CHTO   H50 8372   6.342   1.970  -0.629  0.6296 -0.2833  1.3409
   20CHTO   O14 8373   6.406   1.999  -0.818  0.8227 -0.3083  0.0455
   20CHTO   C23 8374   6.278   2.022  -0.881 -0.0407  0.3806 -0.2571
   20CHTO   H51 8375   6.211   1.944  -0.842  0.8760 -0.4561 -0.3295
   20CHTO   C34 8376   6.301   1.984  -1.027 -0.6200 -0.9091  0.3256
   20CHTO   O23 8377   6.300   1.842  -1.055  0.6993 -0.2701  0.0369
   20CHTO   H38 8378   6.264   1.795  -0.983  0.0040  2.1185  1.2880
   20CHTO   O16 8379   6.543   2.017  -0.643  0.2516 -0.0808 -0.1180
   20CHTO   C24 8380   6.582   1.871  -0.573  0.1417 -0.4592  0.0313
   20CHTO   H52 8381   6.515   1.849  -0.490 -0.4129  0.5782 -0.1207
   20CHTO   C26 8382   6.723   1.872  -0.528  1.0023  0.0829 -0.2775
   20CHTO   H54 8383   6.790   1.885  -0.616 -1.7465  1.7507 -2.1807
   20CHTO   O20 8384   6.749   1.988  -0.446  0.4932 -0.5709 -0.9470
   20CHTO   H36 8385   6.831   1.983  -0.399  0.2641  0.1613 -0.4729
   20CHTO   C30 8386   6.758   1.740  -0.461  0.1667 -0.1440  0.0888
   20CHTO   H58 8387   6.695   1.725  -0.372 -0.4743  0.2647 -0.2895
   20CHTO    N6 8388   6.896   1.722  -0.403  0.3999 -0.0114  0.0108
   20CHTO   H45 8389   6.893   1.707  -0.296 -1.4849  0.3553  0.0400
   20CHTO   H46 8390   6.944   1.814  -0.432 -0.5619  0.2283 -0.8547
   20CHTO   C33 8391   6.712   1.620  -0.551 -0.2063  1.1223 -0.4690
   20CHTO   H61 8392   6.795   1.551  -0.565 -1.5660 -0.1377 -2.4798
   20CHTO   O18 8393   6.657   1.655  -0.676  0.4922  0.1935 -0.0719
   20CHTO   C28 8394   6.561   1.765  -0.679 -0.0016  0.6428  0.3819
   20CHTO   H56 8395   6.569   1.813  -0.776  1.2058 -0.0893  0.1051
   20CHTO   C35 8396   6.423   1.700  -0.691 -0.1058  0.6934 -0.8395
   20CHTO   O24 8397   6.399   1.631  -0.808 -0.3090  0.5292  0.4864
   20CHTO   H39 8398   6.312   1.598  -0.812  0.6911 -1.9422 -1.9980
   20CHTO    O9 8399   6.620   1.544  -0.476  0.0679  0.2850 -0.4675
   20CHTO   C13 8400   6.645   1.371  -0.455 -0.3419 -0.4181  0.5395
   20CHTO   H26 8401   6.755   1.355  -0.452 -0.3448 -0.4632  0.4105
   20CHTO   C11 8402   6.582   1.289  -0.575  0.5643 -0.0803  0.1468
   20CHTO   H24 8403   6.656   1.280  -0.655 -0.1018  0.7611 -0.5711
   20CHTO    O8 8404   6.470   1.362  -0.634 -0.1087  0.5121  0.0935
   20CHTO    H3 8405   6.492   1.432  -0.691  2.0003  1.3503  1.8630
   20CHTO    C9 8406   6.546   1.143  -0.516 -0.2826  0.3453 -0.1087
   20CHTO   H22 8407   6.637   1.109  -0.464  1.3185  0.5399 -2.6895
   20CHTO    N2 8408   6.530   1.043  -0.622 -0.2558 -0.0307 -0.7475
   20CHTO   H10 8409   6.436   1.053  -0.674 -0.6868 -3.0732 -0.6713
   20CHTO   H11 8410   6.620   1.056  -0.680 -0.9918 -1.7129 -2.3262
   20CHTO    C7 8411   6.431   1.163  -0.411 -0.1057  0.0006 -0.1924
   20CHTO   H20 8412   6.425   1.060  -0.369  0.0050  0.4721  0.9988
   20CHTO    O4 8413   6.465   1.266  -0.314  0.4022  0.5008 -0.0472
   20CHTO   C14 8414   6.593   1.329  -0.320 -0.2480 -0.1346  1.1291
   20CHTO   H27 8415   6.663   1.257  -0.273 -3.3745 -2.6361  2.1510
   20CHTO   C18 8416   6.582   1.452  -0.225 -0.4925 -0.5493 -0.2538
   20CHTO   O13 8417   6.539   1.408  -0.094 -0.0816  0.0473 -0.3485
   20CHTO    H7 8418   6.529   1.475  -0.029 -0.1816  0.3015 -0.6201
   20CHTO    O2 8419   6.291   1.203  -0.481 -0.7163 -0.6942 -0.3608
   20CHTO    C1 8420   6.181   1.209  -0.391 -0.1773  0.1326  0.1998
   20CHTO   H14 8421   6.205   1.210  -0.282  1.0077 -1.9771 -0.0099
   20CHTO    C2 8422   6.073   1.098  -0.404  0.4865  0.5810 -0.7720
   20CHTO   H15 8423   6.047   1.095  -0.511  2.1376 -0.1721 -1.1603
   20CHTO    O6 8424   6.130   0.966  -0.375 -0.2521  0.5911  0.0417
   20CHTO    H1 8425   6.199   0.948  -0.437 -1.2806  0.5344 -1.1137
   20CHTO    C3 8426   5.943   1.133  -0.317 -0.0818 -0.3001  0.5486
   20CHTO   H16 8427   5.954   1.134  -0.207 -0.2125 -0.3757  0.5627
   20CHTO    N1 8428   5.837   1.034  -0.350 -0.1961  0.0703 -1.0386
   20CHTO    H8 8429   5.874   0.950  -0.407  0.2039 -0.7808  0.4630
   20CHTO    H9 8430   5.744   1.073  -0.388 -0.4593 -0.4196 -0.9095
   20CHTO    C4 8431   5.906   1.277  -0.353  0.0823 -0.0123  0.2611
   20CHTO   H17 8432   5.875   1.273  -0.457 -1.4998 -3.2918  0.7741
   20CHTO    O1 8433   6.010   1.372  -0.336  0.4239 -0.1837 -0.4883
   20CHTO    C5 8434   6.114   1.345  -0.420 -0.7575  0.5405  0.4612
   20CHTO   H18 8435   6.082   1.336  -0.523 -0.4974  0.7889  0.3581
   20CHTO   C16 8436   6.208   1.469  -0.407  0.2409 -0.1342 -1.0410
   20CHTO   O11 8437   6.158   1.586  -0.463  0.2101  0.7038 -0.2984
   20CHTO    H5 8438   6.215   1.615  -0.532 -0.9972 -1.5539 -2.3460
   20CHTO    O3 8439   5.795   1.322  -0.277 -0.2479 -0.1893  0.2082
   20CHTO    C6 8440   5.699   1.411  -0.326 -0.4752  0.0158  0.3912
   20CHTO   H19 8441   5.711   1.431  -0.433 -1.3170  0.2827  0.3399
   20CHTO    C8 8442   5.552   1.362  -0.302  0.8372  0.3957 -0.3838
   20CHTO   H21 8443   5.540   1.337  -0.197 -0.0480 -0.1941 -0.6238
   20CHTO    O7 8444   5.544   1.236  -0.368  0.2950  0.3784 -0.1502
   20CHTO    H2 8445   5.557   1.247  -0.460 -1.9934 -1.1097 -0.7069
   20CHTO   C12 8446   5.449   1.465  -0.356 -0.1672 -0.1091 -0.4102
   20CHTO   H25 8447   5.471   1.482  -0.463 -1.3955 -0.8428 -0.7770
   20CHTO    N3 8448   5.309   1.424  -0.340 -0.6896 -0.4094  0.1372
   20CHTO   H12 8449   5.240   1.501  -0.371  0.8314  1.0245  0.2235
   20CHTO   H13 8450   5.281   1.405  -0.237 -1.9479  1.7744  0.2322
   20CHTO   C15 8451   5.480   1.601  -0.282 -0.6452  0.2709  0.1956
   20CHTO   H28 8452   5.454   1.590  -0.177  1.5359 -0.3427  0.7091
   20CHTO   O10 8453   5.409   1.719  -0.339 -0.2790  0.8348  0.9507
   20CHTO    H4 8454   5.443   1.716  -0.427 -2.4821 -1.6557  0.1060
   20CHTO    O5 8455   5.616   1.643  -0.290  0.3241  0.2794 -0.2204
   20CHTO   C10 8456   5.712   1.550  -0.256  0.9224  0.0442 -0.2603
   20CHTO   H23 8457   5.695   1.528  -0.150 -3.3462 -0.0683 -0.8900
   20CHTO   C17 8458   5.842   1.629  -0.269  0.1345  0.4193  0.2057
   20CHTO   O12 8459   5.866   1.661  -0.406 -0.1522 -0.0317 -0.4147
   20CHTO    H6 8460   5.894   1.585  -0.453 -0.0274  1.8078 -3.4699
   21GLOH   H03 8461   8.542   5.354   2.677  1.4635  1.8180 -1.0440
   21GLOH    O1 8462   8.617   5.297   2.651  0.2586 -0.1338 -0.2945
   21GLOH    C1 8463   8.680   5.372   2.542 -0.2121 -0.0356 -0.0033
   21GLOH   H02 8464   8.752   5.450   2.570  0.6506 -0.9794  0.4420
   21GLOH   H08 8465   8.609   5.429   2.482 -0.2107  0.7814  0.7527
   21GLOH    C2 8466   8.753   5.286   2.437  0.0157  0.3225 -0.1369
   21GLOH   H04 8467   8.836   5.241   2.492  0.7491 -0.2992 -1.7251
   21GLOH    O2 8468   8.655   5.198   2.381 -0.5737  0.0151 -0.0838
   21GLOH   H05 8469   8.625   5.147   2.458  0.2417 -1.0675 -0.4774
   21GLOH    C3 8470   8.796   5.379   2.321  0.9403 -0.2548 -0.4470
   21GLOH   H06 8471   8.708   5.426   2.279 -0.3016 -0.5925  1.6993
   21GLOH   H07 8472   8.841   5.323   2.239 -1.9110 -0.7963 -1.6976
   21GLOH    O3 8473   8.888   5.483   2.356  0.5227 -0.3679  0.3923
   21GLOH   H01 8474   8.874   5.566   2.305  0.4244  0.2936  1.4833
   22GLOH   H03 8475   2.316   4.408   0.254  1.2254  0.0446  0.6309
   22GLOH    O1 8476   2.271   4.379   0.335 -0.1378  0.7265  0.1288
   22GLOH    C1 8477   2.154   4.458   0.359  1.2028 -0.5090  0.4972
   22GLOH   H02 8478   2.161   4.556   0.310 -3.2303 -0.1540  0.3938
   22GLOH   H08 8479   2.127   4.483   0.462 -0.5964  1.2426 -0.3641
   22GLOH    C2 8480   2.030   4.401   0.285 -0.7091  0.7976  0.5400
   22GLOH   H04 8481   2.029   4.298   0.324 -2.3528 -0.3539 -2.4203
   22GLOH    O2 8482   1.905   4.457   0.324 -0.1990 -0.4680  0.1179
   22GLOH   H05 8483   1.872   4.407   0.400 -0.2432  2.0315  1.8068
   22GLOH    C3 8484   2.050   4.386   0.132  0.2748 -0.4986 -0.4780
   22GLOH   H06 8485   2.112   4.298   0.117 -0.3864 -0.8353 -1.2799
   22GLOH   H07 8486   2.111   4.470   0.099  0.1364  0.1115  0.7895
   22GLOH    O3 8487   1.936   4.367   0.053 -0.6376 -0.0466 -0.2391
   22GLOH   H01 8488   1.959   4.331  -0.035 -2.1291 -0.6748 -0.3926
   23GLOH   H03 8489   9.784   7.203   0.285  0.2478 -0.3343 -0.6459
   23GLOH    O1 8490   9.833   7.287   0.274 -0.4130  0.0182 -0.9162
   23GLOH    C1 8491   9.940   7.254   0.177  0.1146  0.1716  0.3242
   23GLOH   H02 8492   9.899   7.233   0.078  1.4838  1.3380 -0.5252
   23GLOH   H08 8493   9.995   7.165   0.209 -0.2979  0.0009  0.5560
   23GLOH    C2 8494  10.043   7.369   0.159 -0.3470 -0.1151  0.6809
   23GLOH   H04 8495  10.083   7.401   0.256 -0.7718  1.1521  0.4413
   23GLOH    O2 8496  10.146   7.324   0.068 -0.5833  0.9761 -0.0247
   23GLOH   H05 8497  10.233   7.356   0.097 -0.4093  0.0097  0.5452
   23GLOH    C3 8498   9.977   7.496   0.095 -0.0167  0.3129 -0.2042
   23GLOH   H06 8499   9.951   7.480  -0.010  3.1869 -2.8114 -0.6313
   23GLOH   H07 8500  10.053   7.574   0.097 -0.2002  0.4736  0.5317
   23GLOH    O3 8501   9.866   7.532   0.176 -0.0949 -0.1828 -0.3463
   23GLOH   H01 8502   9.827   7.450   0.212 -0.3341  0.3458  0.5892
   24GLOH   H03 8503   8.618   0.604   1.177  0.7839 -1.4509 -0.4978
   24GLOH    O1 8504   8.526   0.572   1.180  0.5415 -0.6925  0.2209
   24GLOH    C1 8505   8.457   0.611   1.059  0.5418  0.2554  0.5401
   24GLOH   H02 8506   8.535   0.665   1.004  2.4097 -1.6807  1.1944
   24GLOH   H08 8507   8.372   0.677   1.075  0.5028  0.1418  0.8077
   24GLOH    C2 8508   8.413   0.495   0.968 -0.1508 -1.2932 -0.2460
   24GLOH   H04 8509   8.491   0.420   0.946 -0.7857 -1.4281 -2.1517
   24GLOH    O2 8510   8.301   0.430   1.016  1.1920 -0.1846 -0.4711
   24GLOH   H05 8511   8.286   0.335   1.001  0.4090 -0.2183  0.4686
   24GLOH    C3 8512   8.378   0.560   0.832  1.2167  0.4685  0.2403
   24GLOH   H06 8513   8.304   0.639   0.845  2.0548  1.2827  0.1238
   24GLOH   H07 8514   8.326   0.480   0.780  0.1717 -0.4463  2.6128
   24GLOH    O3 8515   8.485   0.609   0.758  0.1261  0.6644  0.5947
   24GLOH   H01 8516   8.447   0.615   0.669  1.2017  0.7471  0.1320
   25GLOH   H03 8517   8.209   9.061   2.758 -0.4669 -1.7913 -0.4772
   25GLOH    O1 8518   8.180   9.119   2.686  0.6046 -0.7576 -0.1026
   25GLOH    C1 8519   8.053   9.182   2.707 -0.0393 -1.2685  0.7844
   25GLOH   H02 8520   8.060   9.289   2.726  0.1722 -0.9231 -1.1496
   25GLOH   H08 8521   8.011   9.142   2.800  1.0578 -0.9005  1.4398
   25GLOH    C2 8522   7.952   9.151   2.594  0.0043  0.1521 -0.4447
   25GLOH   H04 8523   7.945   9.042   2.584 -0.2664 -0.0366  1.4832
   25GLOH    O2 8524   7.826   9.216   2.633 -0.2958  0.0396 -0.0740
   25GLOH   H05 8525   7.776   9.247   2.555 -0.4396  0.8832  0.3494
   25GLOH    C3 8526   8.003   9.198   2.454  0.2220  0.0299  0.8380
   25GLOH   H06 8527   8.076   9.127   2.415 -0.7264 -0.5605  0.1275
   25GLOH   H07 8528   8.056   9.293   2.465 -1.9368  1.5854 -1.7556
   25GLOH    O3 8529   7.890   9.195   2.359  0.5038  0.1230  0.1590
   25GLOH   H01 8530   7.876   9.289   2.340  0.8392  0.1820  0.1995
   26GLOH   H03 8531   7.845   7.865   0.784  0.0143 -0.0988 -0.4428
   26GLOH    O1 8532   7.839   7.909   0.871  0.4442 -0.2250 -0.3503
   26GLOH    C1 8533   7.695   7.912   0.903 -0.9571 -0.5824  0.0928
   26GLOH   H02 8534   7.660   7.810   0.915 -1.0184 -0.4558  1.0414
   26GLOH   H08 8535   7.634   7.969   0.832  2.1545  2.8792  0.0535
   26GLOH    C2 8536   7.700   7.974   1.044 -0.1716  0.1515  0.2463
   26GLOH   H04 8537   7.739   8.076   1.037  1.5820 -0.3832  1.8296
   26GLOH    O2 8538   7.561   7.993   1.081 -0.7843  0.3019  0.0145
   26GLOH   H05 8539   7.513   7.919   1.041 -1.7500  0.8574  0.1358
   26GLOH    C3 8540   7.778   7.890   1.152  0.3637  0.2553 -0.3610
   26GLOH   H06 8541   7.719   7.801   1.172 -1.2208  1.7525  1.8880
   26GLOH   H07 8542   7.766   7.947   1.245 -1.7491  1.1408 -1.1326
   26GLOH    O3 8543   7.908   7.854   1.103 -0.1590  0.2256 -0.1427
   26GLOH   H01 8544   7.896   7.859   1.007  2.3988 -0.3241 -0.5205
   27GLOH   H03 8545   8.588   6.058   2.723  0.4978  4.8980  0.1260
   27GLOH    O1 8546   8.603   6.041   2.817 -0.2252 -0.0561 -0.5284
   27GLOH    C1 8547   8.738   5.992   2.832 -0.4654  0.7926 -0.5375
   27GLOH   H02 8548   8.804   6.079   2.824 -1.2545  1.2088 -2.8101
   27GLOH   H08 8549   8.768   5.927   2.750 -2.4065 -1.4053  0.4351
   27GLOH    C2 8550   8.754   5.929   2.970 -0.1165 -0.1785  0.0481
   27GLOH   H04 8551   8.692   5.838   2.973  1.9073 -1.5573  1.8324
   27GLOH    O2 8552   8.886   5.882   2.997  0.0828  0.1236 -0.2061
   27GLOH   H05 8553   8.950   5.955   3.001  0.5043 -0.1911 -1.2093
   27GLOH    C3 8554   8.720   6.022   3.088  0.9166  0.3046 -0.1112
   27GLOH   H06 8555   8.799   6.096   3.098 -1.1836  2.2786  2.4741
   27GLOH   H07 8556   8.713   5.958   3.176  1.8322 -0.3211 -0.4884
   27GLOH    O3 8557   8.595   6.088   3.068  0.1662 -0.3111  0.5003
   27GLOH   H01 8558   8.566   6.072   2.976 -1.3420 -0.1686  0.9414
   28GLOH   H03 8559   8.360   6.555   3.742 -0.4992 -2.3068  1.5464
   28GLOH    O1 8560   8.291   6.621   3.762  0.2948 -0.7726 -0.6310
   28GLOH    C1 8561   8.154   6.574   3.738  0.1621  0.6329 -0.3957
   28GLOH   H02 8562   8.094   6.663   3.718  0.6055  0.9528 -0.3177
   28GLOH   H08 8563   8.113   6.530   3.829 -0.3416  1.7961 -0.0467
   28GLOH    C2 8564   8.134   6.454   3.635 -0.5152 -0.0937 -0.8821
   28GLOH   H04 8565   8.033   6.414   3.657 -0.7171  1.9437  2.1645
   28GLOH    O2 8566   8.120   6.497   3.500 -0.2870  0.5395  0.2799
   28GLOH   H05 8567   8.028   6.515   3.477 -0.6271 -0.9349  0.4455
   28GLOH    C3 8568   8.241   6.347   3.661  0.4445  0.2087  0.0797
   28GLOH   H06 8569   8.229   6.270   3.585  0.1684  2.4985 -2.2688
   28GLOH   H07 8570   8.218   6.301   3.757 -2.0351 -0.6711 -0.9040
   28GLOH    O3 8571   8.379   6.394   3.674  0.2644  0.3210 -0.2186
   28GLOH   H01 8572   8.437   6.325   3.709  0.4415  0.6695  0.1724
   29GLOH   H03 8573   3.358   4.774   4.648 -0.5333  1.3773  0.0423
   29GLOH    O1 8574   3.262   4.790   4.653 -0.7385  0.1048  0.3000
   29GLOH    C1 8575   3.246   4.905   4.744 -0.6075  0.8876 -0.0374
   29GLOH   H02 8576   3.142   4.931   4.762 -0.9285  0.2394 -0.9539
   29GLOH   H08 8577   3.295   4.987   4.692 -0.4188 -0.2149 -1.6110
   29GLOH    C2 8578   3.308   4.894   4.884  0.3518 -0.4619  0.2001
   29GLOH   H04 8579   3.293   4.791   4.919  0.5026  0.1021  1.9662
   29GLOH    O2 8580   3.449   4.918   4.883  0.3711  0.1593  0.0773
   29GLOH   H05 8581   3.493   4.858   4.819 -1.6744 -0.4192 -0.8306
   29GLOH    C3 8582   3.242   4.989   4.981  0.5176  0.2151 -0.7523
   29GLOH   H06 8583   3.228   5.081   4.923 -0.8802  0.6139  0.1991
   29GLOH   H07 8584   3.315   5.022   5.055 -0.1138  0.2194 -0.1228
   29GLOH    O3 8585   3.119   4.935   5.040  0.1287  0.0707  0.3148
   29GLOH   H01 8586   3.051   5.002   5.059  0.8006  0.9476 -0.2967
   30GLOH   H03 8587   1.624   4.152   3.877 -0.3278 -0.8354 -2.2496
   30GLOH    O1 8588   1.631   4.074   3.935  0.0831  0.4189 -0.5442
   30GLOH    C1 8589   1.603   4.124   4.067 -0.1271  0.1411 -0.1005
   30GLOH   H02 8590   1.501   4.161   4.072 -0.0116  0.3368  0.7973
   30GLOH   H08 8591   1.655   4.217   4.090 -1.5597  0.8210  0.4528
   30GLOH    C2 8592   1.625   4.026   4.182 -0.3699 -0.0743  0.0042
   30GLOH   H04 8593   1.581   4.067   4.274  1.3039  0.5492  0.5536
   30GLOH    O2 8594   1.558   3.906   4.159 -0.2792 -0.3842  0.2584
   30GLOH   H05 8595   1.585   3.837   4.223  1.0856 -0.3214 -0.2240
   30GLOH    C3 8596   1.776   3.984   4.185  0.4995  0.1654  0.1005
   30GLOH   H06 8597   1.807   3.945   4.088  1.6234  0.4780  0.3276
   30GLOH   H07 8598   1.794   3.919   4.270 -1.0668  0.7570  0.9217
   30GLOH    O3 8599   1.862   4.101   4.210  0.0095 -0.0268 -0.4841
   30GLOH   H01 8600   1.827   4.138   4.293  0.1532  0.3144 -0.5747
   31GLOH   H03 8601   4.659   4.544   1.879 -0.5899  1.1425  2.0905
   31GLOH    O1 8602   4.682   4.485   1.953 -0.1594 -0.4712  0.7230
   31GLOH    C1 8603   4.570   4.453   2.041  0.0970 -1.0150 -0.3803
   31GLOH   H02 8604   4.533   4.539   2.097 -1.1223 -1.8144  0.0640
   31GLOH   H08 8605   4.605   4.386   2.119 -1.3192 -0.7413  0.5079
   31GLOH    C2 8606   4.437   4.398   1.973 -0.2656  0.5480 -0.5916
   31GLOH   H04 8607   4.360   4.406   2.050 -0.0474 -2.0918 -0.0719
   31GLOH    O2 8608   4.406   4.481   1.871  0.2156 -0.8233  0.0469
   31GLOH   H05 8609   4.389   4.573   1.899 -0.5593 -0.2560 -2.1815
   31GLOH    C3 8610   4.451   4.249   1.921 -0.4272 -0.5090 -0.4828
   31GLOH   H06 8611   4.477   4.188   2.007 -1.2724 -0.0438  0.1131
   31GLOH   H07 8612   4.538   4.235   1.857 -0.4481  1.3969 -0.9619
   31GLOH    O3 8613   4.336   4.213   1.855  0.6653 -0.4143  0.3441
   31GLOH   H01 8614   4.280   4.142   1.890  1.0074 -0.3733  0.9715
   32GLOH   H03 8615   1.667   2.151   2.612  1.0942 -1.7253 -2.1607
   32GLOH    O1 8616   1.711   2.092   2.677  0.2637 -0.5832 -0.5054
   32GLOH    C1 8617   1.608   2.017   2.745 -0.1395  0.8684  0.1964
   32GLOH   H02 8618   1.595   2.049   2.848 -0.6751 -0.0671  0.4208
   32GLOH   H08 8619   1.636   1.912   2.749  1.4108  1.1432 -2.1854
   32GLOH    C2 8620   1.473   2.014   2.665  1.1505 -0.1211  0.0240
   32GLOH   H04 8621   1.501   1.978   2.564  1.7700  1.9537 -0.5839
   32GLOH    O2 8622   1.365   1.931   2.720 -0.2070 -0.0165  0.9356
   32GLOH   H05 8623   1.404   1.845   2.746  2.6442  1.2164  0.9336
   32GLOH    C3 8624   1.420   2.149   2.626  0.8514  0.0955 -0.7773
   32GLOH   H06 8625   1.395   2.209   2.714 -1.8670 -1.8547 -0.1628
   32GLOH   H07 8626   1.329   2.142   2.567  0.6977 -0.1854 -0.5037
   32GLOH    O3 8627   1.510   2.226   2.552 -0.7054 -0.1745  0.2331
   32GLOH   H01 8628   1.499   2.209   2.457 -1.9121 -0.1373  0.3576
   33GLOH   H03 8629   3.218   0.971   3.329  0.1164  0.3914 -0.4770
   33GLOH    O1 8630   3.301   0.950   3.283 -0.1513 -0.5302 -0.5502
   33GLOH    C1 8631   3.291   0.963   3.143 -0.1753  0.4654  0.0792
   33GLOH   H02 8632   3.386   0.982   3.093 -1.2374 -0.9081 -2.5916
   33GLOH   H08 8633   3.224   1.047   3.120  1.1970  1.2311 -1.1909
   33GLOH    C2 8634   3.233   0.839   3.075  0.1129 -0.3289 -0.5119
   33GLOH   H04 8635   3.231   0.851   2.966 -1.6169  0.1984 -0.4310
   33GLOH    O2 8636   3.312   0.720   3.105  0.1029 -0.2887  0.0236
   33GLOH   H05 8637   3.284   0.640   3.057  1.2162  0.1879 -1.4764
   33GLOH    C3 8638   3.083   0.817   3.106  0.1822 -0.1734 -0.0094
   33GLOH   H06 8639   3.067   0.828   3.213  0.4000  1.4879 -0.1344
   33GLOH   H07 8640   3.067   0.716   3.068 -1.5150 -0.6581  1.9505
   33GLOH    O3 8641   2.995   0.899   3.021  0.4036  0.2616  0.1139
   33GLOH   H01 8642   2.936   0.954   3.076  0.6938  2.7003 -1.9342
   34GLOH   H03 8643   6.101   9.697   0.581 -0.2317  2.5607  2.7234
   34GLOH    O1 8644   6.195   9.713   0.563 -0.3797  0.3115 -0.4647
   34GLOH    C1 8645   6.258   9.584   0.615 -0.3133 -0.2111  0.4583
   34GLOH   H02 8646   6.302   9.613   0.710  0.3187  0.1342  0.0687
   34GLOH   H08 8647   6.338   9.551   0.549 -0.4142  2.7784 -1.3026
   34GLOH    C2 8648   6.156   9.469   0.640 -0.3449  0.4178  0.1844
   34GLOH   H04 8649   6.106   9.438   0.547  0.3412  0.7983 -0.3155
   34GLOH    O2 8650   6.221   9.352   0.699  0.0925  0.1722  0.5257
   34GLOH   H05 8651   6.317   9.350   0.683 -0.3630  1.9554 -3.0954
   34GLOH    C3 8652   6.049   9.524   0.734  0.3926 -0.3952  0.1107
   34GLOH   H06 8653   6.099   9.551   0.827 -0.7489  1.3732  0.2349
   34GLOH   H07 8654   5.979   9.442   0.754 -1.5427  0.9623 -0.8826
   34GLOH    O3 8655   5.976   9.642   0.681  0.0595 -0.6390 -0.5098
   34GLOH   H01 8656   5.911   9.680   0.743 -1.5987 -3.1538 -0.6197
   35GLOH   H03 8657   4.557   2.695   2.866  0.1502 -1.3097 -0.3524
   35GLOH    O1 8658   4.640   2.666   2.908  0.4192 -0.3342 -0.1820
   35GLOH    C1 8659   4.691   2.561   2.820  0.1628 -0.2878 -0.0614
   35GLOH   H02 8660   4.615   2.552   2.743  1.4543 -2.1246 -1.1503
   35GLOH   H08 8661   4.691   2.466   2.872  1.1316 -2.0216 -3.1200
   35GLOH    C2 8662   4.836   2.586   2.760  0.5356  0.4917 -0.4117
   35GLOH   H04 8663   4.892   2.497   2.728 -1.4698 -0.8993 -0.1348
   35GLOH    O2 8664   4.810   2.638   2.632  0.3917 -0.7629  0.3867
   35GLOH   H05 8665   4.797   2.733   2.644  1.4537 -0.5318 -0.2915
   35GLOH    C3 8666   4.936   2.671   2.839 -0.0900  0.4095 -0.1920
   35GLOH   H06 8667   5.009   2.714   2.771 -0.0664  2.3056  1.0173
   35GLOH   H07 8668   4.992   2.617   2.916  1.1025  0.1727 -1.2148
   35GLOH    O3 8669   4.869   2.777   2.910 -0.5229 -0.2570 -0.4872
   35GLOH   H01 8670   4.776   2.759   2.932 -0.3940 -1.1880 -0.7037
   36GLOH   H03 8671   3.997   8.320   0.993  0.2362 -1.0405 -1.5332
   36GLOH    O1 8672   4.092   8.298   0.997  0.2782 -0.6203  0.1389
   36GLOH    C1 8673   4.155   8.383   1.092  0.0805  0.1457  0.5017
   36GLOH   H02 8674   4.264   8.377   1.089  0.0241 -1.1348  0.6881
   36GLOH   H08 8675   4.132   8.358   1.195  0.7652  1.5578  0.9985
   36GLOH    C2 8676   4.133   8.534   1.064  0.6973  0.1155  0.2976
   36GLOH   H04 8677   4.165   8.558   0.962  0.3070 -0.6520 -0.0077
   36GLOH    O2 8678   3.995   8.574   1.074 -0.0255 -0.4005 -0.1523
   36GLOH   H05 8679   3.943   8.557   0.994 -2.4159  1.1816  1.0062
   36GLOH    C3 8680   4.218   8.622   1.158  0.3086 -0.1095 -0.3533
   36GLOH   H06 8681   4.209   8.725   1.122  2.2054  0.2397  0.1230
   36GLOH   H07 8682   4.324   8.610   1.134  0.7218  2.3546  0.1343
   36GLOH    O3 8683   4.196   8.605   1.298  0.6785  0.0332 -0.0838
   36GLOH   H01 8684   4.124   8.664   1.326 -0.6007 -1.4612 -0.1145
   37GLOH   H03 8685   3.031   2.660   4.358 -0.3904  0.2139  1.3112
   37GLOH    O1 8686   2.935   2.664   4.374 -0.5237  0.1112  0.5847
   37GLOH    C1 8687   2.885   2.581   4.480  0.4899 -0.5660 -0.4105
   37GLOH   H02 8688   2.776   2.574   4.477  0.3703  0.4606  0.9250
   37GLOH   H08 8689   2.899   2.635   4.574 -1.9485 -0.4789 -0.0502
   37GLOH    C2 8690   2.942   2.432   4.485 -0.5299 -0.1275 -0.4225
   37GLOH   H04 8691   2.938   2.379   4.389  1.0109 -2.1528  0.5957
   37GLOH    O2 8692   3.077   2.436   4.531 -0.2375  0.0579 -0.4470
   37GLOH   H05 8693   3.069   2.484   4.615 -1.7381 -0.5139 -0.2423
   37GLOH    C3 8694   2.859   2.349   4.584  0.1373  0.1320 -0.3497
   37GLOH   H06 8695   2.862   2.378   4.689  1.8419 -1.5714  0.0979
   37GLOH   H07 8696   2.899   2.248   4.585 -1.0946 -0.3521  1.0913
   37GLOH    O3 8697   2.717   2.339   4.539 -0.3411  0.5407 -0.6607
   37GLOH   H01 8698   2.673   2.281   4.603  1.3628 -3.2852 -2.7952
   38GLOH   H03 8699   8.667   5.731   1.340  0.7273 -0.2664 -1.1090
   38GLOH    O1 8700   8.761   5.731   1.363  0.5523  0.0787 -0.3460
   38GLOH    C1 8701   8.789   5.604   1.429 -0.1668 -0.8265  0.1455
   38GLOH   H02 8702   8.897   5.589   1.432 -0.0650 -0.1992 -0.1718
   38GLOH   H08 8703   8.750   5.520   1.371 -0.0417 -0.9692  0.2652
   38GLOH    C2 8704   8.721   5.615   1.560  0.5023 -0.6874 -0.8263
   38GLOH   H04 8705   8.625   5.665   1.539  0.7574  0.7249  1.2734
   38GLOH    O2 8706   8.700   5.478   1.616 -0.4669 -0.1675 -0.2210
   38GLOH   H05 8707   8.785   5.435   1.630  0.6626  1.9732 -0.2794
   38GLOH    C3 8708   8.797   5.715   1.653  0.4474  0.4563  0.2788
   38GLOH   H06 8709   8.823   5.809   1.603  1.6124  0.8815  1.6238
   38GLOH   H07 8710   8.892   5.671   1.684  0.4807  1.2051  1.3104
   38GLOH    O3 8711   8.718   5.751   1.764 -0.0262 -0.3847 -0.2153
   38GLOH   H01 8712   8.651   5.817   1.740  1.5681  1.6754  0.8114
   39GLOH   H03 8713   7.463   5.444   2.308 -0.6721 -0.8940  0.7638
   39GLOH    O1 8714   7.383   5.466   2.257  0.0626 -0.1297 -0.0650
   39GLOH    C1 8715   7.394   5.411   2.120  0.2492 -0.0493 -0.2221
   39GLOH   H02 8716   7.296   5.416   2.073  0.8671 -0.9929 -1.6329
   39GLOH   H08 8717   7.424   5.307   2.127 -2.8954 -1.0254 -0.4562
   39GLOH    C2 8718   7.491   5.489   2.028  0.0967  0.0923  0.2017
   39GLOH   H04 8719   7.577   5.522   2.088 -0.0195  1.4163 -0.3593
   39GLOH    O2 8720   7.522   5.395   1.927 -0.2671  0.0021 -0.1262
   39GLOH   H05 8721   7.613   5.402   1.895 -0.8497 -0.0248 -1.8335
   39GLOH    C3 8722   7.421   5.617   1.953  0.2674 -0.4021 -0.3493
   39GLOH   H06 8723   7.341   5.654   2.017  1.0148 -1.3729  1.1688
   39GLOH   H07 8724   7.371   5.581   1.862 -1.1791 -0.2268  0.3533
   39GLOH    O3 8725   7.513   5.722   1.927  0.2484 -0.4414 -0.9735
   39GLOH   H01 8726   7.530   5.772   2.009 -0.3833 -1.0575 -0.4510
   40GLOH   H03 8727   2.641   6.594   0.201  0.4050 -0.6164  1.5018
   40GLOH    O1 8728   2.691   6.524   0.155 -0.1043 -0.1019  0.1481
   40GLOH    C1 8729   2.631   6.394   0.182  0.6466 -0.2832  0.0857
   40GLOH   H02 8730   2.708   6.321   0.158  0.0913 -0.7739 -0.2121
   40GLOH   H08 8731   2.547   6.387   0.112  1.1379  1.2468 -0.6804
   40GLOH    C2 8732   2.577   6.383   0.327  0.0576 -0.1344 -0.5893
   40GLOH   H04 8733   2.497   6.456   0.347 -1.2943 -1.9483  0.7584
   40GLOH    O2 8734   2.518   6.250   0.342 -0.1732  0.0447  0.0256
   40GLOH   H05 8735   2.438   6.251   0.397  0.9872  1.0791  1.7301
   40GLOH    C3 8736   2.696   6.407   0.422  0.1218  0.4358  0.1999
   40GLOH   H06 8737   2.760   6.481   0.374 -0.9882  1.1558 -0.1795
   40GLOH   H07 8738   2.750   6.312   0.420  0.5069  0.6723 -0.4773
   40GLOH    O3 8739   2.661   6.437   0.557  0.4848  0.1663 -0.0571
   40GLOH   H01 8740   2.591   6.378   0.592  1.4401 -0.4252  0.8655
   41GLOH   H03 8741   0.428   4.896   1.395 -1.0052  2.7240  2.1086
   41GLOH    O1 8742   0.469   4.836   1.460 -0.1904  0.1676 -0.6933
   41GLOH    C1 8743   0.369   4.771   1.543 -0.0687 -0.0065 -0.6013
   41GLOH   H02 8744   0.413   4.704   1.617 -2.3851 -2.3104 -1.2093
   41GLOH   H08 8745   0.307   4.714   1.474  0.0418  0.3874 -1.0260
   41GLOH    C2 8746   0.270   4.865   1.611  0.0861 -0.1810  0.3948
   41GLOH   H04 8747   0.320   4.959   1.636  0.0071  0.6136 -2.2970
   41GLOH    O2 8748   0.176   4.911   1.512 -0.0126 -0.6019 -0.3872
   41GLOH   H05 8749   0.096   4.935   1.562  1.1543  0.2205  1.1124
   41GLOH    C3 8750   0.213   4.795   1.738  0.2819  0.0743  0.2498
   41GLOH   H06 8751   0.158   4.867   1.798  0.9817  0.9787 -0.1848
   41GLOH   H07 8752   0.303   4.774   1.795  0.5180  0.9072  0.1827
   41GLOH    O3 8753   0.145   4.675   1.717  0.5678  0.0872 -0.7364
   41GLOH   H01 8754   0.053   4.685   1.687  0.4673 -0.0303 -0.4686
   42GLOH   H03 8755   4.730   3.584   0.733  2.8010  1.6787 -2.3330
   42GLOH    O1 8756   4.724   3.675   0.767  0.0385  0.7343 -0.1203
   42GLOH    C1 8757   4.605   3.683   0.848  0.7051 -0.1453  0.7687
   42GLOH   H02 8758   4.622   3.683   0.956 -1.5676  2.2885  1.1771
   42GLOH   H08 8759   4.553   3.591   0.821 -0.6698  1.0417 -0.7557
   42GLOH    C2 8760   4.517   3.801   0.827 -0.2901 -0.3821 -0.1570
   42GLOH   H04 8761   4.423   3.780   0.879 -0.9361 -0.7508 -1.4555
   42GLOH    O2 8762   4.583   3.921   0.879  1.0984  0.1652 -0.0814
   42GLOH   H05 8763   4.679   3.922   0.865  1.2819 -2.4417  0.6912
   42GLOH    C3 8764   4.484   3.816   0.676  0.1863  0.0970 -0.1698
   42GLOH   H06 8765   4.571   3.853   0.620 -0.0515 -0.8571 -1.1960
   42GLOH   H07 8766   4.399   3.883   0.659 -0.1467 -0.2509  0.1235
   42GLOH    O3 8767   4.437   3.689   0.629 -0.5306  0.4620 -0.1827
   42GLOH   H01 8768   4.352   3.678   0.676  0.0179  1.3078  1.0380
   43GLOH   H03 8769   0.265   1.616   2.191  2.0232  2.2512  0.8868
   43GLOH    O1 8770   0.210   1.677   2.138 -0.1455 -0.2556  0.1275
   43GLOH    C1 8771   0.281   1.787   2.076  0.5811  0.5038  0.2471
   43GLOH   H02 8772   0.344   1.752   1.994  0.6175 -1.5255  1.1020
   43GLOH   H08 8773   0.339   1.843   2.149  2.9224 -1.8421  0.2940
   43GLOH    C2 8774   0.175   1.877   2.010  0.8483  0.5215 -0.6679
   43GLOH   H04 8775   0.095   1.893   2.083 -0.3403  0.0845 -1.8501
   43GLOH    O2 8776   0.218   2.013   1.979 -0.0382  0.0211 -0.3201
   43GLOH   H05 8777   0.222   2.069   2.058  1.4641 -0.1798 -0.2314
   43GLOH    C3 8778   0.111   1.810   1.884 -0.2674 -0.0626  0.3030
   43GLOH   H06 8779   0.183   1.794   1.804 -0.6312 -0.6981  0.0912
   43GLOH   H07 8780   0.040   1.882   1.844 -1.9866 -2.2126 -0.6771
   43GLOH    O3 8781   0.069   1.678   1.922 -0.2903 -0.0728 -0.3199
   43GLOH   H01 8782   0.122   1.646   1.997  1.4530 -3.1641 -2.7737
   44GLOH   H03 8783   4.395   8.938   2.649  1.1331 -3.4051 -3.3265
   44GLOH    O1 8784   4.474   8.986   2.619  0.3754  0.2488  0.2290
   44GLOH    C1 8785   4.524   9.055   2.735  0.6607 -0.8026 -0.4032
   44GLOH   H02 8786   4.628   9.084   2.726  0.7502 -0.9516  0.1143
   44GLOH   H08 8787   4.514   8.988   2.820  2.8537  0.3974  0.8371
   44GLOH    C2 8788   4.434   9.174   2.773 -0.5052 -0.0942 -0.2213
   44GLOH   H04 8789   4.328   9.144   2.772 -0.0552 -1.8193  0.5189
   44GLOH    O2 8790   4.466   9.219   2.902 -0.1317 -0.0987  0.5049
   44GLOH   H05 8791   4.416   9.171   2.970  1.1862 -1.5617  0.4432
   44GLOH    C3 8792   4.455   9.296   2.680 -0.3343 -0.1893 -0.4200
   44GLOH   H06 8793   4.466   9.248   2.583  1.6660 -0.4348 -0.0969
   44GLOH   H07 8794   4.551   9.346   2.693 -0.2518 -0.9132  2.2931
   44GLOH    O3 8795   4.344   9.381   2.692  0.4872 -0.6055 -0.2656
   44GLOH   H01 8796   4.277   9.340   2.635 -0.3272 -1.9172  1.6021
   45GLOH   H03 8797   7.036   0.224   2.028 -1.9332  0.2784  1.5503
   45GLOH    O1 8798   7.018   0.129   2.021  0.0995 -0.0254  0.0057
   45GLOH    C1 8799   7.061   0.072   1.889 -0.1267 -0.2954  0.1797
   45GLOH   H02 8800   7.078  -0.035   1.899 -0.2592 -0.3599 -0.3074
   45GLOH   H08 8801   7.159   0.116   1.873  0.0470 -0.4587  0.7620
   45GLOH    C2 8802   6.989   0.105   1.760 -0.3154 -0.6700 -1.1085
   45GLOH   H04 8803   7.049   0.046   1.688 -1.9957 -0.6740 -2.5510
   45GLOH    O2 8804   6.855   0.053   1.760 -0.3147  0.4304  0.2173
   45GLOH   H05 8805   6.871  -0.042   1.775  1.4097  0.6333 -0.2457
   45GLOH    C3 8806   6.996   0.254   1.727  0.5537 -0.1452  0.1101
   45GLOH   H06 8807   6.938   0.310   1.800 -2.3597 -2.5613 -0.2531
   45GLOH   H07 8808   6.938   0.263   1.634 -1.1776 -3.2517  0.8088
   45GLOH    O3 8809   7.131   0.304   1.721 -0.2599 -0.1993  0.0330
   45GLOH   H01 8810   7.137   0.401   1.721  0.0603 -0.2161  1.5388
   46GLOH   H03 8811   4.600   5.793   1.771 -0.4040  1.0289 -0.5252
   46GLOH    O1 8812   4.559   5.832   1.851  0.4730 -0.4755  0.6841
   46GLOH    C1 8813   4.415   5.853   1.819  0.4539 -0.2964 -0.4928
   46GLOH   H02 8814   4.370   5.761   1.783  1.2351 -2.0426  2.7934
   46GLOH   H08 8815   4.398   5.923   1.738  1.9269  1.1208  0.3776
   46GLOH    C2 8816   4.331   5.889   1.941  0.2662  0.4981  0.2527
   46GLOH   H04 8817   4.377   5.979   1.984  1.5922  0.4029 -0.9462
   46GLOH    O2 8818   4.197   5.925   1.904  0.1875  0.0272 -0.2285
   46GLOH   H05 8819   4.161   5.980   1.976  3.2257  0.1477  1.2910
   46GLOH    C3 8820   4.335   5.777   2.046 -0.9274 -0.0839  0.3250
   46GLOH   H06 8821   4.256   5.708   2.019  0.0209 -1.2635  0.5516
   46GLOH   H07 8822   4.308   5.819   2.143  2.1965 -0.7745  1.5556
   46GLOH    O3 8823   4.465   5.724   2.073  0.2459 -0.0672 -0.7312
   46GLOH   H01 8824   4.524   5.767   2.008  1.7135 -0.1745  0.4838
   47GLOH   H03 8825   1.350   5.153   1.614 -2.1417 -0.9511  0.6269
   47GLOH    O1 8826   1.319   5.239   1.581  0.0652 -0.3103  0.1183
   47GLOH    C1 8827   1.265   5.231   1.448  0.8504  0.2624 -0.2967
   47GLOH   H02 8828   1.157   5.243   1.459  1.0631  2.2625 -0.2314
   47GLOH   H08 8829   1.279   5.133   1.402 -0.1594 -0.4825  0.9525
   47GLOH    C2 8830   1.323   5.331   1.343  0.0403 -0.2746 -0.5653
   47GLOH   H04 8831   1.425   5.295   1.322 -0.6327 -1.0070 -2.7223
   47GLOH    O2 8832   1.244   5.335   1.230 -0.1289 -0.2528  0.2195
   47GLOH   H05 8833   1.296   5.372   1.157 -0.2057  1.6425  1.1026
   47GLOH    C3 8834   1.334   5.468   1.407 -1.3017  0.7716  0.7476
   47GLOH   H06 8835   1.381   5.463   1.504 -1.4776  1.6490  0.8897
   47GLOH   H07 8836   1.234   5.510   1.416 -2.1250 -0.3242 -2.4050
   47GLOH    O3 8837   1.398   5.568   1.317  0.5023  0.1051  0.0520
   47GLOH   H01 8838   1.488   5.532   1.304  0.0421 -1.1633  0.3573
   48GLOH   H03 8839   6.505   9.436   0.694  2.0744 -0.0158 -0.5190
   48GLOH    O1 8840   6.487   9.355   0.643  0.3590  0.1352 -0.2083
   48GLOH    C1 8841   6.556   9.364   0.517  0.4298 -0.1088  0.0419
   48GLOH   H02 8842   6.488   9.391   0.436  0.2365 -0.0335  0.2265
   48GLOH   H08 8843   6.584   9.260   0.498  0.6915 -0.1164  0.4772
   48GLOH    C2 8844   6.683   9.449   0.498  0.1243  0.6643  0.0633
   48GLOH   H04 8845   6.647   9.553   0.496  0.3193  0.7215 -1.6896
   48GLOH    O2 8846   6.774   9.431   0.606  0.1142  0.0594  0.1535
   48GLOH   H05 8847   6.724   9.469   0.680  0.5020 -1.6263  1.3010
   48GLOH    C3 8848   6.753   9.427   0.360 -0.6882  1.0499  0.0370
   48GLOH   H06 8849   6.770   9.322   0.338 -0.4744  0.4421  2.8658
   48GLOH   H07 8850   6.847   9.482   0.366 -0.3636  0.6144 -0.9141
   48GLOH    O3 8851   6.681   9.481   0.248  0.0862  0.4133  0.4473
   48GLOH   H01 8852   6.715   9.436   0.169 -3.8731  0.2182 -1.2485
   49GLOH   H03 8853   5.680   8.715   3.510 -2.4604 -0.7175  0.5708
   49GLOH    O1 8854   5.710   8.622   3.505 -0.4139 -0.0444 -0.0833
   49GLOH    C1 8855   5.803   8.604   3.613 -0.5886  0.2327 -0.0085
   49GLOH   H02 8856   5.771   8.632   3.714  2.7351  3.0712  0.3562
   49GLOH   H08 8857   5.884   8.676   3.599 -1.2604  0.9467 -0.2843
   49GLOH    C2 8858   5.854   8.460   3.626 -0.3409 -0.2074  0.0291
   49GLOH   H04 8859   5.906   8.427   3.535  0.4751  0.7616  0.1348
   49GLOH    O2 8860   5.942   8.457   3.743  0.0571 -0.0439 -0.1865
   49GLOH   H05 8861   6.020   8.514   3.734 -0.5196  0.3492 -3.2195
   49GLOH    C3 8862   5.733   8.367   3.661  0.0270 -0.7337  0.6551
   49GLOH   H06 8863   5.704   8.368   3.767  1.4198  0.9090  1.0265
   49GLOH   H07 8864   5.756   8.261   3.649 -0.9067 -1.0869  1.7693
   49GLOH    O3 8865   5.618   8.393   3.580 -0.5596 -0.4290 -0.3006
   49GLOH   H01 8866   5.633   8.479   3.538 -0.6183 -0.8852 -1.2607
   50GLOH   H03 8867   8.158   6.747   0.089  0.2528 -0.1520 -0.0102
   50GLOH    O1 8868   8.185   6.724   0.179  0.9457 -0.0646 -0.1935
   50GLOH    C1 8869   8.209   6.835   0.264 -0.2043 -0.5299  0.6108
   50GLOH   H02 8870   8.263   6.807   0.354 -0.7946  1.0741  1.5000
   50GLOH   H08 8871   8.112   6.868   0.302  0.3498 -0.5819  2.1337
   50GLOH    C2 8872   8.275   6.956   0.197  0.8115 -0.2031  0.1662
   50GLOH   H04 8873   8.377   6.922   0.176 -0.0465 -1.2785 -2.4942
   50GLOH    O2 8874   8.214   6.997   0.068 -0.4151  0.0060 -0.4732
   50GLOH   H05 8875   8.186   6.914   0.026 -0.9646 -0.4822  0.8274
   50GLOH    C3 8876   8.277   7.070   0.298 -0.3470  0.5192  0.3419
   50GLOH   H06 8877   8.179   7.117   0.293  0.9403  3.0141 -3.0530
   50GLOH   H07 8878   8.340   7.143   0.247 -0.1507  0.6438  0.7587
   50GLOH    O3 8879   8.314   7.054   0.431  0.5163 -0.0917  0.6406
   50GLOH   H01 8880   8.405   7.088   0.446  0.1912  0.2908  1.8737
   51GLOH   H03 8881   2.262   6.109   3.749 -0.2980  0.2763  0.6607
   51GLOH    O1 8882   2.202   6.164   3.695  0.7153  0.0629 -0.6996
   51GLOH    C1 8883   2.108   6.227   3.792 -0.0610 -0.0628  0.4481
   51GLOH   H02 8884   2.060   6.319   3.758  0.4561  0.4978  1.1988
   51GLOH   H08 8885   2.165   6.264   3.877 -0.2169  1.3167 -0.0274
   51GLOH    C2 8886   2.009   6.120   3.846 -1.2068  0.0525  0.4123
   51GLOH   H04 8887   2.038   6.083   3.946  0.7755 -2.3197 -0.9918
   51GLOH    O2 8888   1.880   6.190   3.865 -0.4511 -0.5241  0.6068
   51GLOH   H05 8889   1.806   6.148   3.818 -0.0081  2.6304 -3.2006
   51GLOH    C3 8890   1.995   5.994   3.764  0.5934 -0.0348 -0.7606
   51GLOH   H06 8891   2.099   5.962   3.761  0.6523 -0.3539  2.8297
   51GLOH   H07 8892   1.971   6.010   3.659  3.0450  2.0497 -1.0308
   51GLOH    O3 8893   1.913   5.888   3.824 -0.4801 -0.6249  0.2635
   51GLOH   H01 8894   1.842   5.867   3.760 -1.6629 -0.3595  1.4431
   52GLOH   H03 8895   6.112   0.546   2.192  0.6420  0.3777  1.2575
   52GLOH    O1 8896   6.043   0.600   2.236 -0.2053  0.1309  0.2451
   52GLOH    C1 8897   5.921   0.524   2.263  0.2032 -0.7761 -0.6206
   52GLOH   H02 8898   5.924   0.498   2.369  0.7530  1.1523 -0.1369
   52GLOH   H08 8899   5.914   0.429   2.210  0.8809 -1.0271 -0.2649
   52GLOH    C2 8900   5.791   0.598   2.232 -0.2688  0.1378 -0.5648
   52GLOH   H04 8901   5.786   0.688   2.295 -0.2323 -0.5870  0.4881
   52GLOH    O2 8902   5.791   0.640   2.090 -0.3582  0.5831  0.2036
   52GLOH   H05 8903   5.869   0.697   2.079  0.1854  0.2960  2.3514
   52GLOH    C3 8904   5.660   0.517   2.261  0.4316 -0.6044  0.6695
   52GLOH   H06 8905   5.652   0.436   2.187 -0.8322  1.3246 -1.3761
   52GLOH   H07 8906   5.580   0.588   2.240  2.3190  1.1888 -0.6754
   52GLOH    O3 8907   5.662   0.460   2.394 -0.0656  0.0025 -0.4340
   52GLOH   H01 8908   5.615   0.375   2.397  1.9741 -1.1378  2.0531
   53GLOH   H03 8909   7.445   9.951   2.128 -0.9819  0.6907 -1.7307
   53GLOH    O1 8910   7.527  10.001   2.114  0.1249 -0.6625 -0.1784
   53GLOH    C1 8911   7.557  10.015   1.979 -0.5989 -0.3780  0.0046
   53GLOH   H02 8912   7.510   9.931   1.928 -1.5773  0.4715 -0.5242
   53GLOH   H08 8913   7.665  10.025   1.970 -0.7959  0.9226 -1.2962
   53GLOH    C2 8914   7.487  10.144   1.926 -0.6156  0.3977 -0.2767
   53GLOH   H04 8915   7.382  10.124   1.951 -0.5739 -0.3961 -0.6951
   53GLOH    O2 8916   7.529  10.267   1.989 -0.6691  0.4517  0.8206
   53GLOH   H05 8917   7.519  10.254   2.085  0.3285 -0.6949  0.7822
   53GLOH    C3 8918   7.485  10.146   1.774 -0.1546  0.3534 -0.1214
   53GLOH   H06 8919   7.410  10.220   1.746 -0.1470  0.3807 -0.0683
   53GLOH   H07 8920   7.455  10.044   1.749  0.8487  0.1033 -0.3261
   53GLOH    O3 8921   7.613  10.184   1.719  0.2780  0.4515 -0.4832
   53GLOH   H01 8922   7.631  10.278   1.736 -1.8518  0.7136  0.5979
   54GLOH   H03 8923   2.854   6.924   4.774 -0.0485  1.9835  0.8778
   54GLOH    O1 8924   2.877   6.934   4.680  0.4492 -0.5320  0.6988
   54GLOH    C1 8925   2.743   6.940   4.620 -0.6036  0.2299 -0.3832
   54GLOH   H02 8926   2.752   6.990   4.524  0.0460  2.9726  1.0624
   54GLOH   H08 8927   2.669   6.999   4.675  0.9345  2.3741 -0.5603
   54GLOH    C2 8928   2.675   6.801   4.591  0.6998 -0.0534 -0.7458
   54GLOH   H04 8929   2.667   6.741   4.684  0.9487 -1.7445 -1.7884
   54GLOH    O2 8930   2.543   6.828   4.540 -0.0344 -0.0599 -0.4946
   54GLOH   H05 8931   2.545   6.863   4.449  1.3545 -0.3670 -0.5821
   54GLOH    C3 8932   2.763   6.718   4.494  1.0771 -0.8396 -0.6265
   54GLOH   H06 8933   2.865   6.712   4.532  0.6120  0.6391  0.8946
   54GLOH   H07 8934   2.780   6.773   4.402 -0.6446  2.5492  1.0005
   54GLOH    O3 8935   2.708   6.590   4.471  0.5932 -0.0040  0.2476
   54GLOH   H01 8936   2.738   6.533   4.544  0.3875  0.1192  0.4273
   55GLOH   H03 8937   3.378   2.382   4.678  1.2108 -1.1070  0.2426
   55GLOH    O1 8938   3.443   2.416   4.614  0.2050  0.3149 -0.0460
   55GLOH    C1 8939   3.571   2.350   4.624 -0.0220  0.3985 -0.0458
   55GLOH   H02 8940   3.622   2.384   4.715  0.8320  0.2435 -0.4601
   55GLOH   H08 8941   3.628   2.378   4.536  1.0544 -1.3354  0.0739
   55GLOH    C2 8942   3.553   2.199   4.623  0.3326  0.4446 -0.1501
   55GLOH   H04 8943   3.484   2.187   4.538  1.5020 -0.8143 -0.9354
   55GLOH    O2 8944   3.677   2.137   4.596  0.1269  0.2892  0.1046
   55GLOH   H05 8945   3.669   2.080   4.518  2.4229  2.0149 -1.4535
   55GLOH    C3 8946   3.496   2.151   4.760 -0.5066  0.0219 -0.0252
   55GLOH   H06 8947   3.567   2.164   4.842  0.3641  0.7619 -0.8678
   55GLOH   H07 8948   3.488   2.042   4.761 -1.1742  0.0560 -1.0226
   55GLOH    O3 8949   3.370   2.212   4.781  0.2628 -0.4158  0.2903
   55GLOH   H01 8950   3.364   2.239   4.874  1.8546  2.0605 -0.2573
   56GLOH   H03 8951   8.425   6.098   1.343  0.2355  0.1344 -0.2326
   56GLOH    O1 8952   8.509   6.088   1.390 -0.1795  0.2092  0.5466
   56GLOH    C1 8953   8.611   6.100   1.291  0.4771  0.4476  0.4857
   56GLOH   H02 8954   8.590   6.175   1.215  0.0466 -0.6947 -0.5515
   56GLOH   H08 8955   8.626   6.006   1.237 -1.2138  1.1659 -1.3306
   56GLOH    C2 8956   8.749   6.129   1.353 -0.0715  0.2654 -0.3480
   56GLOH   H04 8957   8.775   6.048   1.423  0.3664  1.6251  1.1060
   56GLOH    O2 8958   8.861   6.142   1.266  0.1036 -0.0242 -0.1843
   56GLOH   H05 8959   8.943   6.153   1.315 -1.6787  1.9903  2.4305
   56GLOH    C3 8960   8.742   6.250   1.460  0.2818 -0.0587 -0.0364
   56GLOH   H06 8961   8.696   6.331   1.403 -0.2401  0.7399  1.4826
   56GLOH   H07 8962   8.835   6.281   1.507  0.2426 -0.8539  0.5861
   56GLOH    O3 8963   8.648   6.207   1.567 -0.9937  0.0771 -0.0344
   56GLOH   H01 8964   8.575   6.161   1.523  0.3515 -1.8530 -0.2795
   57GLOH   H03 8965   9.254   8.058   3.477  0.5500 -0.3279  1.4121
   57GLOH    O1 8966   9.180   8.084   3.535 -0.9422 -0.3392 -0.4446
   57GLOH    C1 8967   9.074   7.983   3.529  0.4342 -0.1577  0.7569
   57GLOH   H02 8968   9.062   7.956   3.424  1.2559 -1.9921  1.1126
   57GLOH   H08 8969   8.984   8.037   3.558  0.5271 -0.7271  2.1477
   57GLOH    C2 8970   9.097   7.867   3.624  0.0318  0.3802  0.1375
   57GLOH   H04 8971   9.005   7.806   3.628 -0.1101  0.6483  0.9914
   57GLOH    O2 8972   9.204   7.784   3.579  0.5852  0.7166  0.1766
   57GLOH   H05 8973   9.291   7.826   3.587  0.2913  1.1630  1.1493
   57GLOH    C3 8974   9.130   7.926   3.763  0.5590  0.0265 -0.6115
   57GLOH   H06 8975   9.224   7.983   3.765  1.3888 -1.3200 -0.8808
   57GLOH   H07 8976   9.145   7.839   3.827  0.6138 -0.5491 -1.4047
   57GLOH    O3 8977   9.016   7.994   3.821 -0.1684  0.6112  0.7571
   57GLOH   H01 8978   9.045   8.056   3.891  1.1435  1.7593 -0.7857
   58GLOH   H03 8979   8.934   9.632   1.601 -0.4490 -0.2826  0.4672
   58GLOH    O1 8980   8.953   9.720   1.563 -0.5236 -0.4958 -0.0794
   58GLOH    C1 8981   8.907   9.816   1.656  0.0244  0.3854 -0.7060
   58GLOH   H02 8982   8.956   9.913   1.652  1.5246 -0.0012  4.1891
   58GLOH   H08 8983   8.920   9.783   1.759  1.6793 -0.6047 -1.2243
   58GLOH    C2 8984   8.757   9.836   1.639 -0.6683 -0.1880  0.0697
   58GLOH   H04 8985   8.725   9.919   1.703 -0.3833 -0.0436  0.0236
   58GLOH    O2 8986   8.730   9.879   1.505 -0.3791  0.6731  0.1156
   58GLOH   H05 8987   8.729   9.797   1.453 -0.3614 -0.6635  2.1634
   58GLOH    C3 8988   8.672   9.707   1.664 -0.6572  0.3353  0.1841
   58GLOH   H06 8989   8.715   9.619   1.616 -1.9513  0.1257 -0.5952
   58GLOH   H07 8990   8.584   9.715   1.601 -0.7100  1.5314  0.3973
   58GLOH    O3 8991   8.635   9.695   1.805 -0.1125 -0.1900  0.4195
   58GLOH   H01 8992   8.610   9.603   1.827 -1.5835  0.6946  2.5584
   59GLOH   H03 8993   4.982   9.614   2.135  1.7589 -1.1614  0.4991
   59GLOH    O1 8994   4.945   9.596   2.224 -0.5909 -0.2697 -0.2554
   59GLOH    C1 8995   4.968   9.457   2.264  0.0884 -0.3563 -0.0299
   59GLOH   H02 8996   4.897   9.388   2.218 -0.3554 -1.0489  1.6800
   59GLOH   H08 8997   4.959   9.447   2.372  0.8212 -0.3197  0.0331
   59GLOH    C2 8998   5.116   9.424   2.236 -0.2048 -0.5072 -0.5638
   59GLOH   H04 8999   5.184   9.484   2.298 -1.4048 -0.2892  0.5692
   59GLOH    O2 9000   5.144   9.286   2.264  0.3208  0.0684  0.5052
   59GLOH   H05 9001   5.127   9.266   2.358  0.5646 -0.4726  0.4372
   59GLOH    C3 9002   5.148   9.460   2.091  0.5321  0.0160 -0.6997
   59GLOH   H06 9003   5.079   9.418   2.018 -1.1674  0.3863  0.6613
   59GLOH   H07 9004   5.246   9.416   2.070  0.5455 -1.5227  2.3880
   59GLOH    O3 9005   5.157   9.603   2.072  0.3527  0.1140 -0.0872
   59GLOH   H01 9006   5.236   9.626   2.020  1.5376 -1.1223  1.1595
   60GLOH   H03 9007   8.744   8.305   1.078  1.1078  2.0054  0.3925
   60GLOH    O1 9008   8.829   8.267   1.109  0.1552  0.0421  0.6980
   60GLOH    C1 9009   8.933   8.359   1.073 -0.8093 -0.5178 -0.1973
   60GLOH   H02 9010   8.966   8.332   0.972  1.9268  0.4537  0.3982
   60GLOH   H08 9011   9.021   8.335   1.132 -1.6476 -1.0604  0.8373
   60GLOH    C2 9012   8.905   8.503   1.090  0.2244 -0.3573  0.0512
   60GLOH   H04 9013   8.888   8.516   1.197 -2.2799 -0.3049 -0.3230
   60GLOH    O2 9014   9.023   8.572   1.045  0.1651  0.1312 -0.4319
   60GLOH   H05 9015   8.990   8.651   1.001  3.6620  3.6548  2.8643
   60GLOH    C3 9016   8.775   8.554   1.022  0.1527 -0.3235 -0.5526
   60GLOH   H06 9017   8.800   8.550   0.916  3.7827 -2.3660  0.3044
   60GLOH   H07 9018   8.753   8.658   1.047 -0.6908 -0.0878 -2.2057
   60GLOH    O3 9019   8.663   8.473   1.049  0.1006  0.2326 -0.2079
   60GLOH   H01 9020   8.584   8.504   1.002  1.7876  2.7390 -1.5429
   61GLOH   H03 9021   3.747   4.594   0.855  0.6105  0.3477 -0.9461
   61GLOH    O1 9022   3.808   4.518   0.862  0.3839  0.2179 -0.3420
   61GLOH    C1 9023   3.936   4.566   0.822 -0.9085 -0.4156  0.1757
   61GLOH   H02 9024   3.939   4.557   0.713 -1.3388  0.0097  0.1275
   61GLOH   H08 9025   4.018   4.507   0.863 -0.1754 -0.0250 -0.6994
   61GLOH    C2 9026   3.959   4.716   0.859 -0.2890  0.2394  0.1156
   61GLOH   H04 9027   3.973   4.731   0.967  0.7130  1.1567 -0.1314
   61GLOH    O2 9028   4.080   4.749   0.790  0.0820 -0.4425  0.3052
   61GLOH   H05 9029   4.136   4.779   0.864  0.4926 -1.7099  0.5160
   61GLOH    C3 9030   3.844   4.800   0.813 -0.1309  0.6747  0.5586
   61GLOH   H06 9031   3.833   4.782   0.706 -1.7297  0.1860  0.8062
   61GLOH   H07 9032   3.887   4.900   0.826 -0.0539  0.4517  2.0600
   61GLOH    O3 9033   3.720   4.766   0.882 -0.5617  0.3806 -0.1426
   61GLOH   H01 9034   3.716   4.813   0.968 -0.5803 -0.4751  0.3344
   62GLOH   H03 9035   4.276   1.653   0.527 -1.0085 -4.2017  0.8443
   62GLOH    O1 9036   4.240   1.642   0.437  0.0059 -0.3112 -0.1033
   62GLOH    C1 9037   4.266   1.761   0.357  0.1942 -0.0323 -0.7239
   62GLOH   H02 9038   4.265   1.845   0.426 -2.8255  0.1382 -0.8732
   62GLOH   H08 9039   4.191   1.793   0.284 -0.5874 -0.5840 -0.1686
   62GLOH    C2 9040   4.405   1.749   0.289  0.6594  0.7815 -0.2421
   62GLOH   H04 9041   4.407   1.662   0.222 -1.1303  1.1420 -0.8110
   62GLOH    O2 9042   4.437   1.865   0.208  0.7623  0.1014  0.3781
   62GLOH   H05 9043   4.392   1.866   0.122  2.5087 -1.8187 -0.5793
   62GLOH    C3 9044   4.518   1.726   0.396 -0.0815  0.2167  0.2849
   62GLOH   H06 9045   4.615   1.725   0.347 -0.3450  1.6375 -0.3069
   62GLOH   H07 9046   4.499   1.635   0.453  0.4996 -0.6597 -0.8958
   62GLOH    O3 9047   4.525   1.842   0.484  0.1131 -0.8366 -0.6172
   62GLOH   H01 9048   4.527   1.918   0.424  0.6719 -1.1275 -0.9592
   63GLOH   H03 9049   7.684   6.991   2.630  1.0623  1.2176  0.4178
   63GLOH    O1 9050   7.657   7.013   2.539 -0.0918 -0.5391  0.3130
   63GLOH    C1 9051   7.760   6.977   2.444 -0.0341 -0.1447 -0.0444
   63GLOH   H02 9052   7.802   6.881   2.473  1.1953  0.4722  0.2490
   63GLOH   H08 9053   7.845   7.045   2.433 -0.1828 -0.0907 -0.9269
   63GLOH    C2 9054   7.690   6.966   2.311  0.4965  0.5227  0.0281
   63GLOH   H04 9055   7.638   7.059   2.286 -0.3103 -0.3148 -1.4432
   63GLOH    O2 9056   7.798   6.937   2.219  0.0308 -0.3991  0.2467
   63GLOH   H05 9057   7.856   7.015   2.217  1.4850 -1.4669 -0.5799
   63GLOH    C3 9058   7.583   6.862   2.316 -0.0241  0.0435  0.3811
   63GLOH   H06 9059   7.614   6.763   2.349 -3.6139 -1.3007 -0.0521
   63GLOH   H07 9060   7.535   6.866   2.218 -2.2734  3.1151  1.5375
   63GLOH    O3 9061   7.471   6.907   2.397 -1.2422 -0.1287  0.0309
   63GLOH   H01 9062   7.504   6.972   2.462 -2.0145 -1.3714  1.7008
   64GLOH   H03 9063   0.946   9.075   2.647 -1.5156 -0.2025  2.0253
   64GLOH    O1 9064   0.990   9.155   2.680 -0.6411  0.2624 -0.1672
   64GLOH    C1 9065   0.888   9.234   2.735  0.4267  0.1873  0.5804
   64GLOH   H02 9066   0.863   9.199   2.835 -2.0328 -0.2654 -0.1667
   64GLOH   H08 9067   0.796   9.213   2.681  1.7636  0.5158 -1.9007
   64GLOH    C2 9068   0.928   9.383   2.739 -0.2881  0.0452 -0.5725
   64GLOH   H04 9069   0.845   9.435   2.790 -0.9821 -0.2181 -1.4217
   64GLOH    O2 9070   1.054   9.415   2.799  0.4105  0.5651  0.3002
   64GLOH   H05 9071   1.127   9.366   2.757 -0.7399  1.0658 -2.3781
   64GLOH    C3 9072   0.910   9.426   2.591 -0.1386  0.0946 -0.0883
   64GLOH   H06 9073   0.970   9.368   2.521 -0.9488  2.7308 -3.1122
   64GLOH   H07 9074   0.951   9.528   2.586  1.1804 -0.4162  0.1375
   64GLOH    O3 9075   0.769   9.426   2.565  0.3334  0.1676 -0.4118
   64GLOH   H01 9076   0.736   9.506   2.610 -2.5577 -0.6430 -1.0189
   65GLOH   H03 9077   3.026   2.263   3.928  0.5978  0.4835  0.2894
   65GLOH    O1 9078   3.039   2.293   3.836  0.5262 -0.3265  0.0072
   65GLOH    C1 9079   3.037   2.435   3.808 -0.1095  0.0871 -0.0797
   65GLOH   H02 9080   3.131   2.474   3.771 -1.6683  1.7651 -2.4081
   65GLOH   H08 9081   3.005   2.495   3.893 -1.1615 -0.4004 -0.1201
   65GLOH    C2 9082   2.937   2.461   3.700 -0.1302  0.4319 -0.7267
   65GLOH   H04 9083   2.837   2.434   3.737 -0.3366 -1.3326 -2.5384
   65GLOH    O2 9084   2.931   2.598   3.671 -0.0844 -0.1310 -0.5159
   65GLOH   H05 9085   2.852   2.639   3.712  0.6988 -1.5948  2.6265
   65GLOH    C3 9086   2.984   2.373   3.582  0.3716 -0.5803  0.9070
   65GLOH   H06 9087   3.090   2.387   3.562  0.4656  1.4604  2.6840
   65GLOH   H07 9088   2.936   2.409   3.491 -1.0279 -2.2784  0.9432
   65GLOH    O3 9089   2.959   2.230   3.606  0.1055 -0.0650 -0.1527
   65GLOH   H01 9090   2.995   2.205   3.693  1.2085  0.3721 -0.4694
   66GLOH   H03 9091   5.595   0.127   1.214  2.9513 -0.7051  0.8336
   66GLOH    O1 9092   5.589   0.042   1.165 -0.0955 -0.2109  0.2526
   66GLOH    C1 9093   5.529  -0.061   1.252  0.6929 -1.1750 -0.3666
   66GLOH   H02 9094   5.424  -0.067   1.224  0.6820  1.9917 -1.2056
   66GLOH   H08 9095   5.532  -0.046   1.360 -1.2462 -0.8557 -0.3401
   66GLOH    C2 9096   5.596  -0.193   1.223 -0.4766  0.7608 -0.1822
   66GLOH   H04 9097   5.698  -0.167   1.255 -0.8942  0.6427  1.2737
   66GLOH    O2 9098   5.542  -0.298   1.303 -0.1829  0.0790 -0.0214
   66GLOH   H05 9099   5.594  -0.380   1.296  1.3078  0.8830  1.3419
   66GLOH    C3 9100   5.591  -0.232   1.072  0.2012 -0.2085 -0.4291
   66GLOH   H06 9101   5.484  -0.232   1.050 -0.3333  0.5282  1.9818
   66GLOH   H07 9102   5.640  -0.327   1.054 -0.1838 -1.0099  2.4691
   66GLOH    O3 9103   5.661  -0.130   0.994 -0.0800  0.5278  0.0334
   66GLOH   H01 9104   5.659  -0.049   1.047 -0.6513  0.5926 -0.0840
   67GLOH   H03 9105   3.754   6.030   2.133 -1.3541  0.7332 -0.6437
   67GLOH    O1 9106   3.843   6.050   2.098 -0.7685 -0.2205  0.3081
   67GLOH    C1 9107   3.890   6.174   2.153  0.8497  0.7898  0.1632
   67GLOH   H02 9108   3.874   6.181   2.260  0.3949 -1.1056  0.2392
   67GLOH   H08 9109   3.811   6.237   2.111 -1.1286 -1.0251  1.0687
   67GLOH    C2 9110   4.033   6.205   2.115 -0.3912  0.2094  0.2693
   67GLOH   H04 9111   4.041   6.191   2.006  0.0802 -1.2418  0.4766
   67GLOH    O2 9112   4.069   6.341   2.161 -0.3224 -0.2677 -0.3824
   67GLOH   H05 9113   4.025   6.397   2.094 -0.3778  1.6638  1.2169
   67GLOH    C3 9114   4.117   6.098   2.185 -0.0415 -0.6033 -0.0721
   67GLOH   H06 9115   4.106   6.105   2.294 -0.1592  2.3250 -0.2289
   67GLOH   H07 9116   4.221   6.119   2.162 -0.3729  1.5832  0.3075
   67GLOH    O3 9117   4.091   5.968   2.136  0.1373 -0.4968  0.7744
   67GLOH   H01 9118   3.994   5.962   2.134  0.1282  0.2657 -1.4113
   68GLOH   H03 9119   9.463   8.309   3.444 -0.4493  0.6776 -1.2168
   68GLOH    O1 9120   9.511   8.258   3.377  0.1109 -0.6300  0.1657
   68GLOH    C1 9121   9.650   8.250   3.417  0.4253 -0.2341 -0.3101
   68GLOH   H02 9122   9.702   8.340   3.383 -2.1013  0.2138 -3.2765
   68GLOH   H08 9123   9.695   8.171   3.357 -0.4707 -1.4664  0.6245
   68GLOH    C2 9124   9.692   8.219   3.566 -0.0058 -0.0491  0.1283
   68GLOH   H04 9125   9.628   8.138   3.604 -2.5499 -0.9575 -5.6283
   68GLOH    O2 9126   9.829   8.189   3.579  0.2402  0.1476 -0.0233
   68GLOH   H05 9127   9.845   8.108   3.528  0.0615 -1.1060  1.8555
   68GLOH    C3 9128   9.652   8.344   3.642  0.7403 -0.2111 -0.0925
   68GLOH   H06 9129   9.715   8.427   3.608 -0.1686  0.0622 -1.1423
   68GLOH   H07 9130   9.680   8.331   3.747  0.4760 -0.1814 -0.0177
   68GLOH    O3 9131   9.514   8.372   3.629 -0.2638  0.0783  0.1573
   68GLOH   H01 9132   9.475   8.436   3.691 -2.3741  0.2790 -1.2998
   69GLOH   H03 9133   2.815   4.172   0.408  0.4455  1.2236 -0.0711
   69GLOH    O1 9134   2.877   4.210   0.344  0.7925  0.3250 -0.2748
   69GLOH    C1 9135   2.955   4.111   0.266  0.8439 -0.4010 -0.2924
   69GLOH   H02 9136   3.016   4.164   0.193  1.4398 -1.0073 -0.2431
   69GLOH   H08 9137   2.881   4.047   0.217 -0.0515 -1.9383  2.9096
   69GLOH    C2 9138   3.044   4.022   0.362 -0.4161  0.6363 -0.3220
   69GLOH   H04 9139   2.986   3.985   0.448  1.7658  0.7117  1.2199
   69GLOH    O2 9140   3.111   3.918   0.299 -0.8888 -0.2042 -0.7299
   69GLOH   H05 9141   3.155   3.855   0.358 -0.7673  1.1779  0.6825
   69GLOH    C3 9142   3.157   4.110   0.405 -0.4389  0.4712  0.1388
   69GLOH   H06 9143   3.208   4.150   0.317 -0.8511 -0.1682 -0.3893
   69GLOH   H07 9144   3.233   4.052   0.458 -0.4874 -0.3233 -0.6604
   69GLOH    O3 9145   3.119   4.229   0.478  0.5164  0.2493 -0.4779
   69GLOH   H01 9146   3.028   4.255   0.455 -0.1187  0.0954  1.6775
   70GLOH   H03 9147   2.703   3.803   0.064 -2.6269  1.3698 -0.8899
   70GLOH    O1 9148   2.723   3.782  -0.029 -0.1270 -0.4973  0.0107
   70GLOH    C1 9149   2.851   3.727  -0.052  0.3632  0.5361 -0.4670
   70GLOH   H02 9150   2.930   3.792  -0.014  1.1629  1.1125 -3.0305
   70GLOH   H08 9151   2.866   3.714  -0.159 -1.3076  0.1434 -0.6704
   70GLOH    C2 9152   2.859   3.585   0.004 -0.3115 -0.9248  0.4261
   70GLOH   H04 9153   2.797   3.527  -0.065 -0.0054 -1.3081  0.4749
   70GLOH    O2 9154   2.992   3.529   0.006  0.1318 -0.4201 -0.0423
   70GLOH   H05 9155   2.988   3.457  -0.059  1.2743 -0.6876  0.1665
   70GLOH    C3 9156   2.779   3.567   0.137 -0.4442  0.2836  0.4743
   70GLOH   H06 9157   2.781   3.652   0.205 -1.2444  1.8309 -1.4001
   70GLOH   H07 9158   2.825   3.487   0.195 -0.3183  0.7993  1.0923
   70GLOH    O3 9159   2.643   3.525   0.114 -0.4166 -0.3815 -0.3475
   70GLOH   H01 9160   2.635   3.449   0.054 -0.4918 -1.8024  1.4363
   71GLOH   H03 9161   3.312   4.712   3.371 -0.2956  0.7148  1.0924
   71GLOH    O1 9162   3.405   4.688   3.390 -0.2546  0.5351  0.6574
   71GLOH    C1 9163   3.437   4.602   3.281  0.3444  0.0358  0.7163
   71GLOH   H02 9164   3.457   4.664   3.193 -2.2476 -0.4042 -0.2286
   71GLOH   H08 9165   3.354   4.535   3.256 -0.3402  0.6765  1.2401
   71GLOH    C2 9166   3.564   4.518   3.305 -0.4218 -0.1011  0.4136
   71GLOH   H04 9167   3.549   4.452   3.392 -2.3278 -3.1711 -2.1514
   71GLOH    O2 9168   3.595   4.443   3.187 -0.2350 -0.0590 -0.1765
   71GLOH   H05 9169   3.526   4.460   3.121 -0.5702 -1.6790 -0.2503
   71GLOH    C3 9170   3.683   4.608   3.338 -1.3542 -0.0017 -0.8260
   71GLOH   H06 9171   3.706   4.664   3.247 -4.1663  3.1099  0.2549
   71GLOH   H07 9172   3.769   4.543   3.351  0.6188  2.2991 -2.0443
   71GLOH    O3 9173   3.662   4.703   3.437 -1.0322 -0.2481 -0.3047
   71GLOH   H01 9174   3.581   4.754   3.418 -1.1371 -0.2117  0.2133
   72GLOH   H03 9175   0.957   3.945   1.138  0.2558  0.8863 -0.0376
   72GLOH    O1 9176   0.987   3.900   1.219  0.2765  0.3472 -0.3427
   72GLOH    C1 9177   1.131   3.900   1.236  0.8501  0.3012  0.2709
   72GLOH   H02 9178   1.174   3.993   1.200  0.2504  1.0010  1.3586
   72GLOH   H08 9179   1.174   3.821   1.174 -1.7655 -0.9154 -0.0874
   72GLOH    C2 9180   1.174   3.885   1.384  0.4102  0.7028  0.2109
   72GLOH   H04 9181   1.123   3.798   1.428 -2.5158  2.4513  0.4537
   72GLOH    O2 9182   1.314   3.850   1.388 -0.6543 -1.0789  0.0201
   72GLOH   H05 9183   1.317   3.753   1.395  0.6254 -1.0438  0.0485
   72GLOH    C3 9184   1.143   3.999   1.480  0.1645  0.1750 -0.2544
   72GLOH   H06 9185   1.204   4.089   1.478  0.4985 -0.0670 -2.1444
   72GLOH   H07 9186   1.162   3.965   1.582 -3.1495  1.4532  0.8546
   72GLOH    O3 9187   1.003   4.034   1.478 -0.1696 -0.1010  0.3356
   72GLOH   H01 9188   0.958   3.998   1.400 -0.4005 -0.0741  0.4564
   73GLOH   H03 9189   2.362   8.288   4.627 -1.7954  1.5716 -0.7890
   73GLOH    O1 9190   2.446   8.337   4.618 -0.6790 -0.0683  0.4220
   73GLOH    C1 9191   2.542   8.250   4.550  0.3186  0.0105 -0.8101
   73GLOH   H02 9192   2.560   8.165   4.616  0.3445 -0.9763 -2.0732
   73GLOH   H08 9193   2.639   8.295   4.530  0.2861  0.1591 -0.6300
   73GLOH    C2 9194   2.491   8.207   4.408 -0.3945 -0.1073  0.2533
   73GLOH   H04 9195   2.464   8.298   4.353 -0.0291  0.4809  1.0331
   73GLOH    O2 9196   2.587   8.133   4.334 -0.1346  0.0045 -0.2264
   73GLOH   H05 9197   2.644   8.188   4.278  1.0212 -0.3413  0.5990
   73GLOH    C3 9198   2.358   8.132   4.423 -0.2684  0.1505  0.3027
   73GLOH   H06 9199   2.382   8.049   4.489 -0.4470  2.9038  4.0299
   73GLOH   H07 9200   2.334   8.098   4.322 -0.7226 -0.6857  0.6952
   73GLOH    O3 9201   2.254   8.222   4.468  0.0520 -0.3699 -0.1502
   73GLOH   H01 9202   2.226   8.283   4.397 -0.1878 -2.0219 -1.5120
   74GLOH   H03 9203   1.772   4.261   2.871  0.6082  1.2305 -0.5890
   74GLOH    O1 9204   1.694   4.252   2.813  0.1342  0.1117  0.2017
   74GLOH    C1 9205   1.694   4.326   2.688 -0.2452  1.0151  0.1122
   74GLOH   H02 9206   1.604   4.311   2.629 -0.4034  1.1612  0.3140
   74GLOH   H08 9207   1.779   4.291   2.630 -1.5189 -2.5841  0.2689
   74GLOH    C2 9208   1.709   4.477   2.715 -0.1601 -0.2570 -0.6811
   74GLOH   H04 9209   1.796   4.490   2.782 -1.1410  0.4229  0.4875
   74GLOH    O2 9210   1.733   4.554   2.595  0.2095 -0.1508  0.4245
   74GLOH   H05 9211   1.672   4.532   2.522  0.6653 -0.6623  0.1904
   74GLOH    C3 9212   1.585   4.517   2.800 -0.7907  0.3838  0.3501
   74GLOH   H06 9213   1.578   4.448   2.883 -0.9864  0.6123  0.5240
   74GLOH   H07 9214   1.502   4.495   2.733 -0.3908  0.3204 -0.1310
   74GLOH    O3 9215   1.591   4.654   2.850  0.4367  0.4383  0.0408
   74GLOH   H01 9216   1.679   4.672   2.888  0.6466  1.0751 -0.7219
   75GLOH   H03 9217   9.957   9.532   1.410 -0.9884  0.6709 -0.2345
   75GLOH    O1 9218   9.968   9.496   1.501 -0.0257  0.3975 -0.4588
   75GLOH    C1 9219  10.079   9.564   1.566 -0.4113 -0.4218 -0.3147
   75GLOH   H02 9220  10.166   9.551   1.501  1.2229 -0.6460  1.8734
   75GLOH   H08 9221  10.103   9.512   1.659  0.6804  0.9555  0.1885
   75GLOH    C2 9222  10.062   9.715   1.601  0.0297 -0.6000 -0.3468
   75GLOH   H04 9223   9.964   9.720   1.651 -1.2032 -0.6299 -2.7025
   75GLOH    O2 9224  10.168   9.753   1.697 -0.4447  0.1209  0.0980
   75GLOH   H05 9225  10.257   9.744   1.658 -0.8993 -2.0087 -0.5083
   75GLOH    C3 9226  10.065   9.796   1.472 -0.0201 -0.2208  0.3959
   75GLOH   H06 9227  10.140   9.761   1.401  0.2925  0.5039  0.3617
   75GLOH   H07 9228  10.089   9.898   1.500 -2.8610  0.4113  0.6500
   75GLOH    O3 9229   9.933   9.812   1.410  0.1089 -0.0521  0.4211
   75GLOH   H01 9230   9.934   9.875   1.336  1.2266 -1.1311 -0.4981
   76GLOH   H03 9231   1.956   0.576   4.606  1.1022  0.0430  0.5660
   76GLOH    O1 9232   2.044   0.533   4.602  0.6053 -0.9283  0.1826
   76GLOH    C1 9233   2.072   0.453   4.721 -0.2748 -0.4344 -0.7043
   76GLOH   H02 9234   2.050   0.349   4.698  1.7214 -1.2031  0.6426
   76GLOH   H08 9235   1.998   0.477   4.797  0.1697 -1.2131 -0.0153
   76GLOH    C2 9236   2.217   0.456   4.773 -0.5493  0.4494  0.3053
   76GLOH   H04 9237   2.246   0.551   4.821  0.3564  0.2431  0.1718
   76GLOH    O2 9238   2.232   0.346   4.867 -0.0239 -0.8528  0.0211
   76GLOH   H05 9239   2.174   0.338   4.944  0.4687 -1.1665  0.3602
   76GLOH    C3 9240   2.312   0.439   4.655  0.1080 -0.3205  0.4826
   76GLOH   H06 9241   2.297   0.345   4.603  0.3683  1.2671 -2.5639
   76GLOH   H07 9242   2.415   0.447   4.688  0.4643 -0.3275 -0.6220
   76GLOH    O3 9243   2.293   0.552   4.563  0.5107  0.0463  0.3105
   76GLOH   H01 9244   2.198   0.561   4.546  0.2003 -4.3696 -0.9205
   77GLOH   H03 9245   8.124   7.431   0.322  0.4967 -0.3411 -0.6588
   77GLOH    O1 9246   8.115   7.336   0.302  0.2569 -0.4171 -0.1953
   77GLOH    C1 9247   8.108   7.332   0.158  0.2494  0.3383  0.0241
   77GLOH   H02 9248   8.107   7.232   0.116  0.8285 -0.4825  1.9063
   77GLOH   H08 9249   8.198   7.384   0.125  2.9031 -2.5595  2.3994
   77GLOH    C2 9250   7.976   7.403   0.108  0.2467 -0.4690  0.0185
   77GLOH   H04 9251   7.885   7.379   0.165  0.7626  0.8069  1.4063
   77GLOH    O2 9252   7.983   7.550   0.124 -0.0987  0.0544 -0.7086
   77GLOH   H05 9253   7.917   7.566   0.195  2.3068  1.8274  1.2275
   77GLOH    C3 9254   7.936   7.358  -0.036  0.0207  0.0621  0.5566
   77GLOH   H06 9255   8.011   7.404  -0.100 -1.0105 -1.9039 -2.1798
   77GLOH   H07 9256   7.837   7.399  -0.058  0.2574 -0.2377 -1.1235
   77GLOH    O3 9257   7.934   7.216  -0.055  0.1982  0.3068  0.2183
   77GLOH   H01 9258   7.978   7.202  -0.140 -2.3398 -3.6476 -0.5912
   78GLOH   H03 9259   6.919   9.142   4.450  2.1460 -1.0225 -0.3331
   78GLOH    O1 9260   6.884   9.051   4.452 -0.2436 -0.1382  0.5293
   78GLOH    C1 9261   6.743   9.053   4.438 -0.3024  0.2553 -0.1793
   78GLOH   H02 9262   6.720   8.958   4.390  2.2796 -1.3724  1.6261
   78GLOH   H08 9263   6.714   9.135   4.372 -0.7632  1.0971  1.0308
   78GLOH    C2 9264   6.673   9.057   4.582 -0.4577 -0.7035  0.5355
   78GLOH   H04 9265   6.728   9.129   4.644 -0.1032  1.6880 -2.4521
   78GLOH    O2 9266   6.539   9.109   4.574 -0.3226 -0.4342  0.6614
   78GLOH   H05 9267   6.512   9.113   4.480 -0.8780  1.1222  0.8857
   78GLOH    C3 9268   6.662   8.911   4.634  0.1301  0.1927 -0.2207
   78GLOH   H06 9269   6.612   8.849   4.560 -1.9237  0.8304  0.6027
   78GLOH   H07 9270   6.591   8.914   4.717 -1.0267  3.4473 -1.2495
   78GLOH    O3 9271   6.787   8.856   4.676 -0.5701  0.4963 -0.1263
   78GLOH   H01 9272   6.840   8.838   4.596 -0.7573 -1.4161  0.1717
   79GLOH   H03 9273   5.096   2.881   1.336  0.5946 -0.1477 -0.3426
   79GLOH    O1 9274   5.104   2.920   1.247  0.0774 -0.5312 -0.5566
   79GLOH    C1 9275   5.028   3.041   1.245 -0.2307 -0.4846  0.0043
   79GLOH   H02 9276   5.071   3.104   1.167  1.8448  0.1887  1.6262
   79GLOH   H08 9277   5.030   3.102   1.336 -0.7169 -1.3639  0.6230
   79GLOH    C2 9278   4.877   3.031   1.220 -0.2465  0.2762  0.5225
   79GLOH   H04 9279   4.832   2.987   1.310 -1.0126 -0.5893 -0.2662
   79GLOH    O2 9280   4.814   3.167   1.205 -0.6152  0.7462  0.6066
   79GLOH   H05 9281   4.726   3.152   1.244 -0.3676 -1.7045  0.3102
   79GLOH    C3 9282   4.838   2.928   1.106  0.3968 -0.1544 -0.3414
   79GLOH   H06 9283   4.881   2.959   1.010  0.0793  0.9639 -0.1376
   79GLOH   H07 9284   4.730   2.920   1.098  0.3068  0.4463  0.2494
   79GLOH    O3 9285   4.887   2.798   1.139 -0.0975  0.2749 -0.2455
   79GLOH   H01 9286   4.982   2.808   1.159 -0.4690  1.1516  1.1282
   80GLOH   H03 9287   4.830   8.106   3.809 -0.0592 -1.9795 -0.0002
   80GLOH    O1 9288   4.740   8.097   3.772 -0.5793  0.1533  0.6709
   80GLOH    C1 9289   4.734   7.998   3.661 -0.2611 -0.3115 -0.5511
   80GLOH   H02 9290   4.807   7.918   3.673  0.2404  0.4216  1.4801
   80GLOH   H08 9291   4.755   8.043   3.564 -0.4096 -0.8052 -0.8182
   80GLOH    C2 9292   4.604   7.912   3.669 -0.3917  1.1517 -0.1536
   80GLOH   H04 9293   4.519   7.980   3.684 -0.4356  2.1636 -4.2810
   80GLOH    O2 9294   4.585   7.845   3.544 -0.1456 -0.3407 -0.1131
   80GLOH   H05 9295   4.515   7.779   3.552  0.3063 -0.8607 -0.3827
   80GLOH    C3 9296   4.613   7.811   3.778  0.6320  0.2304 -0.4550
   80GLOH   H06 9297   4.634   7.862   3.872  1.0971 -0.7193 -0.0369
   80GLOH   H07 9298   4.708   7.760   3.764  0.2246 -0.5956 -0.2564
   80GLOH    O3 9299   4.496   7.723   3.789  0.4494  0.0952 -0.3290
   80GLOH   H01 9300   4.436   7.782   3.839  1.0644  0.7736 -0.3722
   81GLOH   H03 9301   3.422   0.816   4.285  0.6391 -0.0999 -1.6849
   81GLOH    O1 9302   3.504   0.772   4.312  0.2061 -0.1463 -0.4101
   81GLOH    C1 9303   3.595   0.791   4.208  1.2424 -0.1335  0.2409
   81GLOH   H02 9304   3.699   0.770   4.232  0.8348 -2.9580 -0.2440
   81GLOH   H08 9305   3.598   0.895   4.178  0.0190  0.0377  0.6615
   81GLOH    C2 9306   3.540   0.715   4.079 -0.6615 -0.3893 -0.0298
   81GLOH   H04 9307   3.452   0.766   4.038 -0.5600  0.8810  1.3065
   81GLOH    O2 9308   3.635   0.723   3.972 -0.3794  0.5900  0.6397
   81GLOH   H05 9309   3.638   0.818   3.953 -0.1941  0.0630 -2.0841
   81GLOH    C3 9310   3.512   0.569   4.106  0.0995  0.1656  0.8029
   81GLOH   H06 9311   3.489   0.517   4.013 -0.4699 -0.9200  1.5505
   81GLOH   H07 9312   3.425   0.568   4.172  0.1231 -2.4252  0.8397
   81GLOH    O3 9313   3.621   0.502   4.179 -0.8769 -0.0699  0.5376
   81GLOH   H01 9314   3.698   0.562   4.177 -1.5345  0.7651 -0.1218
   82GLOH   H03 9315   2.558   9.210   2.487  0.6432  0.9131 -2.1192
   82GLOH    O1 9316   2.648   9.238   2.515 -0.0217  1.1130 -0.1372
   82GLOH    C1 9317   2.638   9.200   2.653 -0.2433 -0.6192 -0.8378
   82GLOH   H02 9318   2.581   9.109   2.671 -0.8148  0.5452  3.8130
   82GLOH   H08 9319   2.592   9.279   2.713  0.7727 -1.1310  0.6480
   82GLOH    C2 9320   2.777   9.177   2.717 -0.4098  0.4027  0.0895
   82GLOH   H04 9321   2.758   9.176   2.825  0.2360  3.5385  0.2613
   82GLOH    O2 9322   2.842   9.053   2.683  0.4178  0.3605  0.0318
   82GLOH   H05 9323   2.785   8.976   2.697 -0.1142  0.6456 -0.5171
   82GLOH    C3 9324   2.876   9.291   2.689 -0.8517 -0.1320  0.7246
   82GLOH   H06 9325   2.905   9.291   2.584 -3.7643 -0.4142 -0.1133
   82GLOH   H07 9326   2.973   9.269   2.735 -1.5673 -1.6474  1.5472
   82GLOH    O3 9327   2.816   9.416   2.731 -0.0467  0.2009  0.6144
   82GLOH   H01 9328   2.872   9.486   2.691 -1.2377  0.6186 -0.3527
   83GLOH   H03 9329   0.921   5.124   3.739 -2.4759  1.7884 -1.8952
   83GLOH    O1 9330   0.984   5.194   3.715 -0.7040  0.9084  0.0600
   83GLOH    C1 9331   1.107   5.128   3.683 -0.4746  0.1120  0.3558
   83GLOH   H02 9332   1.157   5.182   3.603  2.6138 -1.4910  1.1409
   83GLOH   H08 9333   1.096   5.025   3.647 -0.1000 -0.3708  1.6193
   83GLOH    C2 9334   1.206   5.137   3.804  0.8301 -0.1750  0.6035
   83GLOH   H04 9335   1.161   5.104   3.898  2.6417  1.1831  1.9944
   83GLOH    O2 9336   1.315   5.048   3.773 -0.0957 -0.4926  0.1362
   83GLOH   H05 9337   1.353   5.008   3.853 -1.2068 -1.4343  0.2072
   83GLOH    C3 9338   1.256   5.278   3.830  0.1137  0.1939  0.9829
   83GLOH   H06 9339   1.173   5.346   3.850 -2.6620 -2.6410 -0.4245
   83GLOH   H07 9340   1.315   5.308   3.743 -2.3700 -1.3835 -1.3299
   83GLOH    O3 9341   1.332   5.286   3.954  0.6897 -0.4438 -0.9278
   83GLOH   H01 9342   1.424   5.314   3.937  0.6312  0.6971  0.5572
   84GLOH   H03 9343   8.962   9.615   4.132  0.0736 -2.2054  0.8428
   84GLOH    O1 9344   8.929   9.592   4.043  0.5415 -0.3250  0.1597
   84GLOH    C1 9345   8.984   9.695   3.955  0.2876  0.0824 -0.2057
   84GLOH   H02 9346   9.018   9.647   3.863  0.7355  0.2658 -0.1366
   84GLOH   H08 9347   9.076   9.745   3.985  0.1601  0.6204 -0.7095
   84GLOH    C2 9348   8.883   9.806   3.915  0.5409 -0.3661 -0.2526
   84GLOH   H04 9349   8.845   9.846   4.009 -3.2560  0.7244 -2.1755
   84GLOH    O2 9350   8.942   9.908   3.840 -0.2955 -0.3969  0.1967
   84GLOH   H05 9351   8.952   9.886   3.746  1.6201 -1.2437  0.5745
   84GLOH    C3 9352   8.756   9.748   3.845  0.1677  0.5390  0.0584
   84GLOH   H06 9353   8.777   9.736   3.739 -1.1167  0.6569 -0.2101
   84GLOH   H07 9354   8.678   9.823   3.856  0.9838  1.3151  0.6665
   84GLOH    O3 9355   8.720   9.623   3.899  0.4819 -0.4634 -0.1592
   84GLOH   H01 9356   8.797   9.609   3.957  1.8571  1.5986 -1.4494
   85GLOH   H03 9357   4.713   0.066   3.186  0.8829 -1.5837  0.5913
   85GLOH    O1 9358   4.623   0.029   3.198  0.2749 -0.1774  0.4696
   85GLOH    C1 9359   4.536   0.012   3.083  0.0612 -0.6573 -0.0097
   85GLOH   H02 9360   4.454  -0.054   3.112 -0.1122 -1.0773 -1.4300
   85GLOH   H08 9361   4.591  -0.041   3.006  2.4414  0.7498  0.6729
   85GLOH    C2 9362   4.471   0.135   3.019 -0.4093  0.4686  0.2724
   85GLOH   H04 9363   4.558   0.179   2.968 -0.7511  0.0909 -0.6406
   85GLOH    O2 9364   4.377   0.104   2.917  0.7046  0.7703 -0.3434
   85GLOH   H05 9365   4.291   0.119   2.960 -0.1566 -0.9075 -1.3941
   85GLOH    C3 9366   4.422   0.245   3.123  0.3841  0.4374 -0.5065
   85GLOH   H06 9367   4.393   0.330   3.062  0.1522 -0.7159 -2.0515
   85GLOH   H07 9368   4.509   0.283   3.177  0.6965  0.7070 -1.2047
   85GLOH    O3 9369   4.310   0.202   3.204 -0.1286 -0.1525 -0.5835
   85GLOH   H01 9370   4.317   0.267   3.276  1.4415  0.6974 -1.4771
   86GLOH   H03 9371   0.342   5.079   0.870  0.6253 -0.6649 -1.4008
   86GLOH    O1 9372   0.262   5.119   0.831  0.1403  0.3067  0.4899
   86GLOH    C1 9373   0.310   5.252   0.792  0.1282  0.1178  0.1201
   86GLOH   H02 9374   0.362   5.306   0.871 -2.1517  1.1201  0.9866
   86GLOH   H08 9375   0.218   5.303   0.762 -0.7559 -1.4436  0.0976
   86GLOH    C2 9376   0.392   5.259   0.663  0.6194  0.2835  0.6378
   86GLOH   H04 9377   0.411   5.367   0.655 -0.0293  0.3129 -0.5904
   86GLOH    O2 9378   0.516   5.185   0.670  0.4808 -0.5558 -0.2169
   86GLOH   H05 9379   0.572   5.209   0.595  1.3186 -0.9384  0.2803
   86GLOH    C3 9380   0.318   5.212   0.534 -0.2447 -0.0798  0.3245
   86GLOH   H06 9381   0.264   5.117   0.545 -0.1095 -0.3105 -0.8895
   86GLOH   H07 9382   0.395   5.186   0.461  0.1235  1.2434  0.2296
   86GLOH    O3 9383   0.223   5.296   0.471 -0.5416 -0.2077 -0.3175
   86GLOH   H01 9384   0.162   5.238   0.423 -0.3356 -0.0882 -0.7272
   87GLOH   H03 9385   9.526   9.832   1.894  0.9534  0.2690  0.0721
   87GLOH    O1 9386   9.548   9.800   1.983 -0.0833 -0.5156  0.0518
   87GLOH    C1 9387   9.606   9.667   1.955  0.2765 -0.3082 -0.1724
   87GLOH   H02 9388   9.696   9.686   1.898 -0.5648  0.5388 -1.2522
   87GLOH   H08 9389   9.532   9.610   1.899 -1.9568  0.3395  2.0076
   87GLOH    C2 9390   9.640   9.593   2.084  0.4686  0.8591  0.2750
   87GLOH   H04 9391   9.668   9.494   2.045  1.0485  1.0529  0.1934
   87GLOH    O2 9392   9.759   9.650   2.149 -0.6533  0.1361  0.3592
   87GLOH   H05 9393   9.734   9.732   2.195  1.4495  2.1002 -1.8695
   87GLOH    C3 9394   9.517   9.584   2.175 -0.2706 -0.7749 -0.0366
   87GLOH   H06 9395   9.492   9.688   2.196 -0.2346 -0.5777 -0.9512
   87GLOH   H07 9396   9.540   9.536   2.270 -0.9567  0.9697  1.0227
   87GLOH    O3 9397   9.405   9.515   2.119 -0.2474  0.0335  0.1320
   87GLOH   H01 9398   9.432   9.469   2.037  1.9726 -1.1273  1.4565
   88GLOH   H03 9399   4.314   4.381   1.146  0.5833 -0.1759 -0.1819
   88GLOH    O1 9400   4.371   4.349   1.073  0.3149  0.3755 -0.6304
   88GLOH    C1 9401   4.503   4.395   1.088 -0.4862 -0.3425  0.1237
   88GLOH   H02 9402   4.573   4.337   1.028 -0.9704  0.4880 -1.2715
   88GLOH   H08 9403   4.547   4.375   1.186  0.1653  1.0363  0.1230
   88GLOH    C2 9404   4.529   4.545   1.061 -0.0190 -0.2543  0.3906
   88GLOH   H04 9405   4.480   4.571   0.966  2.9179  2.0715 -0.5835
   88GLOH    O2 9406   4.484   4.635   1.159  0.3569  0.1279 -0.1720
   88GLOH   H05 9407   4.387   4.641   1.166  0.4633 -0.0529  1.8672
   88GLOH    C3 9408   4.679   4.563   1.028 -0.1567  0.4322  0.3977
   88GLOH   H06 9409   4.748   4.552   1.111  0.0089 -0.1262  0.1871
   88GLOH   H07 9410   4.688   4.669   1.001 -0.3906  0.5180  0.6612
   88GLOH    O3 9411   4.719   4.486   0.915  0.1175  0.0858  0.4090
   88GLOH   H01 9412   4.772   4.546   0.859  0.3890 -1.4744 -1.0779
   89GLOH   H03 9413   7.681   7.556   3.049  0.1714  0.3778  2.2477
   89GLOH    O1 9414   7.778   7.552   3.052  0.2808  0.2121 -0.6264
   89GLOH    C1 9415   7.828   7.687   3.060  0.0888 -0.0311  0.4225
   89GLOH   H02 9416   7.933   7.689   3.089  0.6386 -1.9599 -1.3269
   89GLOH   H08 9417   7.773   7.742   3.136  2.5504 -1.6389  3.5009
   89GLOH    C2 9418   7.797   7.777   2.936  0.1084 -0.7497  0.0784
   89GLOH   H04 9419   7.690   7.767   2.915  0.3060 -0.6861 -0.9923
   89GLOH    O2 9420   7.823   7.915   2.958 -0.5519 -0.3047  0.2217
   89GLOH   H05 9421   7.797   7.936   3.049 -0.6814 -3.8165  1.0692
   89GLOH    C3 9422   7.875   7.720   2.811 -0.2280  0.1281  0.3284
   89GLOH   H06 9423   7.894   7.613   2.825 -5.4895 -1.2543 -1.7990
   89GLOH   H07 9424   7.973   7.767   2.810 -0.8505  1.4521  0.2179
   89GLOH    O3 9425   7.805   7.737   2.686  0.2474 -0.2283 -0.0475
   89GLOH   H01 9426   7.712   7.711   2.693  0.7513 -1.7577  1.3533
   90GLOH   H03 9427   3.992   2.099   4.726  0.8924  0.8651  0.5644
   90GLOH    O1 9428   4.039   2.023   4.765  0.2959  0.0189 -0.3404
   90GLOH    C1 9429   3.988   1.898   4.711 -0.3607 -0.0280 -0.5097
   90GLOH   H02 9430   4.012   1.894   4.605  0.3007 -1.3351 -0.3262
   90GLOH   H08 9431   3.881   1.886   4.726  0.0472 -2.5681  0.6787
   90GLOH    C2 9432   4.056   1.775   4.778 -0.8856  0.1749  0.3555
   90GLOH   H04 9433   4.016   1.788   4.879  0.5219  0.3139  0.8928
   90GLOH    O2 9434   4.002   1.647   4.731  0.1643 -0.2137 -0.2550
   90GLOH   H05 9435   3.944   1.659   4.654 -0.5664  1.3019  0.5081
   90GLOH    C3 9436   4.210   1.772   4.780  1.3217 -0.6915 -0.4769
   90GLOH   H06 9437   4.237   1.739   4.679  0.0753 -1.3873 -0.5973
   90GLOH   H07 9438   4.250   1.707   4.858  2.3085  0.4086 -0.0538
   90GLOH    O3 9439   4.266   1.899   4.808  0.0819 -0.6743 -0.0371
   90GLOH   H01 9440   4.197   1.967   4.796  0.8471 -0.1678 -1.8392
   91GLOH   H03 9441   6.282   0.422   1.707  3.7146  0.2244 -1.7149
   91GLOH    O1 9442   6.319   0.492   1.763  0.6686  0.2243  0.4381
   91GLOH    C1 9443   6.331   0.439   1.896 -0.8860 -0.0158 -0.6714
   91GLOH   H02 9444   6.434   0.428   1.929 -0.9194 -0.9391 -0.8635
   91GLOH   H08 9445   6.289   0.340   1.914  0.3489 -0.3372  0.5520
   91GLOH    C2 9446   6.261   0.528   1.998  0.4267  0.2207  0.8385
   91GLOH   H04 9447   6.153   0.519   1.978  0.1466  1.3882  1.7710
   91GLOH    O2 9448   6.281   0.498   2.134 -0.2148  0.3726  0.4221
   91GLOH   H05 9449   6.288   0.402   2.145  1.4262  0.5251  0.8992
   91GLOH    C3 9450   6.281   0.680   1.977 -0.3831  0.3591 -0.1874
   91GLOH   H06 9451   6.385   0.708   1.991 -0.4132  1.8380 -2.5876
   91GLOH   H07 9452   6.231   0.729   2.061 -2.3644 -0.8971 -0.5869
   91GLOH    O3 9453   6.238   0.718   1.849 -0.0194  0.0584 -0.4642
   91GLOH   H01 9454   6.257   0.643   1.790 -0.1327 -0.0445 -0.3699
   92GLOH   H03 9455   3.953   3.275   1.938 -0.3318 -1.3872  0.6185
   92GLOH    O1 9456   4.048   3.256   1.934  0.0424  0.5327 -0.0587
   92GLOH    C1 9457   4.065   3.156   2.039  0.5674  0.4948  0.5271
   92GLOH   H02 9458   3.983   3.086   2.021  0.0044  1.2560  0.0772
   92GLOH   H08 9459   4.049   3.197   2.139 -1.3125 -1.5603  1.1091
   92GLOH    C2 9460   4.207   3.091   2.020  0.2248  0.0298  0.1932
   92GLOH   H04 9461   4.273   3.178   2.030 -0.4732  0.6530 -0.5603
   92GLOH    O2 9462   4.218   2.983   2.117 -0.2717  0.0139  0.1849
   92GLOH   H05 9463   4.226   3.011   2.210  0.3522  0.4705 -0.0010
   92GLOH    C3 9464   4.222   3.029   1.882  0.5753 -0.5371  0.2391
   92GLOH   H06 9465   4.144   2.955   1.863 -0.0604  0.3348 -0.6557
   92GLOH   H07 9466   4.319   2.981   1.888  0.4441 -0.5758  2.5118
   92GLOH    O3 9467   4.224   3.132   1.783  0.3881  0.1533 -0.1672
   92GLOH   H01 9468   4.183   3.210   1.824  0.8986  0.1283  0.4008
   93GLOH   H03 9469   2.881   9.061   3.642  1.9170 -0.9220  0.0945
   93GLOH    O1 9470   2.840   8.987   3.691 -0.4217  0.1237 -0.1897
   93GLOH    C1 9471   2.931   8.872   3.678 -0.1894 -0.0901 -0.4409
   93GLOH   H02 9472   2.919   8.799   3.757 -0.5813 -1.4709 -1.7544
   93GLOH   H08 9473   3.037   8.898   3.674 -0.5298  1.3867 -0.3932
   93GLOH    C2 9474   2.883   8.793   3.553  0.2865  0.3101  1.0706
   93GLOH   H04 9475   2.862   8.870   3.478 -0.4829 -2.0676 -1.2289
   93GLOH    O2 9476   2.986   8.701   3.518 -0.2639  0.1499 -0.8608
   93GLOH   H05 9477   3.041   8.685   3.596  2.1167 -1.8650 -2.8679
   93GLOH    C3 9478   2.753   8.721   3.593  0.3085  0.2718 -0.1674
   93GLOH   H06 9479   2.685   8.788   3.645  0.3488  0.1086  0.0927
   93GLOH   H07 9480   2.765   8.642   3.666 -1.0387  1.1423  1.0450
   93GLOH    O3 9481   2.680   8.667   3.480 -0.3157 -0.1524  0.1252
   93GLOH   H01 9482   2.749   8.672   3.411 -0.1374  1.7219  0.4158
   94GLOH   H03 9483   0.206   3.675   2.331  0.1078 -0.0641  2.1349
   94GLOH    O1 9484   0.111   3.676   2.310  0.5628 -0.1743 -0.0686
   94GLOH    C1 9485   0.069   3.803   2.253 -0.2537 -0.2128 -0.6590
   94GLOH   H02 9486   0.155   3.857   2.213 -0.4704  0.1315 -0.6663
   94GLOH   H08 9487   0.023   3.863   2.332 -2.4758 -2.8765  0.1263
   94GLOH    C2 9488  -0.046   3.785   2.153  0.4681 -0.6661  0.2810
   94GLOH   H04 9489  -0.122   3.721   2.199  0.3772 -1.0138 -0.3346
   94GLOH    O2 9490  -0.119   3.903   2.102  0.2330 -0.7670 -0.3413
   94GLOH   H05 9491  -0.063   3.983   2.095  1.6881 -1.8156 -0.9296
   94GLOH    C3 9492   0.005   3.702   2.035  0.0624  1.0099  0.1343
   94GLOH   H06 9493   0.085   3.760   1.988  2.9501 -1.7594  1.4432
   94GLOH   H07 9494  -0.073   3.690   1.960  2.0465  0.1460 -1.8433
   94GLOH    O3 9495   0.066   3.574   2.068  0.0317 -0.1874  0.0058
   94GLOH   H01 9496   0.132   3.583   2.139  1.3096  1.7885 -1.3510
   95GLOH   H03 9497   3.044   2.495   2.727 -0.6295  2.1666  1.0993
   95GLOH    O1 9498   3.008   2.467   2.814 -0.6752  0.5599  0.5929
   95GLOH    C1 9499   3.028   2.324   2.809 -0.6081  0.0736  0.9034
   95GLOH   H02 9500   3.127   2.302   2.851  0.3981 -0.5131 -1.6803
   95GLOH   H08 9501   3.029   2.290   2.705 -0.3420  0.2892  0.8320
   95GLOH    C2 9502   2.933   2.251   2.896  0.7029 -0.0389 -0.9232
   95GLOH   H04 9503   2.833   2.258   2.851  0.9076 -2.0639 -1.7325
   95GLOH    O2 9504   2.961   2.109   2.897  0.2212  0.2361 -0.1897
   95GLOH   H05 9505   2.934   2.070   2.812  0.2161  1.1288 -0.6007
   95GLOH    C3 9506   2.918   2.318   3.033 -0.1000  0.4463  0.4855
   95GLOH   H06 9507   3.019   2.318   3.072  0.6631  0.3297 -1.4309
   95GLOH   H07 9508   2.857   2.255   3.098  0.9052 -0.0693  0.9345
   95GLOH    O3 9509   2.856   2.447   3.018 -0.1824 -0.0071 -0.0003
   95GLOH   H01 9510   2.919   2.491   2.958 -0.9030  1.7069  0.4759
   96GLOH   H03 9511   1.703   4.162   1.586  0.2787 -0.9398  0.1029
   96GLOH    O1 9512   1.735   4.251   1.612 -0.6494 -0.6102  0.1312
   96GLOH    C1 9513   1.739   4.331   1.495 -0.5867  0.1864 -0.3086
   96GLOH   H02 9514   1.678   4.420   1.508  0.8814  1.0563  0.7568
   96GLOH   H08 9515   1.712   4.274   1.406 -0.4516  0.9102 -0.8134
   96GLOH    C2 9516   1.880   4.399   1.484 -0.5127  0.2764 -0.5528
   96GLOH   H04 9517   1.957   4.328   1.453 -0.1725  0.7092 -0.7143
   96GLOH    O2 9518   1.867   4.491   1.372 -0.2039 -0.1128  0.1289
   96GLOH   H05 9519   1.897   4.446   1.291  1.7386  2.4262 -0.6478
   96GLOH    C3 9520   1.928   4.455   1.617  0.1871 -0.7347  0.0156
   96GLOH   H06 9521   1.858   4.526   1.662  0.9579 -0.6330  1.0825
   96GLOH   H07 9522   2.020   4.508   1.596 -1.1655  1.3327 -0.9197
   96GLOH    O3 9523   1.952   4.355   1.714  0.0662 -0.3943 -0.5653
   96GLOH   H01 9524   1.865   4.327   1.747  0.5057  1.3864  2.2477
   97GLOH   H03 9525   2.294   5.493   4.339 -1.3310 -0.5866  0.3054
   97GLOH    O1 9526   2.311   5.446   4.255 -0.1718  0.1619  0.1024
   97GLOH    C1 9527   2.221   5.495   4.155  0.0277  0.0122  0.0366
   97GLOH   H02 9528   2.262   5.558   4.077 -1.2500  1.0934  0.2281
   97GLOH   H08 9529   2.134   5.546   4.197  0.0219 -0.5889  0.7817
   97GLOH    C2 9530   2.166   5.367   4.084  0.0564  0.3973  0.3466
   97GLOH   H04 9531   2.251   5.317   4.034 -0.2325  0.5777 -0.3291
   97GLOH    O2 9532   2.111   5.268   4.173 -0.1537 -1.0759  0.0666
   97GLOH   H05 9533   2.140   5.290   4.263  1.1758  0.1074 -0.6315
   97GLOH    C3 9534   2.057   5.408   3.984 -0.6451  0.8897  0.5184
   97GLOH   H06 9535   1.960   5.433   4.029 -1.6244  1.0791 -1.6285
   97GLOH   H07 9536   2.026   5.317   3.932 -1.8665  0.1114  2.5591
   97GLOH    O3 9537   2.094   5.512   3.889  0.4357  0.0963 -0.0288
   97GLOH   H01 9538   2.015   5.528   3.834  0.8410 -0.3475 -0.7488
   98GLOH   H03 9539   5.222   7.541   3.553 -1.4413 -0.9527 -1.1900
   98GLOH    O1 9540   5.164   7.552   3.631  0.2682  0.4699 -0.0735
   98GLOH    C1 9541   5.028   7.575   3.574 -0.4861  0.1886  0.5096
   98GLOH   H02 9542   5.003   7.496   3.503  2.5222  0.8249 -1.3612
   98GLOH   H08 9543   5.019   7.672   3.525  0.2332 -0.8862 -1.8132
   98GLOH    C2 9544   4.922   7.572   3.686 -0.3720 -0.1749  0.0285
   98GLOH   H04 9545   4.912   7.663   3.747 -0.4679 -1.2703  1.6896
   98GLOH    O2 9546   4.796   7.568   3.621  0.1357 -0.4667  0.2006
   98GLOH   H05 9547   4.810   7.590   3.527  3.1340 -1.7813  0.2702
   98GLOH    C3 9548   4.935   7.446   3.775  0.0168  0.0560  0.0813
   98GLOH   H06 9549   4.913   7.358   3.715 -0.4272  1.6599 -2.1631
   98GLOH   H07 9550   4.868   7.458   3.860  0.6440 -2.4541  0.9799
   98GLOH    O3 9551   5.063   7.439   3.833  0.6983 -0.4297  0.6963
   98GLOH   H01 9552   5.125   7.474   3.766  0.6225 -0.0036  0.8524
   99GLOH   H03 9553   4.109   7.820   4.151  0.2592 -1.6329 -1.8012
   99GLOH    O1 9554   4.137   7.887   4.086  0.0993 -0.0254 -0.2609
   99GLOH    C1 9555   4.209   7.998   4.143  0.0348 -0.0612  0.4197
   99GLOH   H02 9556   4.282   7.951   4.209 -0.8556 -1.9477  0.0948
   99GLOH   H08 9557   4.148   8.058   4.210 -0.1952 -0.2711  0.3970
   99GLOH    C2 9558   4.287   8.086   4.039  0.2491  0.0128  0.3172
   99GLOH   H04 9559   4.208   8.129   3.976  0.7052  1.1284  0.4969
   99GLOH    O2 9560   4.351   8.192   4.111 -0.2265 -0.1954  0.0902
   99GLOH   H05 9561   4.324   8.266   4.055 -3.3170 -1.6197 -0.4103
   99GLOH    C3 9562   4.393   8.003   3.957 -0.0055 -0.3298  0.2951
   99GLOH   H06 9563   4.472   7.972   4.025 -0.0327 -0.8717  0.0788
   99GLOH   H07 9564   4.423   8.072   3.878  0.6649 -1.7973 -0.7410
   99GLOH    O3 9565   4.325   7.889   3.903  0.0779  0.4886  0.4833
   99GLOH   H01 9566   4.245   7.868   3.955  0.1081 -3.2685 -0.8171
  100GLOH   H03 9567   4.998   0.119   1.526 -0.5220 -0.6683  0.8279
  100GLOH    O1 9568   5.027   0.098   1.435 -0.2144 -0.6719  0.9244
  100GLOH    C1 9569   5.061   0.234   1.389 -0.0970 -0.3314  0.3535
  100GLOH   H02 9570   5.169   0.248   1.383 -0.0932 -0.9785 -1.2180
  100GLOH   H08 9571   5.024   0.305   1.463 -3.5166 -1.2198 -0.4270
  100GLOH    C2 9572   5.003   0.271   1.249 -0.4305  0.2413 -0.2835
  100GLOH   H04 9573   5.028   0.378   1.237  0.7250  0.0450  0.3580
  100GLOH    O2 9574   5.069   0.197   1.148 -0.5911 -0.0946 -0.2308
  100GLOH   H05 9575   5.028   0.218   1.063  1.5349 -1.0153 -1.5079
  100GLOH    C3 9576   4.854   0.265   1.231  0.0997  0.3016 -0.0294
  100GLOH   H06 9577   4.817   0.168   1.196  1.2449  0.4965 -1.8379
  100GLOH   H07 9578   4.827   0.338   1.155 -2.2296 -1.5179 -1.0200
  100GLOH    O3 9579   4.787   0.304   1.348 -0.1901  0.2824 -0.1576
  100GLOH   H01 9580   4.693   0.279   1.338  0.3443 -3.2653  2.4064
  101GLOH   H03 9581   4.540   3.720   0.243  0.5418 -2.3213  1.5721
  101GLOH    O1 9582   4.621   3.763   0.210 -0.9079 -0.3832  0.4131
  101GLOH    C1 9583   4.613   3.904   0.204 -0.0450 -0.1902  0.5878
  101GLOH   H02 9584   4.717   3.937   0.203  0.4731 -1.8148 -1.1808
  101GLOH   H08 9585   4.565   3.952   0.290  0.1487 -0.0738  0.6302
  101GLOH    C2 9586   4.532   3.934   0.073  0.0635  0.2187 -0.0237
  101GLOH   H04 9587   4.504   4.041   0.078  0.4433  0.2900  0.5632
  101GLOH    O2 9588   4.602   3.910  -0.049  0.0264  0.0717 -0.0117
  101GLOH   H05 9589   4.690   3.878  -0.022 -0.1466  0.8914  1.6350
  101GLOH    C3 9590   4.403   3.855   0.078  0.8458 -0.0494  0.0964
  101GLOH   H06 9591   4.418   3.747   0.073  1.6089  0.0293  0.7563
  101GLOH   H07 9592   4.341   3.877  -0.009  3.3974 -1.2667 -2.0950
  101GLOH    O3 9593   4.327   3.885   0.198  0.3474  0.4917  0.5240
  101GLOH   H01 9594   4.342   3.811   0.260  1.1811 -0.4871 -0.8361
  102GLOH   H03 9595   3.454   8.568   2.375  0.8163  1.4716  0.5328
  102GLOH    O1 9596   3.522   8.553   2.307  0.1262  0.1089  0.1308
  102GLOH    C1 9597   3.455   8.542   2.181 -0.6231 -0.8872 -0.4755
  102GLOH   H02 9598   3.533   8.536   2.104 -1.7563  0.5960 -1.7951
  102GLOH   H08 9599   3.403   8.634   2.151 -1.2641 -0.9501  0.4362
  102GLOH    C2 9600   3.356   8.425   2.166 -0.3947  0.5448 -0.1190
  102GLOH   H04 9601   3.276   8.434   2.241  0.1261 -2.5792  0.8983
  102GLOH    O2 9602   3.298   8.426   2.033 -0.3577 -0.0984 -0.5439
  102GLOH   H05 9603   3.223   8.365   2.043  0.6091 -1.2720 -0.3849
  102GLOH    C3 9604   3.434   8.291   2.189 -0.5884 -0.8968  0.2243
  102GLOH   H06 9605   3.510   8.308   2.265 -0.7194  2.2746 -0.2987
  102GLOH   H07 9606   3.492   8.266   2.101 -0.9961  2.7087 -1.1465
  102GLOH    O3 9607   3.342   8.190   2.224  0.1303 -0.0851 -0.0110
  102GLOH   H01 9608   3.338   8.153   2.134 -0.4309  0.9761 -0.4336
  103GLOH   H03 9609   7.840   6.719   4.533  2.4661 -1.1086  0.4221
  103GLOH    O1 9610   7.792   6.634   4.529 -0.4235  0.4615  0.3978
  103GLOH    C1 9611   7.773   6.584   4.664  0.1348  0.2829  0.0574
  103GLOH   H02 9612   7.709   6.496   4.655  1.2166 -0.4329 -0.7869
  103GLOH   H08 9613   7.722   6.653   4.732  0.2901  0.4828 -0.0297
  103GLOH    C2 9614   7.913   6.559   4.742  0.2021 -0.1664 -0.7477
  103GLOH   H04 9615   7.941   6.657   4.783  0.2541 -0.1787 -0.7541
  103GLOH    O2 9616   7.883   6.473   4.853  0.2187 -0.0935 -0.6218
  103GLOH   H05 9617   7.962   6.424   4.881 -1.1369 -0.7781  2.1663
  103GLOH    C3 9618   8.016   6.498   4.645 -0.2915  0.3152  0.3466
  103GLOH   H06 9619   8.045   6.565   4.563  1.0068 -1.3006 -0.5384
  103GLOH   H07 9620   7.968   6.418   4.588  0.1269 -0.8531  1.6170
  103GLOH    O3 9621   8.125   6.455   4.730 -0.2145  0.3547 -0.4051
  103GLOH   H01 9622   8.192   6.427   4.664  1.6361  1.3195  0.9902
  104GLOH   H03 9623   9.344   8.916   0.067 -0.9296 -2.0417 -1.2621
  104GLOH    O1 9624   9.252   8.949   0.067 -0.1913  0.1400 -0.1755
  104GLOH    C1 9625   9.185   8.959   0.198 -0.5573  0.2365  0.2633
  104GLOH   H02 9626   9.078   8.974   0.185 -0.2965  2.7517  0.7492
  104GLOH   H08 9627   9.229   9.043   0.252  1.5267 -1.2168  0.9125
  104GLOH    C2 9628   9.204   8.824   0.279 -0.6396  0.5717  0.2275
  104GLOH   H04 9629   9.313   8.818   0.284 -0.6859 -0.0380  0.4832
  104GLOH    O2 9630   9.147   8.832   0.408 -0.0932 -0.1167 -0.1893
  104GLOH   H05 9631   9.069   8.775   0.401 -0.4365  0.4209 -0.8686
  104GLOH    C3 9632   9.155   8.710   0.188 -0.4553  0.3023 -0.0348
  104GLOH   H06 9633   9.174   8.618   0.243  1.0665  1.3159  1.1895
  104GLOH   H07 9634   9.209   8.709   0.094 -1.6960  0.4518 -0.7488
  104GLOH    O3 9635   9.016   8.733   0.171 -0.2218 -0.1724  0.1661
  104GLOH   H01 9636   8.972   8.696   0.250 -1.7212  1.5741  0.1844
  105GLOH   H03 9637   1.718   1.956   1.285  0.4229  1.9401  0.7435
  105GLOH    O1 9638   1.696   1.970   1.191  0.0396 -0.8698  0.3654
  105GLOH    C1 9639   1.708   1.854   1.108  0.5107  0.0215  0.2114
  105GLOH   H02 9640   1.626   1.784   1.123  0.1762  0.6488  1.3651
  105GLOH   H08 9641   1.800   1.797   1.120 -0.0435 -1.0091 -0.3709
  105GLOH    C2 9642   1.695   1.907   0.969  0.0632 -0.4779  0.9592
  105GLOH   H04 9643   1.783   1.971   0.950  1.0108 -2.6982 -2.5784
  105GLOH    O2 9644   1.702   1.793   0.878  0.5850 -0.4214 -0.6318
  105GLOH   H05 9645   1.628   1.730   0.880  0.5976 -0.4217  2.3473
  105GLOH    C3 9646   1.567   1.996   0.943 -0.4428 -0.1725 -0.0887
  105GLOH   H06 9647   1.593   2.091   0.990  1.7370 -0.8288  0.0841
  105GLOH   H07 9648   1.487   1.936   0.987  0.1516 -1.2919 -0.5320
  105GLOH    O3 9649   1.526   2.024   0.807 -0.0742  0.6182  0.1308
  105GLOH   H01 9650   1.493   2.114   0.790  0.8870  0.6048 -1.8874
  106GLOH   H03 9651   3.531   6.825   2.704  2.2435 -0.8970  1.4337
  106GLOH    O1 9652   3.565   6.795   2.618 -0.0196  0.6044 -0.0291
  106GLOH    C1 9653   3.709   6.778   2.616 -0.1584  0.3124  0.1991
  106GLOH   H02 9654   3.744   6.840   2.699  0.2851  0.6010 -0.1958
  106GLOH   H08 9655   3.755   6.825   2.529  1.7193  1.1252  1.5945
  106GLOH    C2 9656   3.764   6.634   2.615 -0.2234  0.2009  0.6741
  106GLOH   H04 9657   3.741   6.584   2.520  1.3521  1.6024 -0.4786
  106GLOH    O2 9658   3.908   6.640   2.633 -0.2885  0.5183 -0.5476
  106GLOH   H05 9659   3.927   6.731   2.660  0.8776  0.0908  0.1219
  106GLOH    C3 9660   3.702   6.567   2.735 -0.4229  0.2138  0.2436
  106GLOH   H06 9661   3.608   6.618   2.754 -1.0590 -0.2458 -1.5125
  106GLOH   H07 9662   3.763   6.582   2.823  0.3289 -0.9684 -0.0632
  106GLOH    O3 9663   3.678   6.425   2.726 -0.2055 -0.3718 -0.7221
  106GLOH   H01 9664   3.760   6.396   2.684  1.6761  2.2194  1.0260
  107GLOH   H03 9665   9.528   5.290   1.409 -2.1825  2.0245 -1.0199
  107GLOH    O1 9666   9.558   5.335   1.490 -0.5789  0.1603 -0.5423
  107GLOH    C1 9667   9.480   5.287   1.601 -0.7781  0.1231 -0.4127
  107GLOH   H02 9668   9.374   5.313   1.594 -0.4445  2.2104  1.6478
  107GLOH   H08 9669   9.522   5.316   1.697  2.5858 -1.7113 -1.2589
  107GLOH    C2 9670   9.477   5.136   1.607  0.9355 -0.4698  0.5723
  107GLOH   H04 9671   9.443   5.101   1.508  0.9939 -0.9957  0.7355
  107GLOH    O2 9672   9.602   5.069   1.631 -0.5134  0.0418  0.1840
  107GLOH   H05 9673   9.649   5.056   1.546 -1.9376 -4.3657 -0.0790
  107GLOH    C3 9674   9.382   5.082   1.712  0.1516 -0.2061 -0.2640
  107GLOH   H06 9675   9.431   5.095   1.809 -0.3283  2.6482 -0.3617
  107GLOH   H07 9676   9.365   4.976   1.696 -1.9832 -0.1185  1.2468
  107GLOH    O3 9677   9.251   5.142   1.712  0.0350  0.0653  0.3611
  107GLOH   H01 9678   9.199   5.080   1.766 -1.0275  0.9481  0.3944
  108GLOH   H03 9679   5.431   0.974   2.683  1.0676 -3.1153  0.6299
  108GLOH    O1 9680   5.489   1.000   2.609 -0.2537  0.1460  0.6669
  108GLOH    C1 9681   5.587   0.898   2.607  0.1435  0.5111 -0.1714
  108GLOH   H02 9682   5.563   0.828   2.527  0.9412  1.0420 -0.8936
  108GLOH   H08 9683   5.589   0.841   2.699 -0.0137  1.7750  0.6227
  108GLOH    C2 9684   5.726   0.964   2.582 -0.1172  0.1022  0.8106
  108GLOH   H04 9685   5.745   1.044   2.656  0.4576 -0.2107  1.0024
  108GLOH    O2 9686   5.825   0.854   2.591 -0.9370 -0.3709  0.1528
  108GLOH   H05 9687   5.901   0.883   2.644 -0.3785 -1.0484 -0.2621
  108GLOH    C3 9688   5.728   1.028   2.443 -0.1502 -0.1009 -0.5375
  108GLOH   H06 9689   5.723   0.956   2.361 -0.7685 -2.4548  1.5117
  108GLOH   H07 9690   5.832   1.059   2.432 -1.1330  3.1299 -1.1690
  108GLOH    O3 9691   5.647   1.146   2.427  0.4226 -0.4545 -0.0376
  108GLOH   H01 9692   5.555   1.125   2.452  0.0226  1.3138  0.0841
  109GLOH   H03 9693   2.677   2.227   1.329  1.5916 -0.5638  1.8025
  109GLOH    O1 9694   2.630   2.142   1.336  0.5399 -0.1187  0.1708
  109GLOH    C1 9695   2.736   2.038   1.326 -0.3267 -0.3323 -0.3280
  109GLOH   H02 9696   2.827   2.081   1.368 -0.2778  0.5881 -1.3576
  109GLOH   H08 9697   2.765   2.013   1.224  0.7279 -2.3044  0.4327
  109GLOH    C2 9698   2.724   1.901   1.399 -0.8747 -0.4309  0.3194
  109GLOH   H04 9699   2.823   1.855   1.385 -1.0149 -0.5731 -0.2080
  109GLOH    O2 9700   2.697   1.920   1.536  0.3531 -0.6252  0.1767
  109GLOH   H05 9701   2.783   1.934   1.579 -0.2532  0.7320  0.9580
  109GLOH    C3 9702   2.605   1.823   1.331 -0.1769 -0.3148 -0.0444
  109GLOH   H06 9703   2.517   1.888   1.324 -1.9435 -2.4493  1.5865
  109GLOH   H07 9704   2.581   1.738   1.395  0.4535 -1.1162 -0.8809
  109GLOH    O3 9705   2.637   1.792   1.196 -0.7101 -0.2148  0.4506
  109GLOH   H01 9706   2.554   1.775   1.149  0.5159 -2.5479 -0.9293
  110GLOH   H03 9707   4.992   9.363   1.686 -0.6613  0.7676 -1.3709
  110GLOH    O1 9708   4.915   9.366   1.747  0.3759  0.6395 -0.0275
  110GLOH    C1 9709   4.885   9.234   1.793  0.0008  0.5319 -0.0206
  110GLOH   H02 9710   4.843   9.180   1.708  2.6785 -0.7672 -0.5489
  110GLOH   H08 9711   4.805   9.238   1.867 -0.9848 -0.5386 -1.0058
  110GLOH    C2 9712   5.011   9.166   1.840 -0.2934 -0.5477 -0.1369
  110GLOH   H04 9713   5.039   9.239   1.918  0.9398 -1.5044  0.3348
  110GLOH    O2 9714   4.980   9.037   1.888 -0.6057  0.0630 -0.4164
  110GLOH   H05 9715   5.053   8.979   1.914  0.7125  1.9995  0.3006
  110GLOH    C3 9716   5.121   9.162   1.734 -0.1141 -0.1648 -0.7551
  110GLOH   H06 9717   5.105   9.091   1.652  1.3952 -1.3781 -0.0331
  110GLOH   H07 9718   5.214   9.135   1.784 -1.4742 -0.7107  1.5518
  110GLOH    O3 9719   5.150   9.292   1.674  0.3289 -0.4780  0.5134
  110GLOH   H01 9720   5.242   9.312   1.701  0.2761  1.4263 -0.6147
  111GLOH   H03 9721   4.531   2.224   2.458  0.0441 -0.3681 -0.4685
  111GLOH    O1 9722   4.435   2.212   2.458  0.0266 -0.2672  0.7733
  111GLOH    C1 9723   4.370   2.341   2.475 -0.3301 -0.1879 -0.1294
  111GLOH   H02 9724   4.262   2.330   2.485 -0.6099  1.6180 -0.9378
  111GLOH   H08 9725   4.385   2.405   2.388  1.1443 -0.4504 -0.0907
  111GLOH    C2 9726   4.431   2.411   2.599  0.1113  0.3844 -0.8816
  111GLOH   H04 9727   4.541   2.402   2.595  0.3186  1.8100  0.7293
  111GLOH    O2 9728   4.394   2.548   2.604  0.3376  0.4177  0.1435
  111GLOH   H05 9729   4.401   2.598   2.521  0.2315  1.5570  0.8139
  111GLOH    C3 9730   4.397   2.338   2.738  0.5726  0.3600  0.0987
  111GLOH   H06 9731   4.450   2.397   2.813  0.2055 -0.7760  1.2734
  111GLOH   H07 9732   4.456   2.247   2.734 -0.0312 -0.1058  1.4822
  111GLOH    O3 9733   4.258   2.319   2.767 -0.0630  0.1182  0.2426
  111GLOH   H01 9734   4.211   2.397   2.734  1.0792 -0.0805 -1.9784
  112GLOH   H03 9735   9.240   8.923   3.473 -1.2429  2.7253  0.8402
  112GLOH    O1 9736   9.333   8.938   3.446 -0.8605 -0.4967  0.1692
  112GLOH    C1 9737   9.358   8.825   3.355  0.1644  0.1511  0.0397
  112GLOH   H02 9738   9.440   8.850   3.287 -0.3646  2.6214  0.2871
  112GLOH   H08 9739   9.270   8.803   3.295 -1.1056 -0.0548  1.9438
  112GLOH    C2 9740   9.404   8.693   3.424  0.2829 -0.5317  0.2376
  112GLOH   H04 9741   9.323   8.667   3.495  1.5353 -1.1892  1.4531
  112GLOH    O2 9742   9.417   8.582   3.331  0.0159 -0.4033  0.5043
  112GLOH   H05 9743   9.327   8.552   3.310 -0.1586  0.1002  0.5213
  112GLOH    C3 9744   9.539   8.707   3.496 -0.8361  0.3505 -0.2695
  112GLOH   H06 9745   9.613   8.746   3.426 -0.6325 -0.7529 -0.6934
  112GLOH   H07 9746   9.569   8.603   3.511  2.2462  1.1232 -0.6241
  112GLOH    O3 9747   9.525   8.787   3.615 -0.0496 -0.4254  0.0134
  112GLOH   H01 9748   9.611   8.774   3.658  0.1117  0.8203  0.0919
  113GLOH   H03 9749   7.040   0.098   0.756  1.0923 -0.3010  1.2575
  113GLOH    O1 9750   7.060   0.194   0.756 -0.1389 -0.0330 -0.8662
  113GLOH    C1 9751   7.045   0.241   0.893 -0.0610 -0.2097  0.1825
  113GLOH   H02 9752   7.047   0.158   0.964  0.1187  0.3164  0.7929
  113GLOH   H08 9753   6.947   0.288   0.895  0.0963  0.0605  1.7089
  113GLOH    C2 9754   7.127   0.355   0.938  0.2342  0.4478  0.5877
  113GLOH   H04 9755   7.124   0.425   0.853 -3.0356  2.1433  2.0070
  113GLOH    O2 9756   7.063   0.416   1.054 -0.1029 -0.1988  0.2037
  113GLOH   H05 9757   7.069   0.354   1.129  0.3265 -1.6336 -0.9895
  113GLOH    C3 9758   7.269   0.309   0.971  0.4933 -0.0802 -0.1901
  113GLOH   H06 9759   7.267   0.270   1.073 -0.9212  0.8914  0.1784
  113GLOH   H07 9760   7.333   0.396   0.976 -0.4460  0.7194 -1.7409
  113GLOH    O3 9761   7.324   0.228   0.864 -0.5414  0.4586 -0.5564
  113GLOH   H01 9762   7.421   0.228   0.871 -0.5631  0.3937 -0.2471
  114GLOH   H03 9763   7.745   9.576   2.590  2.1146  2.4034  0.9357
  114GLOH    O1 9764   7.805   9.560   2.515  0.1272  0.1488 -0.2537
  114GLOH    C1 9765   7.941   9.554   2.568 -0.4226  0.6599  0.2277
  114GLOH   H02 9766   8.009   9.500   2.503 -0.2757  1.5580 -0.3788
  114GLOH   H08 9767   7.937   9.502   2.664 -0.8636 -1.3861 -0.8847
  114GLOH    C2 9768   8.003   9.691   2.593 -0.6484 -0.7596  0.1476
  114GLOH   H04 9769   7.923   9.752   2.637 -0.0017 -0.3484  0.7716
  114GLOH    O2 9770   8.118   9.663   2.679 -0.0047 -0.0412  0.0072
  114GLOH   H05 9771   8.178   9.598   2.638  3.1884  1.8020  1.4866
  114GLOH    C3 9772   8.045   9.750   2.458  0.8670 -1.1599  0.0992
  114GLOH   H06 9773   7.961   9.739   2.388  0.5225 -0.1736  0.3504
  114GLOH   H07 9774   8.119   9.678   2.422  1.5989  0.4903 -1.7696
  114GLOH    O3 9775   8.105   9.879   2.465  1.0082  0.5916 -0.2294
  114GLOH   H01 9776   8.198   9.864   2.490  1.0135 -0.2494 -0.7227
  115GLOH   H03 9777   6.004   8.735   1.608 -1.3613 -1.8966  1.3683
  115GLOH    O1 9778   6.047   8.662   1.559 -0.2267 -0.3881  0.0799
  115GLOH    C1 9779   6.061   8.560   1.658  0.3606  0.0557  0.1371
  115GLOH   H02 9780   6.015   8.472   1.612 -0.6835  1.2670 -1.1757
  115GLOH   H08 9781   6.007   8.577   1.750  0.2796  1.7524 -0.2127
  115GLOH    C2 9782   6.208   8.519   1.688 -0.2142 -0.4165 -0.2668
  115GLOH   H04 9783   6.244   8.608   1.742 -1.0301  1.0392 -2.0683
  115GLOH    O2 9784   6.223   8.412   1.790 -0.4383 -0.0052 -0.4663
  115GLOH   H05 9785   6.313   8.374   1.792 -0.5973 -0.4652 -1.5951
  115GLOH    C3 9786   6.284   8.489   1.561  0.3823  0.8912 -0.5744
  115GLOH   H06 9787   6.255   8.561   1.484  1.3533  2.5131  0.5676
  115GLOH   H07 9788   6.245   8.391   1.532 -0.8465  1.8492 -2.2663
  115GLOH    O3 9789   6.427   8.491   1.586  0.4767  0.7249  0.3985
  115GLOH   H01 9790   6.452   8.424   1.653  0.0254 -1.1768 -1.3012
  116GLOH   H03 9791   2.402   9.957   4.125 -0.0665 -1.3784  1.9095
  116GLOH    O1 9792   2.410  10.041   4.174  0.2923 -0.3486  0.1044
  116GLOH    C1 9793   2.467  10.000   4.300 -0.0359  0.8616  0.0547
  116GLOH   H02 9794   2.420   9.912   4.345 -1.7882  2.3718  1.2861
  116GLOH   H08 9795   2.455  10.081   4.373  2.2877  0.6642  0.6758
  116GLOH    C2 9796   2.620   9.968   4.314  0.5402  0.4932 -0.5426
  116GLOH   H04 9797   2.648   9.905   4.229  0.7211  0.2421 -0.2944
  116GLOH    O2 9798   2.696  10.095   4.308  0.9987 -0.4547  0.3384
  116GLOH   H05 9799   2.642  10.157   4.359  0.0642 -1.2636  0.3411
  116GLOH    C3 9800   2.673   9.896   4.435 -0.3401  0.1444  0.5741
  116GLOH   H06 9801   2.626   9.952   4.516  0.3326  0.3248  0.8408
  116GLOH   H07 9802   2.781   9.903   4.449 -0.3998 -0.1137  1.2231
  116GLOH    O3 9803   2.632   9.753   4.446  0.4086  0.3788  0.3931
  116GLOH   H01 9804   2.652   9.691   4.373  0.3792  0.8737 -0.0400
  117GLOH   H03 9805   0.855   2.056   0.801  1.0565  0.2347 -1.9090
  117GLOH    O1 9806   0.761   2.062   0.776  0.6783 -0.0008 -0.5650
  117GLOH    C1 9807   0.700   1.957   0.845  0.0406 -0.6804 -0.4395
  117GLOH   H02 9808   0.594   1.979   0.853  0.5896  1.8730  0.0991
  117GLOH   H08 9809   0.742   1.944   0.944  1.5972 -0.7866 -1.1022
  117GLOH    C2 9810   0.723   1.831   0.768  1.1277 -0.3200  0.2610
  117GLOH   H04 9811   0.831   1.808   0.762  1.3159  0.9285 -1.3980
  117GLOH    O2 9812   0.670   1.719   0.846  0.1401  0.4132 -0.2515
  117GLOH   H05 9813   0.708   1.730   0.935 -2.7693 -0.1428  1.1221
  117GLOH    C3 9814   0.658   1.836   0.626 -0.2162 -0.5468  0.2474
  117GLOH   H06 9815   0.552   1.850   0.646 -0.2697  2.5419 -1.9169
  117GLOH   H07 9816   0.651   1.738   0.578  0.0267 -1.1577  1.4437
  117GLOH    O3 9817   0.710   1.949   0.553  0.1626 -0.4082  0.2706
  117GLOH   H01 9818   0.711   2.027   0.611 -0.1416 -1.3001  1.4998
  118GLOH   H03 9819   2.020   9.954   0.044  1.3290 -0.4831  1.5720
  118GLOH    O1 9820   1.957   9.901   0.096  0.4676 -0.5376  0.4949
  118GLOH    C1 9821   2.010   9.865   0.225  0.4575 -0.4491  0.4417
  118GLOH   H02 9822   2.023   9.957   0.283  0.1736  2.3090 -3.6256
  118GLOH   H08 9823   2.111   9.824   0.221  0.1287 -1.1423 -1.2480
  118GLOH    C2 9824   1.929   9.775   0.312  0.5191  0.0688 -0.8182
  118GLOH   H04 9825   1.996   9.735   0.390 -0.7190 -0.2998  0.0788
  118GLOH    O2 9826   1.824   9.860   0.371  0.1789 -0.0978 -0.4323
  118GLOH   H05 9827   1.869   9.907   0.443 -0.4494 -3.4830  2.3073
  118GLOH    C3 9828   1.869   9.663   0.216  0.5640 -0.2544  0.1281
  118GLOH   H06 9829   1.909   9.683   0.116  0.4087  0.7719  0.2623
  118GLOH   H07 9830   1.761   9.673   0.208  0.7172  0.4348 -1.4031
  118GLOH    O3 9831   1.906   9.531   0.255 -0.0607 -0.1513  0.3329
  118GLOH   H01 9832   1.866   9.469   0.191 -0.7084  0.8960 -0.2874
  119GLOH   H03 9833   6.133   0.308   3.472  0.0205  1.6845 -0.7068
  119GLOH    O1 9834   6.046   0.313   3.516  0.3074  0.3671  0.0206
  119GLOH    C1 9835   5.959   0.225   3.433  0.1494 -0.0668  0.3733
  119GLOH   H02 9836   5.857   0.222   3.472  0.1952  2.3058  0.7634
  119GLOH   H08 9837   5.992   0.121   3.437 -1.6868 -0.6290  1.0658
  119GLOH    C2 9838   5.940   0.268   3.290  0.9222 -0.2444  0.3370
  119GLOH   H04 9839   6.036   0.285   3.240  0.9022 -0.3855  0.2481
  119GLOH    O2 9840   5.860   0.172   3.221 -0.2708 -0.1432  1.1718
  119GLOH   H05 9841   5.889   0.121   3.143  0.8807  3.8458 -1.1190
  119GLOH    C3 9842   5.866   0.405   3.281  0.6181  0.1145  0.9627
  119GLOH   H06 9843   5.762   0.402   3.313  0.0868  0.0846 -0.7618
  119GLOH   H07 9844   5.866   0.447   3.181 -1.7498 -1.0192  0.4651
  119GLOH    O3 9845   5.937   0.501   3.359  0.0745 -0.1985 -0.2941
  119GLOH   H01 9846   5.983   0.455   3.433 -0.0334  0.2686  0.0656
  120GLOH   H03 9847   0.031   8.779   4.247  0.9230 -0.6587 -3.1563
  120GLOH    O1 9848   0.120   8.759   4.283 -0.1371 -0.1626 -0.0349
  120GLOH    C1 9849   0.107   8.659   4.380 -0.0609  0.0443  0.4196
  120GLOH   H02 9850   0.044   8.692   4.462  0.3075 -1.9265  1.5338
  120GLOH   H08 9851   0.208   8.645   4.420 -0.0081  0.6485  0.5102
  120GLOH    C2 9852   0.052   8.517   4.328  0.1612 -0.4420 -0.4884
  120GLOH   H04 9853   0.064   8.446   4.411  2.1523  1.3110  0.7894
  120GLOH    O2 9854  -0.086   8.496   4.293  0.7802 -0.1262 -0.1441
  120GLOH   H05 9855  -0.118   8.409   4.262  0.1201  0.2944 -0.6614
  120GLOH    C3 9856   0.148   8.474   4.215  0.3444 -0.2479 -0.3860
  120GLOH   H06 9857   0.252   8.485   4.242  0.5633 -1.7394 -0.5961
  120GLOH   H07 9858   0.129   8.551   4.139 -0.6571  1.1976  1.2838
  120GLOH    O3 9859   0.128   8.343   4.153 -0.6635 -0.2710 -0.1697
  120GLOH   H01 9860   0.120   8.273   4.220  0.6947 -0.8655 -0.6216
  121ACOH    H4 9861   5.512   6.326   2.440 -0.3988  0.1801  3.6250
  121ACOH    O2 9862   5.420   6.300   2.423  0.3581 -0.2624 -0.2050
  121ACOH    C2 9863   5.383   6.350   2.303  0.0650  0.7054  0.7391
  121ACOH    O1 9864   5.434   6.438   2.235  0.1007  0.7199 -0.4623
  121ACOH    C1 9865   5.247   6.302   2.274  0.6360  0.4252 -0.3187
  121ACOH    H1 9866   5.170   6.377   2.291 -0.0793 -0.1962 -0.7712
  121ACOH    H2 9867   5.229   6.216   2.339  1.5564  0.2833 -0.2481
  121ACOH    H3 9868   5.257   6.274   2.170  0.8300 -1.1293  0.1104
  122ACOH    H4 9869   7.791   6.973   0.673  0.2494  4.7009  2.3144
  122ACOH    O2 9870   7.699   6.957   0.699  0.1919  0.3241 -0.0050
  122ACOH    C2 9871   7.691   6.895   0.814 -0.4808 -0.5142  0.2029
  122ACOH    O1 9872   7.793   6.855   0.867  1.2878  0.0674 -0.1617
  122ACOH    C1 9873   7.554   6.884   0.873  0.3037  0.3605 -0.3619
  122ACOH    H1 9874   7.562   6.878   0.981 -1.0361  0.9886 -0.2096
  122ACOH    H2 9875   7.498   6.800   0.833 -0.6404 -0.3150  2.2728
  122ACOH    H3 9876   7.501   6.978   0.855 -0.6950  0.5575  3.1854
  123ACOH    H4 9877   4.030   5.116   2.172  1.0280 -1.0658  1.7073
  123ACOH    O2 9878   4.087   5.194   2.182 -0.2897  0.2931 -1.0516
  123ACOH    C2 9879   4.017   5.283   2.250 -0.1865 -0.4073 -0.0094
  123ACOH    O1 9880   3.935   5.261   2.338  0.7838  0.3976  0.2910
  123ACOH    C1 9881   4.096   5.414   2.248  0.6580  0.0771  0.5152
  123ACOH    H1 9882   4.095   5.467   2.153  0.7699  0.2971  0.6375
  123ACOH    H2 9883   4.196   5.387   2.282  0.9856  0.4526 -0.1371
  123ACOH    H3 9884   4.058   5.484   2.322 -0.7565  0.4882 -0.5682
  124ACOH    H4 9885   7.072   7.275   1.678  2.0795  1.5307  2.0390
  124ACOH    O2 9886   7.019   7.261   1.758 -0.7846 -0.3059 -0.0889
  124ACOH    C2 9887   7.095   7.200   1.844 -0.4465  0.0475  0.8208
  124ACOH    O1 9888   7.213   7.168   1.825 -0.1938  0.3775  0.0697
  124ACOH    C1 9889   7.033   7.184   1.972  0.0764 -0.3056  0.4359
  124ACOH    H1 9890   7.086   7.246   2.044  0.7244  0.8422 -0.9986
  124ACOH    H2 9891   7.039   7.079   2.001  1.4209 -0.5665 -0.7001
  124ACOH    H3 9892   6.928   7.212   1.963  0.7295  1.8744 -0.8182
  125ACOH    H4 9893   9.632   0.321   4.323 -2.3611 -0.2479  0.0815
  125ACOH    O2 9894   9.641   0.408   4.366 -0.0772 -0.2678 -0.2946
  125ACOH    C2 9895   9.569   0.408   4.479  0.2980 -0.3212 -0.2442
  125ACOH    O1 9896   9.500   0.318   4.530 -0.0208 -0.9008 -0.0385
  125ACOH    C1 9897   9.573   0.537   4.548 -1.2550 -0.4444  0.5673
  125ACOH    H1 9898   9.618   0.609   4.479 -0.3967  1.2791  2.8496
  125ACOH    H2 9899   9.639   0.538   4.635  0.8281  3.7851 -0.9152
  125ACOH    H3 9900   9.471   0.569   4.567 -1.9847 -0.2712 -3.2719
  126ACOH    H4 9901   4.620   1.771   3.087  0.3191 -0.9101  2.1766
  126ACOH    O2 9902   4.683   1.835   3.126  0.4180  0.0622  0.4829
  126ACOH    C2 9903   4.757   1.762   3.212  0.7198  0.3977  0.3877
  126ACOH    O1 9904   4.729   1.651   3.260  0.2924  0.3112  0.2351
  126ACOH    C1 9905   4.834   1.860   3.299  0.0066  1.1230  0.1281
  126ACOH    H1 9906   4.915   1.911   3.247  0.3189  2.1251  1.5621
  126ACOH    H2 9907   4.871   1.819   3.393  0.2641 -1.4615 -1.0577
  126ACOH    H3 9908   4.759   1.935   3.325 -0.5821  0.3103  0.7891
  127ACOH    H4 9909   4.131   6.367   2.322 -2.8117 -1.0200  0.1157
  127ACOH    O2 9910   4.158   6.360   2.416 -0.6898  0.4301 -0.3443
  127ACOH    C2 9911   4.050   6.360   2.498 -0.5291  0.8224 -0.2884
  127ACOH    O1 9912   3.936   6.369   2.456  0.2527  0.6867  0.0630
  127ACOH    C1 9913   4.088   6.334   2.636  0.0252 -0.4484  0.6502
  127ACOH    H1 9914   4.042   6.244   2.677 -1.5565  0.4978  0.9927
  127ACOH    H2 9915   4.059   6.420   2.697  0.8066  1.6435 -1.8097
  127ACOH    H3 9916   4.196   6.323   2.644  0.3312 -0.3471 -2.4640
  128ACOH    H4 9917   4.173   3.819   2.110  0.5115  0.6497 -1.0519
  128ACOH    O2 9918   4.153   3.908   2.144 -0.2483  0.2490 -0.4293
  128ACOH    C2 9919   4.160   3.987   2.034 -0.2698  0.2921 -0.2141
  128ACOH    O1 9920   4.223   3.970   1.936 -0.0844 -0.1591 -0.3179
  128ACOH    C1 9921   4.090   4.113   2.062 -0.3508 -0.0492 -0.0290
  128ACOH    H1 9922   4.054   4.148   1.965  0.4963 -0.5931 -0.5496
  128ACOH    H2 9923   4.170   4.176   2.101 -0.6817  2.5482 -3.3042
  128ACOH    H3 9924   4.015   4.102   2.140  0.1536  2.1819  0.8304
  129ACOH    H4 9925   7.870   6.200   2.421  1.6340  0.3958  0.5303
  129ACOH    O2 9926   7.820   6.221   2.501  0.2626  0.0740 -0.2179
  129ACOH    C2 9927   7.732   6.121   2.525 -1.0277 -0.3931 -0.1665
  129ACOH    O1 9928   7.696   6.039   2.441  0.0015 -0.2455 -0.6805
  129ACOH    C1 9929   7.665   6.127   2.654 -0.2323  0.5735 -0.1830
  129ACOH    H1 9930   7.570   6.074   2.652  0.8552 -1.4152 -2.9992
  129ACOH    H2 9931   7.657   6.232   2.681  1.4502  0.8263 -0.6256
  129ACOH    H3 9932   7.727   6.077   2.728  0.8690  1.7249 -0.3130
  130ACOH    H4 9933   2.871   0.812   3.865 -1.0942 -0.6294  0.3030
  130ACOH    O2 9934   2.830   0.898   3.843  0.4101  0.0949  0.3144
  130ACOH    C2 9935   2.754   0.884   3.730  0.2600  0.2979  0.6166
  130ACOH    O1 9936   2.741   0.974   3.645 -0.1697  0.0151  0.0052
  130ACOH    C1 9937   2.708   0.748   3.691  0.6559 -0.6422 -0.0022
  130ACOH    H1 9938   2.600   0.749   3.678  0.4416 -0.9931  1.6893
  130ACOH    H2 9939   2.744   0.669   3.757  2.8274  1.2656  1.1496
  130ACOH    H3 9940   2.746   0.735   3.589 -0.5509 -0.8523 -0.4338
  131ACOH    H4 9941   4.502   5.302   1.007  1.3039  2.4386  1.6627
  131ACOH    O2 9942   4.432   5.357   0.967  0.1345 -0.1399 -0.0310
  131ACOH    C2 9943   4.331   5.372   1.057  0.0306 -0.2214  0.2350
  131ACOH    O1 9944   4.307   5.298   1.148 -0.5090 -0.0589  0.3775
  131ACOH    C1 9945   4.232   5.458   0.995  0.8574  0.1178 -0.0318
  131ACOH    H1 9946   4.266   5.552   0.951  2.3430 -0.1953  0.4246
  131ACOH    H2 9947   4.150   5.488   1.061  0.7831 -1.2482  0.4979
  131ACOH    H3 9948   4.190   5.400   0.913 -0.6734  0.2875  0.6188
  132ACOH    H4 9949   4.559   3.235   3.068  1.4190  0.6842  0.7247
  132ACOH    O2 9950   4.595   3.145   3.055 -0.0069  0.1807  0.2128
  132ACOH    C2 9951   4.504   3.065   3.110  0.1323 -0.2292  0.0618
  132ACOH    O1 9952   4.415   3.103   3.182 -0.5619  0.2765 -0.3375
  132ACOH    C1 9953   4.520   2.925   3.063 -0.3173  0.1384 -0.4238
  132ACOH    H1 9954   4.454   2.857   3.116 -1.1469  2.2631  1.3778
  132ACOH    H2 9955   4.623   2.898   3.085  0.1686  0.8111 -1.8039
  132ACOH    H3 9956   4.500   2.928   2.956 -1.6529  0.6850 -0.1729
  133ACOH    H4 9957   6.293   7.037   3.333 -0.9082 -0.3780  1.1192
  133ACOH    O2 9958   6.280   7.118   3.387  0.0906  0.0879  0.6817
  133ACOH    C2 9959   6.389   7.116   3.466 -0.0570 -0.0420 -1.0436
  133ACOH    O1 9960   6.479   7.036   3.475  0.6825 -0.1632 -0.1662
  133ACOH    C1 9961   6.367   7.222   3.570 -0.4718 -0.1151  0.3435
  133ACOH    H1 9962   6.457   7.282   3.589 -0.6147  0.6896 -1.4939
  133ACOH    H2 9963   6.348   7.170   3.664 -1.1600 -1.7606 -0.6989
  133ACOH    H3 9964   6.287   7.292   3.549  0.6766  1.0925 -0.0732
  134ACOH    H4 9965   5.216   1.944   2.263  0.3676  1.0526  0.0835
  134ACOH    O2 9966   5.301   1.899   2.275 -0.0236  0.0931 -0.7153
  134ACOH    C2 9967   5.287   1.845   2.401  0.0439 -0.5539 -0.0232
  134ACOH    O1 9968   5.189   1.843   2.471 -0.4358  0.1419 -0.2423
  134ACOH    C1 9969   5.407   1.761   2.420 -0.2347  0.3420 -0.0058
  134ACOH    H1 9970   5.384   1.655   2.427  1.1208  0.0205 -0.1890
  134ACOH    H2 9971   5.452   1.787   2.516  1.0044 -3.3645  0.5147
  134ACOH    H3 9972   5.478   1.780   2.339 -0.1465 -0.6536 -0.1720
  135ACOH    H4 9973   3.896   5.253   1.275 -0.8988 -0.2094  0.5016
  135ACOH    O2 9974   3.896   5.342   1.237 -0.3369 -0.4941 -0.1705
  135ACOH    C2 9975   3.802   5.339   1.138  0.6280  0.4848 -0.0325
  135ACOH    O1 9976   3.715   5.259   1.118 -0.2222 -0.1363 -0.2503
  135ACOH    C1 9977   3.803   5.465   1.070  0.3255 -0.0925 -0.3628
  135ACOH    H1 9978   3.808   5.549   1.140  0.6096 -1.5775  1.4626
  135ACOH    H2 9979   3.727   5.472   0.993  1.4843 -0.4330 -1.5549
  135ACOH    H3 9980   3.900   5.465   1.020 -0.6363 -0.7527 -2.2655
  136ACOH    H4 9981   4.602   7.302   3.801 -0.4482 -0.1918  3.6626
  136ACOH    O2 9982   4.678   7.242   3.813  0.2091 -0.0783  0.5360
  136ACOH    C2 9983   4.684   7.158   3.710  0.7105  0.1175  0.1472
  136ACOH    O1 9984   4.580   7.118   3.657  0.0692  0.1942 -0.2420
  136ACOH    C1 9985   4.807   7.067   3.713  0.2515 -0.3464 -0.0534
  136ACOH    H1 9986   4.850   7.077   3.812 -0.4373  0.7509  0.1368
  136ACOH    H2 9987   4.880   7.108   3.643 -1.4398 -1.1030 -2.3391
  136ACOH    H3 9988   4.784   6.961   3.698 -0.1470 -0.2599 -0.0524
  137ACOH    H4 9989   3.623   7.163   1.953  0.4721  0.1613 -0.6179
  137ACOH    O2 9990   3.678   7.083   1.955  0.0431 -0.1196 -0.0571
  137ACOH    C2 9991   3.653   7.004   1.842  0.3055 -0.9754  0.0668
  137ACOH    O1 9992   3.557   7.023   1.769  0.3846  0.1648  0.1959
  137ACOH    C1 9993   3.714   6.872   1.847  0.0336 -0.0231  0.0655
  137ACOH    H1 9994   3.636   6.798   1.827 -1.1862  0.7029  2.0311
  137ACOH    H2 9995   3.764   6.849   1.941  1.0906 -0.8212 -0.6761
  137ACOH    H3 9996   3.791   6.877   1.770  0.0859  3.0800  0.2660
  138ACOH    H4 9997   5.374   1.052   2.496 -0.7016  0.8393 -0.0551
  138ACOH    O2 9998   5.350   1.064   2.402 -0.0230 -0.4285 -0.4072
  138ACOH    C2 9999   5.230   1.004   2.382  0.2747 -0.4509  0.8260
  138ACOH    O110000   5.174   0.933   2.461 -0.1153  0.1479  0.3044
  138ACOH    C110001   5.182   1.060   2.255  0.4620 -0.0812 -0.4641
  138ACOH    H110002   5.178   1.168   2.258  1.4057 -0.0632  0.5166
  138ACOH    H210003   5.080   1.027   2.231 -0.4228  2.4702 -0.2993
  138ACOH    H310004   5.250   1.033   2.174  0.0552 -1.0348 -0.4959
  139ACOH    H410005   4.978   4.854   0.863 -0.0322  0.7182  0.5149
  139ACOH    O210006   5.063   4.844   0.817 -0.2764 -0.1304  0.2545
  139ACOH    C210007   5.135   4.957   0.832 -0.1608  0.1929  0.1969
  139ACOH    O110008   5.109   5.055   0.903 -0.3019 -0.0840  0.0350
  139ACOH    C110009   5.262   4.927   0.763  0.2436 -0.6152 -0.4835
  139ACOH    H110010   5.328   4.991   0.820 -0.1669 -1.2772  0.7681
  139ACOH    H210011   5.261   4.959   0.659  1.4900  1.5377  0.1390
  139ACOH    H310012   5.297   4.824   0.777 -0.0258 -0.7560 -0.8300
  140ACOH    H410013   5.905   0.904   3.185 -0.9907 -1.1238 -2.5853
  140ACOH    O210014   5.920   0.999   3.170  0.1733 -0.7498  0.6719
  140ACOH    C210015   5.819   1.067   3.225 -0.4118  0.4974  0.2557
  140ACOH    O110016   5.713   1.023   3.266  0.2354 -0.1596 -0.3989
  140ACOH    C110017   5.866   1.200   3.253  0.5627 -0.0654 -0.1888
  140ACOH    H110018   5.817   1.267   3.183  0.1193  1.4711  1.5387
  140ACOH    H210019   5.974   1.210   3.236  0.5448  2.3190  0.8888
  140ACOH    H310020   5.834   1.232   3.352  1.0307 -2.1529  0.6718
  141ACOH    H410021   8.767   5.833   0.815  0.9482  0.3758 -1.2522
  141ACOH    O210022   8.714   5.828   0.734 -0.5512 -0.3785 -0.2408
  141ACOH    C210023   8.747   5.701   0.708  0.5929 -0.3600  0.3970
  141ACOH    O110024   8.815   5.625   0.772 -0.6563 -0.1494  0.0996
  141ACOH    C110025   8.681   5.647   0.585  0.8658 -0.7585 -0.3411
  141ACOH    H110026   8.611   5.569   0.615  0.0111  0.3206  0.5191
  141ACOH    H210027   8.758   5.598   0.526  0.0475 -0.8207 -1.3800
  141ACOH    H310028   8.629   5.725   0.529  1.7031  0.8162  1.0211
  142ACOH    H410029   8.271   5.934   2.755 -1.1701  0.9331  0.3658
  142ACOH    O210030   8.267   5.941   2.852 -0.2971  0.4351  0.4431
  142ACOH    C210031   8.341   5.836   2.894 -0.5666  0.4804  0.6174
  142ACOH    O110032   8.368   5.730   2.844 -0.2345 -0.4996  0.8489
  142ACOH    C110033   8.361   5.853   3.039 -0.4591  0.5190 -0.2998
  142ACOH    H110034   8.270   5.820   3.090  1.0382 -0.5626  1.7301
  142ACOH    H210035   8.382   5.955   3.073  0.3270  0.1647  0.2998
  142ACOH    H310036   8.437   5.782   3.071 -0.2014  0.1095 -1.8152
  143ACOH    H410037   7.723   7.511   4.337  0.4476 -2.9156  0.7151
  143ACOH    O210038   7.644   7.480   4.290 -0.0000 -0.0218 -0.5518
  143ACOH    C210039   7.643   7.498   4.157  0.0340  0.4521  0.7024
  143ACOH    O110040   7.744   7.535   4.094 -0.1519 -0.1875  0.6208
  143ACOH    C110041   7.533   7.416   4.096 -0.6690 -0.1968 -0.0025
  143ACOH    H110042   7.452   7.397   4.168 -1.1017  2.2308  0.1861
  143ACOH    H210043   7.578   7.322   4.066  0.1025  0.0825  0.2812
  143ACOH    H310044   7.498   7.478   4.014 -1.0845 -0.1914  0.1747
  144ACOH    H410045   3.693   7.332   0.096  1.8903 -1.1837  0.3760
  144ACOH    O210046   3.738   7.375   0.021 -0.7568 -0.1124 -0.6539
  144ACOH    C210047   3.848   7.440   0.073  0.4806  0.2571 -0.2848
  144ACOH    O110048   3.880   7.419   0.187 -0.6768  0.2131 -0.0782
  144ACOH    C110049   3.945   7.513  -0.016 -0.0509  0.8766 -0.2922
  144ACOH    H110050   3.888   7.543  -0.103  0.0985  1.2457 -0.2604
  144ACOH    H210051   4.030   7.449  -0.038 -0.9849 -0.3429 -0.4811
  144ACOH    H310052   3.984   7.603   0.030 -0.7531  2.0924 -2.0473
  145ACOH    H410053   5.322   9.918   0.879  1.8503 -0.3330  1.6267
  145ACOH    O210054   5.380   9.888   0.806 -0.1167 -0.1560 -0.0462
  145ACOH    C210055   5.460   9.985   0.757 -0.5435 -0.2782  0.6175
  145ACOH    O110056   5.447  10.104   0.772 -0.5397 -0.0011 -0.0692
  145ACOH    C110057   5.574   9.922   0.676  0.4493 -0.0943 -0.1344
  145ACOH    H110058   5.543   9.837   0.615 -1.7135  0.6963 -0.1834
  145ACOH    H210059   5.651   9.878   0.740  2.4541  1.8861 -1.1348
  145ACOH    H310060   5.625   9.989   0.607  2.1966 -1.9051 -0.6575
  146ACOH    H410061   3.950   7.015   2.165  0.1697  0.6517 -0.4976
  146ACOH    O210062   3.981   6.978   2.250 -0.5719  0.0707 -0.4755
  146ACOH    C210063   3.959   6.847   2.243 -0.3543 -0.3756 -0.0471
  146ACOH    O110064   3.915   6.785   2.146 -0.7874  0.0502 -0.0609
  146ACOH    C110065   4.009   6.785   2.362 -0.0496 -0.2664 -0.2298
  146ACOH    H110066   4.086   6.713   2.334 -1.3991 -0.9898 -2.1997
  146ACOH    H210067   3.924   6.727   2.396 -1.5508  2.0709  0.1108
  146ACOH    H310068   4.041   6.862   2.433 -0.1079 -0.0613 -0.4253
  147ACOH    H410069   4.819   2.536   1.682  0.3961 -0.8034  0.4158
  147ACOH    O210070   4.896   2.594   1.668 -0.4048  0.1896  0.0411
  147ACOH    C210071   4.914   2.670   1.778 -0.3483 -0.3021 -0.1308
  147ACOH    O110072   4.855   2.652   1.884  0.0123  0.4001  0.4978
  147ACOH    C110073   5.043   2.752   1.779  0.8627  0.1088  0.0391
  147ACOH    H110074   5.134   2.692   1.785  1.5250  0.9453 -1.4133
  147ACOH    H210075   5.045   2.814   1.869 -0.5040 -0.0123  0.1561
  147ACOH    H310076   5.048   2.818   1.692  2.2773 -1.3558 -1.0310
  148ACOH    H410077   5.335   0.708   2.304 -0.6689 -0.2023 -3.5361
  148ACOH    O210078   5.398   0.781   2.291  0.0144 -0.0640  0.1834
  148ACOH    C210079   5.435   0.796   2.166  0.1225 -0.3809  0.5921
  148ACOH    O110080   5.426   0.712   2.072  0.3325  0.2238  0.2219
  148ACOH    C110081   5.532   0.905   2.159  0.4377 -0.7448 -0.0426
  148ACOH    H110082   5.507   0.981   2.233  0.7794 -1.9826  1.3800
  148ACOH    H210083   5.535   0.950   2.060 -0.4509  1.9128  1.1044
  148ACOH    H310084   5.633   0.867   2.178  1.3371  0.4352 -2.2548
  149ACOH    H410085   7.949   9.788   0.841  1.5008  0.3470 -0.3657
  149ACOH    O210086   7.982   9.732   0.913  0.2049  0.4640  0.3465
  149ACOH    C210087   8.005   9.807   1.022  0.1994 -0.7154 -0.0512
  149ACOH    O110088   7.979   9.926   1.040  0.0172 -0.5943  0.6897
  149ACOH    C110089   8.098   9.740   1.113 -0.2518 -1.2587  0.4839
  149ACOH    H110090   8.196   9.740   1.064 -0.0017  1.6571  0.8955
  149ACOH    H210091   8.071   9.637   1.137  1.1043 -2.0344 -1.1999
  149ACOH    H310092   8.116   9.797   1.205 -0.6705 -2.0172  1.0416
  150ACOH    H410093   8.045   6.653   0.363 -0.5920 -0.0782  0.2887
  150ACOH    O210094   7.991   6.651   0.444  0.3323 -0.4058  0.9072
  150ACOH    C210095   7.953   6.525   0.465 -0.0341  0.1388 -0.6994
  150ACOH    O110096   7.972   6.428   0.397 -0.1991 -0.5786  0.6260
  150ACOH    C110097   7.895   6.517   0.599 -0.3357 -0.2407 -0.1991
  150ACOH    H110098   7.789   6.542   0.592 -0.2900  0.4151  1.3292
  150ACOH    H210099   7.956   6.562   0.678  0.9050 -3.0591  0.5404
  150ACOH    H310100   7.889   6.414   0.635 -0.8666  0.1793  0.9432
  151ACOH    H410101   6.298   8.375   2.705  1.5872  0.7960  0.9734
  151ACOH    O210102   6.309   8.288   2.748  0.7693  0.2423  0.0986
  151ACOH    C210103   6.414   8.231   2.686  0.3204  0.0002  0.0431
  151ACOH    O110104   6.443   8.248   2.567 -0.3569 -0.3487  0.0525
  151ACOH    C110105   6.458   8.105   2.747  0.3113 -0.0587 -0.7469
  151ACOH    H110106   6.504   8.137   2.840 -1.0079  3.2179 -1.1554
  151ACOH    H210107   6.531   8.055   2.683  1.8783  1.3125 -0.0801
  151ACOH    H310108   6.385   8.026   2.767  1.3187 -0.3963  1.7202
  152ACOH    H410109   3.384   5.880   3.056  1.3382  1.1438 -3.7526
  152ACOH    O210110   3.471   5.888   3.100 -0.1683  0.4271 -0.4551
  152ACOH    C210111   3.530   5.992   3.038  0.0840 -0.3693  0.0830
  152ACOH    O110112   3.520   6.004   2.921  0.1777 -0.4630 -0.2146
  152ACOH    C110113   3.638   6.049   3.122 -0.0759  0.5239 -0.5193
  152ACOH    H110114   3.641   6.153   3.093  0.9880 -0.1469 -2.9044
  152ACOH    H210115   3.734   6.007   3.092  0.4222  0.2739  1.3616
  152ACOH    H310116   3.614   6.040   3.228  0.1057 -2.1763 -0.6725
  153ACOH    H410117   1.142   9.515   1.195  0.4464 -1.1172  1.9250
  153ACOH    O210118   1.172   9.607   1.208 -0.0863 -0.6056 -0.2947
  153ACOH    C210119   1.288   9.604   1.278  0.4599 -0.4690  0.4566
  153ACOH    O110120   1.337   9.505   1.329  0.1862 -0.0018 -0.2476
  153ACOH    C110121   1.316   9.742   1.320 -0.6073  0.1530  0.5605
  153ACOH    H110122   1.346   9.801   1.233 -0.3735 -0.2763  0.3500
  153ACOH    H210123   1.401   9.735   1.389  0.3390  0.1544 -0.5932
  153ACOH    H310124   1.228   9.791   1.362 -2.0073 -3.0313  1.4552
  154ACOH    H410125   5.541   7.025   3.432 -1.2810 -1.8299  0.5970
  154ACOH    O210126   5.591   7.037   3.514 -0.2734 -0.3019 -0.2154
  154ACOH    C210127   5.509   7.116   3.590  0.1971 -0.2192  0.5665
  154ACOH    O110128   5.418   7.191   3.547 -0.0548 -0.1445  0.3677
  154ACOH    C110129   5.553   7.117   3.731 -0.3051 -1.3391  1.1588
  154ACOH    H110130   5.543   7.021   3.782 -0.5680 -1.9750 -0.0478
  154ACOH    H210131   5.511   7.203   3.784 -2.1156 -2.4272  1.5350
  154ACOH    H310132   5.659   7.141   3.723 -0.6496 -0.6593 -2.3151
  155ACOH    H410133   2.703   0.963   1.181 -2.9542  0.8340  0.8426
  155ACOH    O210134   2.732   1.024   1.251 -0.2535  0.2709  0.2892
  155ACOH    C210135   2.710   1.157   1.234  0.3053 -0.3466 -0.8505
  155ACOH    O110136   2.685   1.215   1.131  0.9457  0.6165 -0.0811
  155ACOH    C110137   2.728   1.230   1.362  0.2551  0.1378  0.1443
  155ACOH    H110138   2.652   1.207   1.437  0.8672  1.1182  1.0735
  155ACOH    H210139   2.728   1.337   1.339  0.7316  0.3054  0.9250
  155ACOH    H310140   2.829   1.204   1.391  0.6819  0.7077 -0.8085
  156ACOH    H410141   0.576   2.734   0.359  0.3841 -3.7061 -2.1768
  156ACOH    O210142   0.512   2.767   0.293  0.2483  0.2560 -0.1874
  156ACOH    C210143   0.511   2.690   0.183 -0.1659  0.2582  0.0175
  156ACOH    O110144   0.503   2.566   0.182 -1.1168 -0.3360  1.0199
  156ACOH    C110145   0.478   2.766   0.052 -0.4262 -0.5087 -0.0657
  156ACOH    H110146   0.378   2.740   0.018 -0.3614 -0.5329 -0.2380
  156ACOH    H210147   0.547   2.757  -0.031  0.3636  0.5878  0.4646
  156ACOH    H310148   0.466   2.872   0.074 -0.5990 -0.7803  1.2071
  157ACOH    H410149   1.252   9.952   1.556  0.4523 -0.5014 -1.3854
  157ACOH    O210150   1.280  10.013   1.486 -0.2849  0.7769 -0.5820
  157ACOH    C210151   1.417  10.000   1.479  0.2204  0.3526 -0.5758
  157ACOH    O110152   1.489   9.921   1.534 -1.1270 -0.8643  0.3290
  157ACOH    C110153   1.473  10.104   1.389  0.1253 -0.0846  0.1476
  157ACOH    H110154   1.558  10.074   1.328  0.8234  0.0773  1.0370
  157ACOH    H210155   1.499  10.188   1.454 -1.5120  0.3679  0.2461
  157ACOH    H310156   1.404  10.142   1.314  0.1770  0.2640  0.2753
  158ACOH    H410157   3.056   1.508   1.566  0.5716  2.5322  0.4588
  158ACOH    O210158   3.145   1.478   1.594 -0.0180 -0.2443 -0.4437
  158ACOH    C210159   3.132   1.452   1.729 -0.5317 -0.4901 -0.4104
  158ACOH    O110160   3.042   1.376   1.773 -0.1292  0.0779 -0.2409
  158ACOH    C110161   3.261   1.462   1.801  0.5927 -0.3256  0.0004
  158ACOH    H110162   3.257   1.557   1.855  0.6289  1.2544 -2.6693
  158ACOH    H210163   3.341   1.459   1.727 -0.5531  0.3509 -1.2715
  158ACOH    H310164   3.271   1.380   1.872  4.0047  0.2128  0.2348
  159ACOH    H410165   9.794   9.979   3.980  0.2737  1.0798 -1.3579
  159ACOH    O210166   9.824  10.044   4.045  0.2555  0.2022 -0.4568
  159ACOH    C210167   9.948  10.086   4.015 -0.1682  0.2287 -0.0961
  159ACOH    O110168  10.028  10.034   3.939  0.0801  0.0783 -0.0603
  159ACOH    C110169   9.997  10.199   4.094 -0.0086  0.8213  0.8112
  159ACOH    H110170   9.926  10.227   4.172  0.9601  3.1959  0.8715
  159ACOH    H210171  10.011  10.287   4.031  1.3575 -1.1842 -1.8231
  159ACOH    H310172  10.092  10.168   4.138 -0.1854 -1.5433 -0.3730
  160ACOH    H410173   8.949   4.745   2.061  1.3322  1.1469 -1.7780
  160ACOH    O210174   8.866   4.746   2.011  0.5807 -0.1577 -0.5670
  160ACOH    C210175   8.879   4.701   1.895 -0.0727  0.3112 -0.0590
  160ACOH    O110176   8.980   4.719   1.826 -0.2534  0.1070 -0.2675
  160ACOH    C110177   8.752   4.655   1.836 -0.5913 -0.5376  0.2312
  160ACOH    H110178   8.770   4.561   1.784  0.5066 -0.6118  0.7363
  160ACOH    H210179   8.724   4.737   1.770 -4.0212 -1.3196  0.5916
  160ACOH    H310180   8.665   4.636   1.900  0.0256 -0.1621  1.2082
  161ACOH    H410181   7.065   8.203   1.073 -0.0315 -1.0985 -0.5900
  161ACOH    O210182   7.112   8.219   0.990 -0.1432  0.0353 -0.4477
  161ACOH    C210183   7.167   8.099   0.958  0.5178 -0.4902  0.2335
  161ACOH    O110184   7.158   7.989   1.012  0.0454  0.0334 -0.1406
  161ACOH    C110185   7.225   8.122   0.822  0.3715 -0.1073 -0.3291
  161ACOH    H110186   7.297   8.204   0.817  0.9621 -0.5612  0.6257
  161ACOH    H210187   7.140   8.144   0.757 -1.4021 -0.5238  1.8030
  161ACOH    H310188   7.272   8.028   0.790 -2.8330 -1.0093 -2.5941
  162ACOH    H410189   7.521   8.020   3.952 -0.3554  0.8275  0.9145
  162ACOH    O210190   7.451   7.952   3.943  0.7452 -0.1650 -0.4543
  162ACOH    C210191   7.445   7.874   4.057 -0.1605  0.2111  0.0977
  162ACOH    O110192   7.526   7.880   4.152 -0.1933 -0.4465 -0.6024
  162ACOH    C110193   7.355   7.756   4.043  0.5008 -0.2602  0.2521
  162ACOH    H110194   7.419   7.672   4.019  0.1357  0.1281 -2.1627
  162ACOH    H210195   7.296   7.785   3.956  0.9087  0.1655  0.1214
  162ACOH    H310196   7.293   7.747   4.133  0.7673  2.1270  0.7085
  163ACOH    H410197   4.182   3.200   4.768 -0.3905 -0.2836 -0.1544
  163ACOH    O210198   4.161   3.274   4.708 -0.2253 -0.5076 -0.4859
  163ACOH    C210199   4.074   3.220   4.620 -0.2438 -0.2737 -0.0481
  163ACOH    O110200   4.047   3.103   4.607 -0.5592 -0.0251 -0.7581
  163ACOH    C110201   4.034   3.326   4.522  0.1599  0.8536 -0.4253
  163ACOH    H110202   3.953   3.373   4.577  0.9930  0.5059  1.1336
  163ACOH    H210203   3.987   3.279   4.436 -0.6144 -1.1169  1.0257
  163ACOH    H310204   4.114   3.396   4.500  0.8115 -0.4580 -2.3937
  164ACOH    H410205   9.108   4.682   2.543 -0.5017  0.7314  1.3273
  164ACOH    O210206   9.154   4.611   2.590  0.8182  1.0027  0.4957
  164ACOH    C210207   9.276   4.584   2.535  0.8574 -0.3838 -0.4651
  164ACOH    O110208   9.344   4.660   2.471 -0.2534  0.4486  0.1414
  164ACOH    C110209   9.332   4.458   2.597 -0.3118 -0.1893  0.2081
  164ACOH    H110210   9.298   4.371   2.542 -3.1762  1.8580 -1.3715
  164ACOH    H210211   9.309   4.453   2.704 -0.8564 -0.6736  0.0716
  164ACOH    H310212   9.441   4.464   2.589 -0.2382 -0.0684  1.2219
  165ACOH    H410213   6.104   9.238   0.759 -1.3687 -1.0206 -1.9452
  165ACOH    O210214   6.036   9.190   0.808 -0.3824 -0.1706  0.3012
  165ACOH    C210215   6.083   9.182   0.929  0.0653  0.0836 -0.1474
  165ACOH    O110216   6.200   9.173   0.964  0.6808 -0.0813  0.3479
  165ACOH    C110217   5.973   9.135   1.013 -0.6034 -0.1208 -0.4029
  165ACOH    H110218   5.964   9.184   1.110  0.8845  0.5766 -0.6019
  165ACOH    H210219   5.993   9.028   1.018 -0.6830 -0.2699 -2.8654
  165ACOH    H310220   5.876   9.151   0.965 -0.9837 -1.0914  0.0305
  166ACOH    H410221   9.620   4.467   2.771  0.1684 -1.1606 -1.6201
  166ACOH    O210222   9.560   4.395   2.799 -0.1273 -0.2580  0.1284
  166ACOH    C210223   9.580   4.355   2.924 -0.1720  0.4274  0.0441
  166ACOH    O110224   9.646   4.410   3.008 -0.0509 -0.6998 -0.0162
  166ACOH    C110225   9.476   4.258   2.962 -0.1404  0.2994 -0.1446
  166ACOH    H110226   9.393   4.293   2.901  0.8336 -0.3815 -1.8975
  166ACOH    H210227   9.464   4.259   3.071  0.6064  0.7451 -0.0608
  166ACOH    H310228   9.508   4.158   2.934  1.2246  0.8489 -0.5978
  167ACOH    H410229   9.090   5.223   2.986 -0.9340  1.2557  0.2907
  167ACOH    O210230   9.106   5.191   3.077 -0.4122 -0.7278 -0.4606
  167ACOH    C210231   9.083   5.303   3.157  0.2353 -0.1911  0.0209
  167ACOH    O110232   9.125   5.416   3.140  0.1665  0.0848  0.3892
  167ACOH    C110233   9.058   5.238   3.288  0.3131  0.1732  0.5893
  167ACOH    H110234   9.152   5.226   3.341  0.6539  0.2319  0.0081
  167ACOH    H210235   9.012   5.139   3.275  0.6448 -0.0619  1.2011
  167ACOH    H310236   8.999   5.303   3.352 -0.4733  1.1343 -1.0600
  168ACOH    H410237   5.708   1.308   2.390  1.5752 -0.8954 -0.8152
  168ACOH    O210238   5.755   1.391   2.373  0.0082  0.2023  0.0784
  168ACOH    C210239   5.884   1.385   2.412 -0.4291  0.3217 -0.2632
  168ACOH    O110240   5.939   1.297   2.475 -0.8708  0.1963  0.3421
  168ACOH    C110241   5.958   1.510   2.371 -0.0534  0.1093  0.2244
  168ACOH    H110242   5.998   1.557   2.461  0.5467  0.5052 -0.2343
  168ACOH    H210243   5.886   1.573   2.319 -0.5638 -3.3562 -3.4578
  168ACOH    H310244   6.042   1.488   2.304  1.2562 -1.1995  2.2404
  169ACOH    H410245   4.483   5.585   2.137  1.7328  0.1045  0.2801
  169ACOH    O210246   4.472   5.497   2.175  0.1703  0.1060 -0.1356
  169ACOH    C210247   4.549   5.423   2.093 -0.0307 -0.1772  0.6263
  169ACOH    O110248   4.605   5.464   1.991  0.4177  0.1728 -0.2361
  169ACOH    C110249   4.558   5.281   2.135  0.2965  0.8161  0.8421
  169ACOH    H110250   4.521   5.262   2.235  1.2522  0.1282  1.0650
  169ACOH    H210251   4.663   5.255   2.150  0.4344  0.9577  0.1447
  169ACOH    H310252   4.504   5.217   2.064 -0.2577  0.4621  1.5798
  170ACOH    H410253   3.640   7.069   4.627  1.2817 -1.3434 -1.4017
  170ACOH    O210254   3.667   7.042   4.717 -0.3742  0.9980 -0.1324
  170ACOH    C210255   3.799   7.074   4.743 -0.0697  0.6225 -0.0432
  170ACOH    O110256   3.885   7.110   4.662  0.0824  0.3760 -0.7545
  170ACOH    C110257   3.839   7.036   4.882 -0.0424  0.4539 -0.7275
  170ACOH    H110258   3.841   7.129   4.939 -0.9503 -0.3011  0.5747
  170ACOH    H210259   3.934   6.983   4.885  0.6466  1.6718 -1.1259
  170ACOH    H310260   3.764   6.971   4.928  1.3519 -0.9828 -0.4421
  171ACOH    H410261   7.224   0.178   0.222  0.0315 -0.0569  0.2477
  171ACOH    O210262   7.226   0.274   0.236  0.5276 -0.0018 -0.1797
  171ACOH    C210263   7.329   0.334   0.177  0.1089  0.0897 -0.2202
  171ACOH    O110264   7.391   0.287   0.084  0.1652 -0.3936 -0.6596
  171ACOH    C110265   7.352   0.479   0.204  0.2514  0.5176 -0.2628
  171ACOH    H110266   7.332   0.498   0.309 -1.8897  0.9301 -0.7397
  171ACOH    H210267   7.284   0.548   0.155 -0.8831 -1.0419 -0.9079
  171ACOH    H310268   7.457   0.498   0.180 -0.3568  1.4383 -2.3382
  172ACOH    H410269   9.531   8.987   3.004 -0.5943  0.1186 -0.0500
  172ACOH    O210270   9.521   8.898   3.042 -0.2293 -0.0665 -0.3774
  172ACOH    C210271   9.387   8.883   3.021  0.1356  0.1226 -0.2448
  172ACOH    O110272   9.310   8.972   3.052  0.1953  0.1853  0.0471
  172ACOH    C110273   9.342   8.743   3.015 -0.2508 -0.3905 -0.3515
  172ACOH    H110274   9.234   8.749   3.000 -0.4235  3.3169  1.8349
  172ACOH    H210275   9.371   8.691   3.107 -0.1519 -0.2963 -0.3292
  172ACOH    H310276   9.385   8.694   2.927  0.3155 -0.1968 -0.1829
  173ACOH    H410277   8.650   5.138   2.678  0.9675  0.9934  3.8500
  173ACOH    O210278   8.680   5.045   2.679 -0.1932  0.4916 -0.1307
  173ACOH    C210279   8.806   5.048   2.720  0.7195  0.2846  0.9012
  173ACOH    O110280   8.872   5.150   2.715 -0.1166  0.2090  0.4541
  173ACOH    C110281   8.854   4.919   2.775  0.2448 -0.6122  0.0229
  173ACOH    H110282   8.955   4.898   2.742 -0.4808 -3.6957 -0.4267
  173ACOH    H210283   8.796   4.837   2.732 -1.0763  1.2020 -1.7846
  173ACOH    H310284   8.840   4.910   2.883 -0.9561 -1.7075 -0.2047
  174ACOH    H410285   4.682   4.347   0.844  0.2250  1.5302 -1.4907
  174ACOH    O210286   4.689   4.257   0.808 -0.5766  0.9752 -0.2824
  174ACOH    C210287   4.667   4.250   0.675 -0.2763 -0.3566  0.2780
  174ACOH    O110288   4.591   4.325   0.618 -1.0075  0.2072 -0.0588
  174ACOH    C110289   4.711   4.121   0.615  0.2037 -0.0449 -0.0140
  174ACOH    H110290   4.787   4.069   0.673  0.3169 -0.6573 -0.7022
  174ACOH    H210291   4.745   4.135   0.512  0.2538  1.4732  0.1867
  174ACOH    H310292   4.628   4.051   0.618  1.7567 -1.8436  1.2353
  175ACOH    H410293   4.447   4.028   0.938 -0.0820 -0.3827 -1.0062
  175ACOH    O210294   4.358   4.022   0.976  0.2984 -0.3278 -0.1106
  175ACOH    C210295   4.277   4.062   0.873 -0.6202  0.2008 -0.2941
  175ACOH    O110296   4.317   4.121   0.769  0.7557 -0.8038 -0.4589
  175ACOH    C110297   4.132   4.037   0.900 -0.1171 -0.4926  0.1741
  175ACOH    H110298   4.075   4.050   0.808  0.5778  2.7045  0.1194
  175ACOH    H210299   4.093   4.111   0.970  0.0992 -0.3716  0.1659
  175ACOH    H310300   4.129   3.934   0.935  0.9933 -0.0444  1.6403
  176ACOH    H410301   4.487   5.524   1.536  0.7937  0.8879  0.4231
  176ACOH    O210302   4.516   5.518   1.443 -0.4403  0.3880  0.0682
  176ACOH    C210303   4.419   5.569   1.366 -0.1874  0.7498 -0.7437
  176ACOH    O110304   4.302   5.542   1.377 -0.1827 -0.5827 -0.0291
  176ACOH    C110305   4.470   5.636   1.241  0.2943 -0.6461 -0.2741
  176ACOH    H110306   4.539   5.568   1.192  1.4919 -0.4395  1.1156
  176ACOH    H210307   4.528   5.724   1.268 -0.6573 -0.3963  1.0087
  176ACOH    H310308   4.384   5.666   1.180  0.4223 -2.1283 -1.2030
  177ACOH    H410309   7.186   6.615   2.487  0.2965  1.2275  2.4896
  177ACOH    O210310   7.100   6.583   2.519 -0.1757 -0.0518  0.1131
  177ACOH    C210311   7.010   6.665   2.464 -0.6644 -0.1322 -0.0494
  177ACOH    O110312   7.029   6.746   2.372  0.0864  0.1901 -0.2633
  177ACOH    C110313   6.890   6.653   2.544  0.7178 -0.1983 -0.0102
  177ACOH    H110314   6.827   6.737   2.516  0.2158 -0.7424 -0.5502
  177ACOH    H210315   6.918   6.648   2.649  0.1579 -0.8337  0.1177
  177ACOH    H310316   6.835   6.560   2.526  1.3248 -0.5448 -0.1246
  178ACOH    H410317   6.442   9.447   4.002  0.1566 -0.6873  0.7889
  178ACOH    O210318   6.362   9.413   3.958 -0.0255  0.3572  0.2974
  178ACOH    C210319   6.302   9.335   4.053 -0.1259 -0.1110 -0.9335
  178ACOH    O110320   6.350   9.297   4.157 -0.5719 -0.2018  0.2289
  178ACOH    C110321   6.157   9.304   4.020  0.4670 -0.6182 -0.4202
  178ACOH    H110322   6.155   9.252   3.924  0.8561 -0.5618 -0.4565
  178ACOH    H210323   6.090   9.391   4.019 -0.5406 -1.3334 -3.9532
  178ACOH    H310324   6.123   9.232   4.095  2.3024 -1.6341 -0.5556
  179ACOH    H410325   7.359   0.400   3.050 -1.7558  0.3064  0.5925
  179ACOH    O210326   7.400   0.481   3.086  0.7952 -0.5972 -0.1395
  179ACOH    C210327   7.528   0.465   3.048 -0.0062 -0.1662 -0.4168
  179ACOH    O110328   7.550   0.413   2.938 -0.2378  0.5219 -0.1086
  179ACOH    C110329   7.608   0.574   3.110 -0.6433  0.2461 -0.3618
  179ACOH    H110330   7.567   0.603   3.207 -0.0048 -0.3857  0.1125
  179ACOH    H210331   7.610   0.657   3.041  0.7905  1.8576  1.5482
  179ACOH    H310332   7.709   0.536   3.129 -0.6423 -0.0284 -0.9132
  180ACOH    H410333   6.850   0.676   3.770  0.8615  0.0646 -0.8650
  180ACOH    O210334   6.931   0.677   3.824  0.0717  0.1148  0.3430
  180ACOH    C210335   6.912   0.581   3.920 -0.2306 -0.3517 -0.1311
  180ACOH    O110336   6.819   0.505   3.932  0.2646  0.4080  0.1955
  180ACOH    C110337   7.030   0.568   4.007  0.7479  0.3168  0.0648
  180ACOH    H110338   7.113   0.556   3.937  0.4340  0.7096 -0.3789
  180ACOH    H210339   7.010   0.476   4.062 -4.5447  1.6422  0.6161
  180ACOH    H310340   7.053   0.651   4.073  1.0213  0.4518 -0.1989
  181ACOH    H410341   6.598   0.192   1.765  2.1573  0.3863  0.5085
  181ACOH    O210342   6.613   0.277   1.810 -0.4389  0.9129  0.4327
  181ACOH    C210343   6.616   0.362   1.707  0.2931 -0.4401  0.1367
  181ACOH    O110344   6.614   0.335   1.585  0.5220 -0.2347  0.3632
  181ACOH    C110345   6.648   0.497   1.757 -0.3371  0.2567  0.2218
  181ACOH    H110346   6.699   0.540   1.671 -0.2600  1.8100  1.0365
  181ACOH    H210347   6.717   0.498   1.841 -1.0359  1.5146  0.7855
  181ACOH    H310348   6.560   0.560   1.771 -0.7354 -0.2522  0.0547
  182ACOH    H410349   8.158   7.650   0.418  0.9665  0.4908  1.0316
  182ACOH    O210350   8.137   7.560   0.447  0.0550  0.4736  0.3240
  182ACOH    C210351   8.007   7.538   0.462 -0.1903 -0.7005 -0.0689
  182ACOH    O110352   7.923   7.601   0.400  0.2268 -0.8372 -0.3807
  182ACOH    C110353   7.979   7.459   0.585  0.1921 -0.0315 -1.0783
  182ACOH    H110354   7.875   7.475   0.612  0.1351 -2.8433  0.4778
  182ACOH    H210355   8.046   7.495   0.663 -0.8170 -0.0006 -0.2053
  182ACOH    H310356   7.991   7.353   0.567 -1.7504 -0.1441 -1.9188
  183ACOH    H410357   6.158   7.586   1.687  0.5069  0.3253 -1.8064
  183ACOH    O210358   6.072   7.631   1.686 -0.1032 -0.7584  0.1902
  183ACOH    C210359   5.981   7.536   1.718  0.3983 -0.2758  1.0058
  183ACOH    O110360   5.998   7.418   1.738  0.1714 -0.1632  0.7704
  183ACOH    C110361   5.844   7.579   1.705  0.7622 -0.2370 -0.4235
  183ACOH    H110362   5.790   7.546   1.794 -0.4508  0.2788 -0.9601
  183ACOH    H210363   5.797   7.531   1.619  0.6247 -1.6351  0.4099
  183ACOH    H310364   5.833   7.687   1.693 -2.2386 -0.5415 -0.8491
  184ACOH    H410365   5.401   0.299   1.271  0.7119  2.1660 -1.6168
  184ACOH    O210366   5.416   0.358   1.347  0.6950  0.5614 -0.3542
  184ACOH    C210367   5.552   0.344   1.375  0.2782 -0.6036  0.0239
  184ACOH    O110368   5.631   0.272   1.319 -0.1621  0.0142  0.0819
  184ACOH    C110369   5.595   0.424   1.489  0.4375  0.7875  0.2344
  184ACOH    H110370   5.639   0.355   1.562 -0.2704 -0.4088 -0.4466
  184ACOH    H210371   5.502   0.472   1.521 -0.1948 -0.3213  0.0911
  184ACOH    H310372   5.662   0.504   1.458  2.1174 -1.2215 -1.4697
  185ACOH    H410373   5.824   7.837   1.528 -0.0991 -0.0839 -1.3591
  185ACOH    O210374   5.903   7.890   1.510 -0.0819  0.2267 -0.4321
  185ACOH    C210375   5.912   7.996   1.599 -0.3566 -0.3191 -0.2333
  185ACOH    O110376   5.866   7.998   1.712  0.4692  0.1814  0.5359
  185ACOH    C110377   6.019   8.088   1.555  0.7708 -0.4435 -0.0534
  185ACOH    H110378   6.014   8.092   1.446 -0.0383  0.9233  0.0188
  185ACOH    H210379   6.119   8.050   1.576  1.5046  0.5643 -1.6416
  185ACOH    H310380   6.003   8.184   1.604 -0.3818 -1.6649  2.0189
  186ACOH    H410381   4.722   4.758   1.431  0.6072 -1.7236 -0.7089
  186ACOH    O210382   4.794   4.813   1.396 -0.1762 -0.2471 -0.0457
  186ACOH    C210383   4.866   4.852   1.503 -0.2475 -0.0742 -0.3150
  186ACOH    O110384   4.875   4.797   1.611  0.6801 -0.1444 -0.3650
  186ACOH    C110385   4.942   4.975   1.475 -0.1551 -0.2310 -0.2842
  186ACOH    H110386   4.892   5.045   1.542  1.1019 -0.5720  1.0448
  186ACOH    H210387   4.941   5.009   1.372 -0.4133 -1.3983 -0.6706
  186ACOH    H310388   5.044   4.970   1.514  0.3495  2.4481 -1.1364
  187ACOH    H410389   3.788   5.933   2.345 -0.4447  0.3955  0.8392
  187ACOH    O210390   3.874   5.888   2.335 -0.5874  0.3937 -0.5233
  187ACOH    C210391   3.943   5.914   2.449  0.1682 -0.6385 -0.7083
  187ACOH    O110392   3.898   5.971   2.552  0.3312 -0.1441  0.8238
  187ACOH    C110393   4.084   5.864   2.442 -0.1576 -0.2465 -0.5295
  187ACOH    H110394   4.082   5.766   2.488  0.2306 -0.1077 -0.2070
  187ACOH    H210395   4.146   5.934   2.500 -0.2024 -0.9263  0.3466
  187ACOH    H310396   4.119   5.866   2.339 -0.8633  2.0775 -0.7632
  188ACOH    H410397   8.098   5.272   1.644 -1.2566 -0.3940  2.2043
  188ACOH    O210398   8.044   5.209   1.595 -0.2857  0.0873  0.4585
  188ACOH    C210399   7.919   5.265   1.575 -0.1919 -0.0618 -0.4781
  188ACOH    O110400   7.900   5.386   1.571 -0.1027  0.0545  0.4781
  188ACOH    C110401   7.818   5.176   1.512  0.2101 -0.0966 -0.4319
  188ACOH    H110402   7.834   5.165   1.405 -0.4469 -0.3207 -0.5074
  188ACOH    H210403   7.720   5.218   1.534  0.8403  0.4141  1.5341
  188ACOH    H310404   7.826   5.080   1.562  1.5642  1.2216  2.0446
  189ACOH    H410405   4.570   9.838   1.014  0.0008  1.9766  1.1668
  189ACOH    O210406   4.580   9.878   0.926  0.1529  0.3564  0.4195
  189ACOH    C210407   4.507   9.818   0.828 -0.3393 -0.8064  0.0318
  189ACOH    O110408   4.413   9.750   0.856  0.3214 -0.3397  0.6485
  189ACOH    C110409   4.505   9.883   0.695  0.3932  0.3432  0.2525
  189ACOH    H110410   4.533   9.808   0.621 -0.3010  2.2548 -2.0242
  189ACOH    H210411   4.578   9.964   0.694  0.0097  0.7093  1.1509
  189ACOH    H310412   4.406   9.924   0.673  0.6178  1.3106  1.0142
  190ACOH    H410413   7.836   5.444   1.850  2.4047 -0.7083  0.5358
  190ACOH    O210414   7.792   5.366   1.888  0.2347  0.0977 -0.1841
  190ACOH    C210415   7.897   5.293   1.933  0.6447 -0.0559  0.1613
  190ACOH    O110416   8.003   5.282   1.879 -0.0604 -0.2296  0.2959
  190ACOH    C110417   7.845   5.187   2.011  0.2580 -0.0558 -0.4649
  190ACOH    H110418   7.808   5.107   1.947  1.9548 -1.0747 -0.2084
  190ACOH    H210419   7.760   5.229   2.064  0.4645 -0.4962  0.2308
  190ACOH    H310420   7.921   5.150   2.080  0.0735 -0.8223 -0.6792
  191ACOH    H410421   7.275   5.942   2.215 -1.8979 -0.3476  0.6592
  191ACOH    O210422   7.239   5.910   2.130  0.4977  0.3776 -0.6881
  191ACOH    C210423   7.156   5.997   2.075  0.0235 -0.8156  0.1137
  191ACOH    O110424   7.132   6.109   2.120 -0.1717 -0.3179 -0.2288
  191ACOH    C110425   7.083   5.929   1.969  0.2907  0.7215 -0.0637
  191ACOH    H110426   7.145   5.897   1.886 -2.0367 -1.0579 -1.2079
  191ACOH    H210427   7.004   5.991   1.925 -0.3693 -0.7387 -0.9810
  191ACOH    H310428   7.046   5.837   2.015 -2.2797  1.6845 -0.0853
  192ACOH    H410429   0.595   1.604   1.839 -0.9055  0.2737  1.1199
  192ACOH    O210430   0.509   1.581   1.800  0.0326 -0.9527 -0.2873
  192ACOH    C210431   0.500   1.615   1.670 -0.0625 -1.0593  0.1975
  192ACOH    O110432   0.596   1.646   1.605 -1.2483  0.6693  0.3661
  192ACOH    C110433   0.376   1.567   1.614 -0.6191 -0.2126  0.4829
  192ACOH    H110434   0.380   1.478   1.551 -0.4872 -1.3110  2.0217
  192ACOH    H210435   0.333   1.646   1.551 -1.6604 -0.0402  1.3993
  192ACOH    H310436   0.303   1.547   1.692 -0.6188  2.1673  1.1240
  193ACOH    H410437   6.856   8.833   0.380  0.6135 -0.7005  0.0059
  193ACOH    O210438   6.806   8.752   0.401 -0.1648 -0.2949 -0.2751
  193ACOH    C210439   6.860   8.711   0.512 -0.6472 -0.1396 -0.8773
  193ACOH    O110440   6.964   8.745   0.569 -0.3728 -0.1223  0.0355
  193ACOH    C110441   6.772   8.609   0.573  0.1954  1.0418 -0.2200
  193ACOH    H110442   6.783   8.584   0.679 -1.4619 -1.9290 -0.6909
  193ACOH    H210443   6.795   8.521   0.513 -0.7307  0.4106  0.3475
  193ACOH    H310444   6.668   8.638   0.562 -0.2434 -0.2835  0.2904
  194ACOH    H410445   6.049   0.764   2.286  1.0971  1.0983 -0.5302
  194ACOH    O210446   6.030   0.858   2.302 -0.2753  0.6935  0.2882
  194ACOH    C210447   5.999   0.913   2.179 -0.2696 -0.0980 -0.1053
  194ACOH    O110448   5.957   0.856   2.079 -0.0074 -0.4070 -0.1816
  194ACOH    C110449   5.994   1.060   2.205  0.5507  1.2744  0.0107
  194ACOH    H110450   6.005   1.106   2.106 -1.1989 -1.3195 -1.4212
  194ACOH    H210451   6.080   1.090   2.265  0.2567  0.2494  0.9619
  194ACOH    H310452   5.910   1.107   2.256  0.5539  1.0228  0.2476
  195ACOH    H410453   7.147   6.815   2.277  2.0879 -1.1752  1.6509
  195ACOH    O210454   7.213   6.839   2.211  0.3308 -0.4132  0.1391
  195ACOH    C210455   7.241   6.972   2.240  0.1576 -0.1622 -0.3388
  195ACOH    O110456   7.199   7.035   2.335 -0.0654 -0.0696 -0.1866
  195ACOH    C110457   7.325   7.036   2.133  0.1261  0.0788  0.3208
  195ACOH    H110458   7.424   7.059   2.173  0.0167  2.0047 -0.4448
  195ACOH    H210459   7.270   7.127   2.108  2.3751  0.5559 -3.1793
  195ACOH    H310460   7.338   6.970   2.048 -0.2511 -1.1510  1.1996
  196ACOH    H410461   2.223   7.806   2.412 -0.0169 -0.3060  0.7303
  196ACOH    O210462   2.196   7.712   2.417  0.0696 -0.3775 -0.1087
  196ACOH    C210463   2.293   7.642   2.355  0.7230 -0.6261  0.0244
  196ACOH    O110464   2.394   7.687   2.307  0.2021  0.2702 -0.2690
  196ACOH    C110465   2.255   7.501   2.377 -0.1607  0.0051  0.3299
  196ACOH    H110466   2.284   7.479   2.480  2.2345 -2.5794 -0.8445
  196ACOH    H210467   2.302   7.439   2.301  1.0165  0.5341  0.6079
  196ACOH    H310468   2.147   7.494   2.361  0.0986 -0.7532 -1.1573
  197ACOH    H410469   6.101   8.759   1.432 -0.2241  1.1516  0.8571
  197ACOH    O210470   6.147   8.804   1.359  0.0853 -0.1674  0.2045
  197ACOH    C210471   6.124   8.937   1.380  0.2168 -0.1562 -0.1298
  197ACOH    O110472   6.028   8.977   1.435  0.5891 -0.4144  0.5388
  197ACOH    C110473   6.185   9.006   1.265 -0.2068  0.8590 -0.6401
  197ACOH    H110474   6.120   8.986   1.180  1.2009 -0.2483 -1.4509
  197ACOH    H210475   6.287   8.972   1.252 -0.3593 -0.8304  2.0475
  197ACOH    H310476   6.191   9.114   1.283  1.2679  0.7319 -0.3179
  198ACOH    H410477   4.909   7.106   1.943 -1.2898 -1.1506 -1.1140
  198ACOH    O210478   4.927   7.024   1.992  0.0638 -0.2020  0.0337
  198ACOH    C210479   5.009   6.948   1.922 -0.2244 -0.2696  0.5794
  198ACOH    O110480   5.084   6.977   1.829 -0.8675 -0.4057 -0.2982
  198ACOH    C110481   5.008   6.811   1.973  0.0570  0.7346 -0.8228
  198ACOH    H110482   5.110   6.782   1.998  0.2284  1.7189 -0.3462
  198ACOH    H210483   4.970   6.748   1.893 -1.9314  3.7909 -2.3927
  198ACOH    H310484   4.950   6.805   2.065  1.2504  1.8017  0.0082
  199ACOH    H410485   7.282   5.599   2.294 -0.0152  0.3120 -0.4644
  199ACOH    O210486   7.223   5.676   2.288  0.0027  0.4026  0.4501
  199ACOH    C210487   7.199   5.704   2.419 -0.6088  0.1065  1.1282
  199ACOH    O110488   7.284   5.688   2.507 -0.4340  0.4241 -0.1736
  199ACOH    C110489   7.086   5.792   2.446 -0.8931  0.8764  0.2640
  199ACOH    H110490   7.024   5.819   2.360 -0.5727  0.8563  0.0242
  199ACOH    H210491   7.112   5.890   2.487  0.2799  0.7440 -0.1653
  199ACOH    H310492   7.028   5.738   2.521  2.1593 -0.4751  1.7126
  200ACOH    H410493   4.307   3.568   3.282  1.1854  2.1544  0.1603
  200ACOH    O210494   4.395   3.532   3.302  0.1252 -0.2537  0.7129
  200ACOH    C210495   4.373   3.489   3.428 -1.0266  0.1755  0.7379
  200ACOH    O110496   4.268   3.488   3.487  0.4498 -0.1334 -0.2069
  200ACOH    C110497   4.502   3.443   3.484  0.0925 -0.5046  1.6113
  200ACOH    H110498   4.536   3.360   3.422 -1.6077  0.9166 -1.3245
  200ACOH    H210499   4.482   3.419   3.589  0.7508  0.8908  2.0789
  200ACOH    H310500   4.580   3.519   3.473  0.5588 -1.2146 -0.1907
  201ACOH    H410501   7.776   0.556   0.792 -4.0292  0.4782  2.2315
  201ACOH    O210502   7.737   0.535   0.706 -0.2999  0.6279  0.4156
  201ACOH    C210503   7.611   0.489   0.743  0.4331 -0.1257  0.0843
  201ACOH    O110504   7.559   0.496   0.847 -0.1277 -0.0683 -0.2623
  201ACOH    C110505   7.540   0.438   0.629 -0.5867  0.2317 -0.2803
  201ACOH    H110506   7.599   0.376   0.563 -1.0370  0.2380 -0.6890
  201ACOH    H210507   7.503   0.524   0.573 -1.6666  0.0236  0.0809
  201ACOH    H310508   7.457   0.374   0.660  0.6484 -2.2991 -2.1095
  202ACOH    H410509   4.921   0.631   4.355 -0.2341  1.6245  2.2661
  202ACOH    O210510   4.970   0.569   4.411 -0.1835 -0.5124 -0.0865
  202ACOH    C210511   4.897   0.539   4.524 -0.1607 -0.0269 -0.5032
  202ACOH    O110512   4.790   0.597   4.544  0.2786  0.8134 -0.1746
  202ACOH    C110513   4.993   0.454   4.612 -0.5574 -0.1729  0.2021
  202ACOH    H110514   5.038   0.375   4.552 -1.7779 -0.7472  0.0409
  202ACOH    H210515   4.927   0.413   4.688  1.4345 -1.9178  1.0569
  202ACOH    H310516   5.066   0.515   4.667 -0.8918  1.4034 -1.0729
  203ACOH    H410517   8.946   5.673   0.382 -1.0286 -0.8460 -1.6490
  203ACOH    O210518   8.914   5.762   0.358 -0.0609 -0.0542 -0.0831
  203ACOH    C210519   8.808   5.731   0.286 -0.0973  0.5749 -0.8281
  203ACOH    O110520   8.767   5.619   0.263  0.6051 -0.0390 -0.0660
  203ACOH    C110521   8.738   5.852   0.246  0.2510 -0.0398  0.2381
  203ACOH    H110522   8.764   5.874   0.143  2.3515  1.0122  0.9680
  203ACOH    H210523   8.763   5.938   0.309 -2.6929 -0.8134  2.5906
  203ACOH    H310524   8.631   5.837   0.263  0.5229  1.6054  3.9992
  204ACOH    H410525   4.814   4.430   2.024 -1.0449 -0.3951  0.9520
  204ACOH    O210526   4.901   4.394   2.048 -0.2569  0.7027 -0.2127
  204ACOH    C210527   4.890   4.271   2.094 -0.6374  0.0059 -0.4654
  204ACOH    O110528   4.785   4.209   2.105  0.6699  0.3776 -0.0858
  204ACOH    C110529   5.019   4.230   2.159 -0.4825  0.4442 -0.3866
  204ACOH    H110530   5.010   4.239   2.267 -1.9127 -1.7662 -0.2976
  204ACOH    H210531   5.101   4.286   2.113 -0.8777 -0.0681 -1.7515
  204ACOH    H310532   5.045   4.125   2.145 -0.1953  0.6489 -1.4122
  205ACOH    H410533   0.142   9.232   0.485  1.3206  2.1016 -1.1387
  205ACOH    O210534   0.121   9.191   0.400  0.2956  0.0880  0.0538
  205ACOH    C210535   0.100   9.288   0.304  0.1876  0.0805 -0.6620
  205ACOH    O110536   0.152   9.395   0.321  0.0140 -0.1593  0.4360
  205ACOH    C110537   0.058   9.230   0.171  0.1574 -0.0912 -0.7207
  205ACOH    H110538   0.043   9.310   0.099  0.1413  0.8141  0.2673
  205ACOH    H210539  -0.043   9.190   0.174  0.5487 -1.1795 -1.6013
  205ACOH    H310540   0.127   9.152   0.139 -0.9985 -1.4426  0.0437
  206ACOH    H410541   4.820   2.663   1.065 -1.7679 -1.4576  1.9385
  206ACOH    O210542   4.808   2.589   1.003 -0.2859 -0.3554  0.2739
  206ACOH    C210543   4.694   2.600   0.941 -0.1774  0.3677  0.1672
  206ACOH    O110544   4.600   2.671   0.963  0.2419 -0.3202  0.3181
  206ACOH    C110545   4.676   2.489   0.840 -0.3521 -0.1010  0.3079
  206ACOH    H110546   4.731   2.401   0.875  1.1827  0.9718  0.6334
  206ACOH    H210547   4.705   2.516   0.739 -0.5266 -1.5075 -0.1209
  206ACOH    H310548   4.569   2.466   0.840 -0.1426 -1.0914  0.4677
  207ACOH    H410549   0.190   2.390   1.115  1.6786 -1.6798 -1.6490
  207ACOH    O210550   0.195   2.444   1.034 -0.3527  0.2500 -0.5307
  207ACOH    C210551   0.239   2.366   0.929 -0.5442  0.1229 -0.2677
  207ACOH    O110552   0.293   2.258   0.936  0.1379 -0.5029 -0.1366
  207ACOH    C110553   0.229   2.440   0.801  0.0993  0.2792  0.5966
  207ACOH    H110554   0.241   2.548   0.809 -0.5601  0.3154  1.1575
  207ACOH    H210555   0.130   2.417   0.762  1.2175  0.6559 -2.5918
  207ACOH    H310556   0.300   2.394   0.732  1.3516  1.2040  1.2356
  208ACOH    H410557   5.177   2.589   0.409  2.2641 -0.4994  0.4809
  208ACOH    O210558   5.181   2.622   0.317 -0.5598 -0.6677  0.2480
  208ACOH    C210559   5.067   2.606   0.247 -0.1310  0.0830  0.7439
  208ACOH    O110560   4.962   2.591   0.306 -0.2248  0.2418 -0.3528
  208ACOH    C110561   5.067   2.664   0.113 -0.2922  0.4231  0.8927
  208ACOH    H110562   4.978   2.725   0.100 -0.2242  0.4237  0.3807
  208ACOH    H210563   5.072   2.588   0.034  0.5646 -0.5703  1.8779
  208ACOH    H310564   5.159   2.721   0.103  1.2194 -1.6291  2.7076
  209ACOH    H410565   9.945   1.586   1.912 -1.4748  0.3437 -1.7539
  209ACOH    O210566   9.883   1.517   1.940  0.5253 -0.8992 -0.3008
  209ACOH    C210567   9.838   1.444   1.831 -0.3310 -0.0257 -0.2648
  209ACOH    O110568   9.875   1.447   1.713  0.2602  0.0454 -0.1221
  209ACOH    C110569   9.749   1.340   1.881 -0.0519  0.3761 -0.7053
  209ACOH    H110570   9.683   1.304   1.802 -0.3658  0.2594 -0.3858
  209ACOH    H210571   9.687   1.387   1.957  2.0286  1.1577  0.5737
  209ACOH    H310572   9.813   1.266   1.929 -3.3804 -1.2945  1.2516
  210ACOH    H410573   6.000   1.363   2.895 -0.4603  0.4213  2.0190
  210ACOH    O210574   6.052   1.445   2.900  0.0998  0.2858 -0.9581
  210ACOH    C210575   6.157   1.414   2.978 -0.4191  0.3725  0.4243
  210ACOH    O110576   6.172   1.307   3.036 -0.0381 -0.1166 -0.0817
  210ACOH    C110577   6.251   1.520   2.991 -0.4242  0.5558 -0.0169
  210ACOH    H110578   6.325   1.488   3.064 -1.3518 -0.4401  0.4900
  210ACOH    H210579   6.210   1.612   3.033  0.9134  1.1840 -0.0499
  210ACOH    H310580   6.301   1.541   2.896 -1.4207 -1.1115 -0.9327
  211ACOH    H410581   7.562   6.456   2.651  0.0716 -1.6936 -0.6388
  211ACOH    O210582   7.533   6.435   2.742  0.2617  0.4892 -0.0436
  211ACOH    C210583   7.404   6.393   2.751  0.7894 -0.3187  0.7634
  211ACOH    O110584   7.332   6.388   2.654 -0.0334 -0.5309 -0.3866
  211ACOH    C110585   7.356   6.391   2.893 -0.1723  0.7642 -0.0914
  211ACOH    H110586   7.294   6.303   2.909  1.3219 -0.7157 -2.2519
  211ACOH    H210587   7.292   6.476   2.915 -0.7783  0.1816  0.4231
  211ACOH    H310588   7.438   6.392   2.965  0.7445 -1.1568 -1.0824
  212ACOH    H410589   3.603   6.759   3.567 -0.8459 -1.5417  0.9478
  212ACOH    O210590   3.676   6.695   3.578  0.5935 -0.2028 -0.4881
  212ACOH    C210591   3.656   6.583   3.502 -0.3328 -0.3731 -0.1862
  212ACOH    O110592   3.564   6.565   3.426  0.0359  0.1422  0.5648
  212ACOH    C110593   3.785   6.507   3.490  1.0372 -0.5153 -0.4475
  212ACOH    H110594   3.811   6.472   3.590 -1.4285  0.7068  0.6607
  212ACOH    H210595   3.861   6.577   3.456  0.1158  0.2741 -0.8863
  212ACOH    H310596   3.771   6.425   3.420 -1.3199 -0.3941 -0.1590
  213ACOH    H410597   3.585   4.939   2.708 -1.1539 -0.3543 -3.1022
  213ACOH    O210598   3.644   4.861   2.705 -0.3656  0.0371  0.3072
  213ACOH    C210599   3.711   4.844   2.821 -0.2647 -0.3733 -0.4865
  213ACOH    O110600   3.689   4.910   2.919  0.1630  0.2489 -0.0688
  213ACOH    C110601   3.773   4.711   2.829 -0.0253  0.3230 -0.3227
  213ACOH    H110602   3.725   4.665   2.916 -0.4266 -2.2768 -1.8581
  213ACOH    H210603   3.880   4.708   2.846  0.1433 -0.4918 -1.5111
  213ACOH    H310604   3.737   4.650   2.746 -0.7591  1.3954 -0.8130
  214ACOH    H410605   3.781   1.325   0.799  0.8146 -0.0899 -0.0817
  214ACOH    O210606   3.801   1.417   0.823  0.4212 -0.0871  0.2444
  214ACOH    C210607   3.702   1.441   0.910  1.2713 -1.0974 -0.4567
  214ACOH    O110608   3.645   1.364   0.983  0.1590  0.3880  0.0121
  214ACOH    C110609   3.675   1.593   0.914 -0.3071 -0.8279  0.2108
  214ACOH    H110610   3.743   1.630   0.991  0.9277  1.3273 -1.8655
  214ACOH    H210611   3.573   1.620   0.942  0.3847  2.2519 -0.0263
  214ACOH    H310612   3.689   1.640   0.817  0.8740 -2.4000 -0.4102
  215ACOH    H410613   6.865   6.730   3.541 -0.2981  1.0086 -0.3014
  215ACOH    O210614   6.952   6.717   3.583 -0.6317 -0.2454  0.0296
  215ACOH    C210615   6.985   6.803   3.682 -0.2350  0.5765 -0.1303
  215ACOH    O110616   6.933   6.915   3.688  0.1661 -0.2997  0.5518
  215ACOH    C110617   7.110   6.771   3.748 -0.6182  0.6649  0.4648
  215ACOH    H110618   7.111   6.807   3.851  1.9149 -3.4415  2.0067
  215ACOH    H210619   7.197   6.813   3.698  0.7187 -1.7098  0.7396
  215ACOH    H310620   7.122   6.665   3.767 -0.8713  0.2088 -1.8466
  216ACOH    H410621   3.242   6.781   1.676 -1.1382  0.2317 -1.2303
  216ACOH    O210622   3.209   6.690   1.667  0.3187 -0.4706  0.2916
  216ACOH    C210623   3.127   6.671   1.771 -0.2446  0.1881 -0.7720
  216ACOH    O110624   3.106   6.732   1.877  0.1069 -0.4322  0.3761
  216ACOH    C110625   3.068   6.533   1.744  0.0893  0.3695  0.8821
  216ACOH    H110626   2.974   6.510   1.796  0.0914  0.9805  1.1639
  216ACOH    H210627   3.134   6.458   1.788 -0.7680 -1.2902 -0.6269
  216ACOH    H310628   3.057   6.512   1.638  1.2527 -1.0410  1.0178
  217ACOH    H410629   5.093   2.028   1.114 -0.1472  0.3104 -2.8887
  217ACOH    O210630   5.143   1.948   1.094  0.0697 -0.2454 -0.3478
  217ACOH    C210631   5.080   1.839   1.135 -0.3684  0.4110 -0.4924
  217ACOH    O110632   4.964   1.838   1.175  0.2961  0.2018  0.3450
  217ACOH    C110633   5.142   1.707   1.102  0.0384  0.1248  0.3307
  217ACOH    H110634   5.070   1.653   1.040 -2.7874  1.5317  2.2646
  217ACOH    H210635   5.142   1.654   1.197 -0.1334 -2.0353 -0.8338
  217ACOH    H310636   5.243   1.719   1.064  0.1083 -0.9449  0.1573
  218ACOH    H410637   7.888   6.544   2.834 -0.3547  0.9663  0.1283
  218ACOH    O210638   7.852   6.490   2.907  0.3246 -0.2867 -0.4485
  218ACOH    C210639   7.876   6.365   2.877 -0.2969  0.2045  0.0195
  218ACOH    O110640   7.934   6.329   2.780 -0.3394  0.2109 -0.0138
  218ACOH    C110641   7.796   6.284   2.972  0.1005  0.9886  0.2523
  218ACOH    H110642   7.694   6.319   2.985 -0.4850 -0.6441  0.1938
  218ACOH    H210643   7.835   6.291   3.073 -0.3644 -1.2538  0.6235
  218ACOH    H310644   7.792   6.182   2.932 -0.5641  0.7645  0.8998
  219ACOH    H410645   9.558   8.876   4.348  0.8254 -1.1596  0.0571
  219ACOH    O210646   9.470   8.836   4.357  0.2799  0.1671  0.8113
  219ACOH    C210647   9.414   8.883   4.467 -0.1072 -0.6850  0.1566
  219ACOH    O110648   9.465   8.953   4.553  0.6560 -0.0043 -1.0910
  219ACOH    C110649   9.276   8.837   4.495  0.1259  0.4234 -0.5323
  219ACOH    H110650   9.242   8.775   4.411  0.1898  0.6541 -0.7293
  219ACOH    H210651   9.209   8.920   4.516 -1.2537 -0.8034  0.0642
  219ACOH    H310652   9.274   8.770   4.581 -1.6765 -0.6361 -1.3496
  220ACOH    H410653   4.940   7.251   3.454  0.5419 -0.7802  2.2094
  220ACOH    O210654   4.851   7.288   3.469  0.2934 -0.6439  0.4994
  220ACOH    C210655   4.816   7.351   3.352 -0.2384 -0.7058 -0.1196
  220ACOH    O110656   4.898   7.381   3.263  0.0495  0.3151 -0.1067
  220ACOH    C110657   4.674   7.393   3.369  0.5378  0.4635 -0.3311
  220ACOH    H110658   4.618   7.303   3.344  1.0514  0.6924 -2.3645
  220ACOH    H210659   4.629   7.468   3.306 -1.3677 -1.1183 -0.8891
  220ACOH    H310660   4.652   7.414   3.474  0.0770 -0.6883 -0.1881
  221ACOH    H410661   4.775   6.821   3.413 -1.3474 -0.6801 -0.9741
  221ACOH    O210662   4.731   6.750   3.464 -0.5059 -0.4319  0.1302
  221ACOH    C210663   4.600   6.790   3.464  0.0911  0.3776  0.9452
  221ACOH    O110664   4.546   6.870   3.391  0.2204  0.2490  0.0382
  221ACOH    C110665   4.524   6.698   3.554 -0.3732 -0.5002  0.3225
  221ACOH    H110666   4.546   6.733   3.655  0.8834  0.3610 -0.2245
  221ACOH    H210667   4.542   6.592   3.537 -0.0038 -0.2526 -0.8954
  221ACOH    H310668   4.419   6.720   3.539 -0.2293 -0.8468 -1.3373
  222ACOH    H410669   0.902   1.165   0.125  2.7056 -0.0864 -0.2610
  222ACOH    O210670   0.919   1.132   0.214 -0.2366 -0.8931  0.0703
  222ACOH    C210671   0.826   1.040   0.242 -0.4047  0.4677 -0.1872
  222ACOH    O110672   0.733   1.008   0.181  0.4049  0.4896 -0.2866
  222ACOH    C110673   0.863   0.980   0.369  0.0313 -0.4907  0.5157
  222ACOH    H110674   0.811   0.892   0.405  0.0781 -0.1735  1.3699
  222ACOH    H210675   0.846   1.056   0.445  1.3580  0.7106 -0.3536
  222ACOH    H310676   0.971   0.966   0.368  0.4147  2.1124 -2.0078
  223ACOH    H410677   6.067   9.354   1.388  0.6768 -0.1992  1.6746
  223ACOH    O210678   6.134   9.425   1.379  0.1159  0.2305  0.7661
  223ACOH    C210679   6.089   9.483   1.272  0.2006 -0.2139  0.1914
  223ACOH    O110680   5.998   9.457   1.199  0.3730 -0.2336  0.3499
  223ACOH    C110681   6.171   9.609   1.249  0.5710  0.4888  0.0347
  223ACOH    H110682   6.213   9.612   1.148  0.2803 -3.3957 -0.2683
  223ACOH    H210683   6.253   9.627   1.317  1.0667 -2.1322  0.1915
  223ACOH    H310684   6.101   9.693   1.253  0.8285  0.7440 -0.7579
  224ACOH    H410685   0.032   3.544   2.413  0.7765 -2.1265 -0.2135
  224ACOH    O210686   0.023   3.526   2.508  0.4288 -0.8019  0.0189
  224ACOH    C210687   0.047   3.398   2.530  0.1307 -0.6787  0.1264
  224ACOH    O110688   0.007   3.310   2.451 -0.1537  0.0997 -0.2990
  224ACOH    C110689   0.051   3.367   2.675  0.7459  0.1641 -1.0214
  224ACOH    H110690   0.108   3.448   2.720  0.5507  0.0630 -0.5858
  224ACOH    H210691   0.084   3.268   2.708  0.3636  0.3946  0.0705
  224ACOH    H310692  -0.052   3.368   2.710  1.5570  0.0125  1.4966
  225ACOH    H410693   4.411   6.560   2.222 -1.7226  1.7322 -0.1164
  225ACOH    O210694   4.435   6.570   2.129 -0.1715  0.0653  0.0796
  225ACOH    C210695   4.523   6.474   2.095  0.1216 -0.3452 -0.4288
  225ACOH    O110696   4.537   6.364   2.151 -0.2866  0.8408 -1.1038
  225ACOH    C110697   4.589   6.506   1.969 -0.6438  0.1675  0.1096
  225ACOH    H110698   4.694   6.483   1.989 -0.4466  1.4268  0.5452
  225ACOH    H210699   4.578   6.612   1.947 -0.6433  0.3106  0.7971
  225ACOH    H310700   4.551   6.443   1.888  1.8085  0.4590 -1.3284
  226ACOH    H410701   8.261   0.219   2.907  1.8598 -1.4761  4.7974
  226ACOH    O210702   8.263   0.308   2.946  0.1699  0.6964  0.4273
  226ACOH    C210703   8.136   0.346   2.968  0.2545 -0.4787 -0.3773
  226ACOH    O110704   8.037   0.317   2.906 -0.4031  0.3532 -0.5270
  226ACOH    C110705   8.122   0.442   3.082  0.5261  0.5504  0.2303
  226ACOH    H110706   8.221   0.462   3.122  2.3889 -1.4281 -3.0768
  226ACOH    H210707   8.068   0.387   3.159  1.3343  1.2990  1.3402
  226ACOH    H310708   8.073   0.531   3.043 -1.0829 -0.3895  0.0198
  227ACOH    H410709   5.793   6.539   3.036 -0.2559  1.6970 -0.6005
  227ACOH    O210710   5.746   6.548   3.120 -0.1901 -0.0571 -0.3734
  227ACOH    C210711   5.828   6.625   3.196  0.1919  0.1327 -0.1213
  227ACOH    O110712   5.916   6.703   3.163  0.3557  0.1207  0.1166
  227ACOH    C110713   5.769   6.623   3.329  0.3344 -0.2329 -0.3859
  227ACOH    H110714   5.827   6.670   3.407 -0.8216 -0.0978  0.4096
  227ACOH    H210715   5.747   6.519   3.353 -1.7531  0.5053  1.0525
  227ACOH    H310716   5.679   6.685   3.326 -0.4378 -1.3758 -1.7495
  228ACOH    H410717   3.872   2.897   4.085 -0.5231  0.0680  0.8985
  228ACOH    O210718   3.946   2.913   4.147  0.1353  0.2275  0.0807
  228ACOH    C210719   3.978   3.041   4.126 -0.0052  0.2872 -0.2439
  228ACOH    O110720   3.975   3.087   4.008 -0.5693 -0.1219 -0.0324
  228ACOH    C110721   4.057   3.102   4.242 -0.4026 -0.2000  0.0045
  228ACOH    H110722   4.064   3.048   4.336 -0.1532 -1.1529 -0.5425
  228ACOH    H210723   4.002   3.194   4.260 -0.4322 -0.1152 -0.5021
  228ACOH    H310724   4.159   3.126   4.211 -0.2174 -0.8595  0.0992
  229ACOH    H410725   8.389   6.504   1.333  2.1719  0.1158 -0.2619
  229ACOH    O210726   8.387   6.454   1.416 -0.3077  0.3831 -0.1340
  229ACOH    C210727   8.482   6.506   1.487 -0.3642 -0.1788 -0.0700
  229ACOH    O110728   8.569   6.582   1.452  0.0045  0.1201 -0.2920
  229ACOH    C110729   8.473   6.441   1.620 -0.1080  0.3862 -0.6679
  229ACOH    H110730   8.457   6.334   1.612 -2.0192  0.6080  0.0521
  229ACOH    H210731   8.386   6.478   1.674  1.4229  1.4469  1.1624
  229ACOH    H310732   8.562   6.455   1.681 -0.8775  3.1484 -0.1159
  230ACOH    H410733   1.250   4.365   1.208 -0.3589 -0.2994  0.7930
  230ACOH    O210734   1.276   4.272   1.196 -0.0871 -0.1164 -0.0155
  230ACOH    C210735   1.355   4.263   1.087  0.0874 -0.1960  0.1893
  230ACOH    O110736   1.443   4.345   1.067 -0.1369  0.0870  0.7142
  230ACOH    C110737   1.330   4.145   1.002  0.0805  0.1717  0.4643
  230ACOH    H110738   1.394   4.062   1.031 -1.2250 -1.2604 -0.6910
  230ACOH    H210739   1.348   4.173   0.898  1.0039  1.9496  1.0806
  230ACOH    H310740   1.222   4.131   1.007 -0.4082  3.5284  0.1359
  231ACOH    H410741   5.854   0.743   1.711  0.0180 -1.2354  0.0133
  231ACOH    O210742   5.760   0.724   1.694 -0.2895  0.6645 -0.5583
  231ACOH    C210743   5.684   0.839   1.710 -0.6701  0.4654  0.5733
  231ACOH    O110744   5.724   0.943   1.754  0.3609  0.0403 -0.0828
  231ACOH    C110745   5.543   0.802   1.668 -0.0527 -0.4739 -0.4367
  231ACOH    H110746   5.513   0.871   1.589 -0.0480  0.9985  0.8196
  231ACOH    H210747   5.476   0.814   1.753 -0.4263  0.1626 -0.8216
  231ACOH    H310748   5.528   0.704   1.623  2.9011 -0.5586 -1.3612
  232ACOH    H410749   5.714   7.501   3.019 -0.0657 -0.2913 -2.4376
  232ACOH    O210750   5.799   7.453   3.026 -0.2801 -0.3353  0.2663
  232ACOH    C210751   5.779   7.321   3.034  0.0290 -0.0481 -0.0170
  232ACOH    O110752   5.683   7.261   3.070 -0.1810  1.0007  0.4126
  232ACOH    C110753   5.910   7.248   3.035 -0.4806 -0.4461  0.4937
  232ACOH    H110754   5.891   7.141   3.033 -1.5208 -0.2973  1.6869
  232ACOH    H210755   5.967   7.281   3.122 -0.0459 -1.7509  0.7181
  232ACOH    H310756   5.970   7.282   2.951  0.5265  0.0927  1.4151
  233ACOH    H410757   0.956   2.118   2.498 -0.5012  0.0244 -0.0401
  233ACOH    O210758   0.896   2.173   2.551 -0.3924 -0.4920  0.6369
  233ACOH    C210759   0.921   2.306   2.533  0.4048 -0.1656 -0.1837
  233ACOH    O110760   1.003   2.358   2.459  0.1573  0.2306 -0.1008
  233ACOH    C110761   0.843   2.389   2.631 -0.2781  0.0933 -0.1825
  233ACOH    H110762   0.861   2.495   2.615  0.2078 -0.1152 -1.0525
  233ACOH    H210763   0.875   2.370   2.734 -0.6270  1.8905  0.2665
  233ACOH    H310764   0.737   2.368   2.622 -0.0376 -0.3884 -2.1266
  234ACOH    H410765   4.888   8.448   1.622  0.1930  0.2340  1.3980
  234ACOH    O210766   4.881   8.534   1.577 -0.3019 -0.1406  0.7369
  234ACOH    C210767   5.002   8.598   1.587 -0.5498 -0.7031  0.7666
  234ACOH    O110768   5.110   8.549   1.603  0.3011  0.3702  0.6396
  234ACOH    C110769   4.991   8.735   1.528 -0.0996  0.3150  0.5259
  234ACOH    H110770   5.005   8.721   1.421 -0.4868 -1.3374  0.6833
  234ACOH    H210771   5.073   8.796   1.566 -0.3846  0.7212  0.4947
  234ACOH    H310772   4.895   8.787   1.535  0.5402  1.4665  0.9403
  235ACOH    H410773   4.933   1.326   3.851 -2.6095 -1.5736 -1.8426
  235ACOH    O210774   4.938   1.405   3.794  0.1549 -0.2829  0.0430
  235ACOH    C210775   4.924   1.365   3.657  0.2895  0.7769 -0.1428
  235ACOH    O110776   4.951   1.257   3.607  0.0559  0.3629  0.5429
  235ACOH    C110777   4.931   1.486   3.570  0.2910 -0.2323  0.6223
  235ACOH    H110778   4.892   1.575   3.621  0.7873  1.1565 -1.3668
  235ACOH    H210779   4.885   1.471   3.472 -0.3026 -0.3411  0.9116
  235ACOH    H310780   5.036   1.495   3.545  0.2511  2.5371  1.2628
  236ACOH    H410781   4.055   7.508   3.823  0.8055  1.9412  1.0245
  236ACOH    O210782   4.033   7.452   3.900  0.8887 -0.1130 -0.4232
  236ACOH    C210783   3.962   7.518   3.992 -0.4303  0.0619 -0.3017
  236ACOH    O110784   3.926   7.634   3.976  0.3311  0.0519  0.1523
  236ACOH    C110785   3.938   7.424   4.100 -0.0666  0.0915  0.3512
  236ACOH    H110786   3.897   7.475   4.187 -0.4252  0.0264  0.2197
  236ACOH    H210787   4.034   7.386   4.133  0.7841 -0.4056 -2.5118
  236ACOH    H310788   3.894   7.327   4.075  2.6309 -1.3860  1.1205
  237ACOH    H410789   4.387   3.297   0.263  1.3119  0.4644  0.5134
  237ACOH    O210790   4.374   3.249   0.346  0.4592  0.0692  0.1653
  237ACOH    C210791   4.489   3.243   0.411 -0.0372 -0.3079  0.0697
  237ACOH    O110792   4.567   3.336   0.407 -0.2757  0.5650  0.2359
  237ACOH    C110793   4.475   3.157   0.529  0.0877  0.6552  0.2179
  237ACOH    H110794   4.567   3.116   0.569  0.3449  0.3444 -0.6825
  237ACOH    H210795   4.417   3.068   0.506 -0.0243  1.1428 -1.4905
  237ACOH    H310796   4.421   3.211   0.607 -0.9490  0.2797 -0.2374
  238ACOH    H410797   4.348   3.175   3.604 -1.6538 -1.0892  0.4631
  238ACOH    O210798   4.381   3.176   3.696 -0.3383 -0.3184 -0.0029
  238ACOH    C210799   4.342   3.059   3.749  0.4511  0.2611 -0.5008
  238ACOH    O110800   4.270   2.978   3.693  0.5491 -0.0145 -0.2539
  238ACOH    C110801   4.384   3.046   3.891 -0.1632  0.2427  0.1985
  238ACOH    H110802   4.309   3.003   3.957  1.3043  2.4067  3.4016
  238ACOH    H210803   4.410   3.146   3.926  3.1205 -0.5338  0.1825
  238ACOH    H310804   4.473   2.984   3.896 -0.2991  0.0075 -0.2794
  239ACOH    H410805   4.729   7.882   0.287  0.2922 -2.5292 -0.8960
  239ACOH    O210806   4.786   7.906   0.213  0.5825 -0.2389  0.0333
  239ACOH    C210807   4.740   7.830   0.111 -0.0489 -0.4620  0.5521
  239ACOH    O110808   4.628   7.777   0.106 -0.2912 -0.3753 -0.0272
  239ACOH    C110809   4.843   7.808   0.001  0.2134 -0.2541  0.5309
  239ACOH    H110810   4.802   7.745  -0.077  1.8909 -0.7836  0.0576
  239ACOH    H210811   4.935   7.763   0.038 -0.3379 -0.6403  1.4362
  239ACOH    H310812   4.874   7.907  -0.035 -2.3895  0.6999  0.7869
  240ACOH    H410813   3.843   5.467   1.869 -0.9052  2.3593 -0.7690
  240ACOH    O210814   3.914   5.516   1.914  0.0473  0.3270  0.0093
  240ACOH    C210815   3.849   5.588   2.011  0.0004  0.0481  0.1061
  240ACOH    O110816   3.758   5.548   2.079 -0.2740 -0.2532  0.5951
  240ACOH    C110817   3.929   5.704   2.058 -0.0034  0.9878  0.0471
  240ACOH    H110818   3.924   5.785   1.985 -2.2630  1.7974  1.0786
  240ACOH    H210819   4.033   5.676   2.080 -0.0061  0.8452 -0.1229
  240ACOH    H310820   3.888   5.738   2.153  3.3322  2.7936  0.9299
  241ACOH    H410821   4.360   3.113   1.690 -0.9293  0.9126 -1.0370
  241ACOH    O210822   4.442   3.078   1.651 -0.7001 -0.1358  0.3733
  241ACOH    C210823   4.525   3.181   1.651  0.4350 -0.6330 -0.0573
  241ACOH    O110824   4.501   3.274   1.723 -0.4349 -0.8842  0.6544
  241ACOH    C110825   4.657   3.157   1.593 -0.3399  0.7308  0.6202
  241ACOH    H110826   4.744   3.194   1.647 -0.1046 -0.9346  1.4193
  241ACOH    H210827   4.658   3.208   1.496  0.3009  0.5160  0.5128
  241ACOH    H310828   4.671   3.050   1.577 -2.1665  0.2556  1.9693
  242ACOH    H410829   4.141   3.690   3.883 -0.7847 -1.7328  1.3282
  242ACOH    O210830   4.117   3.646   3.800  0.0423 -0.2119  0.2698
  242ACOH    C210831   3.984   3.651   3.784  0.0227  0.3497 -0.0035
  242ACOH    O110832   3.905   3.711   3.857 -0.2664  0.5880  0.0834
  242ACOH    C110833   3.935   3.578   3.670  0.3345 -0.7873 -0.3142
  242ACOH    H110834   3.875   3.647   3.611 -0.8544 -1.2441  0.3643
  242ACOH    H210835   3.874   3.491   3.694 -0.9260  0.2552  0.2911
  242ACOH    H310836   4.013   3.546   3.601 -0.3155  2.4997 -2.7092
  243ACOH    H410837   2.592   6.148   0.259  0.2573  0.9569 -0.7701
  243ACOH    O210838   2.663   6.103   0.210  0.0676  0.2598 -0.4087
  243ACOH    C210839   2.618   5.979   0.185  0.3838 -0.0578 -0.1548
  243ACOH    O110840   2.501   5.942   0.200  0.2618 -0.1428  0.6634
  243ACOH    C110841   2.726   5.893   0.135 -0.0178  1.0350 -1.0796
  243ACOH    H110842   2.736   5.909   0.028 -1.7339 -0.7706 -1.5535
  243ACOH    H210843   2.704   5.787   0.149  0.0231  0.9658 -1.5332
  243ACOH    H310844   2.810   5.923   0.197 -2.2370  1.8175  1.6555
  244ACOH    H410845   8.267   0.776   1.920  1.9771 -0.3299 -0.3479
  244ACOH    O210846   8.305   0.834   1.989  0.7433  0.0411  0.0351
  244ACOH    C210847   8.387   0.761   2.062 -0.2396 -0.6413  0.1330
  244ACOH    O110848   8.436   0.662   2.015  0.5650 -0.2440 -0.4171
  244ACOH    C110849   8.434   0.849   2.170 -0.1223 -0.8526  0.0490
  244ACOH    H110850   8.359   0.889   2.238 -2.1088 -1.9851 -1.4079
  244ACOH    H210851   8.475   0.935   2.117 -3.2744  0.0341 -1.0696
  244ACOH    H310852   8.514   0.798   2.223 -0.1372 -0.4012  0.5038
  245ACOH    H410853   4.151   5.906   1.755  1.3824  0.6390 -0.6404
  245ACOH    O210854   4.148   5.885   1.661  0.1519  0.2659 -0.5386
  245ACOH    C210855   4.032   5.823   1.638 -1.0501  0.2137 -0.2788
  245ACOH    O110856   3.935   5.849   1.714  0.0228 -0.2175  0.0938
  245ACOH    C110857   4.014   5.781   1.500 -0.0179  0.2830 -0.2273
  245ACOH    H110858   3.908   5.763   1.483  0.1718 -1.9580  0.6694
  245ACOH    H210859   4.072   5.689   1.488  1.5667  1.0217  1.5080
  245ACOH    H310860   4.055   5.854   1.431 -1.5793  0.9383 -0.4756
  246ACOH    H410861   8.909   0.926   2.319  0.8146  2.4082 -0.5201
  246ACOH    O210862   8.877   0.976   2.396 -0.3857  0.9298 -0.0268
  246ACOH    C210863   8.906   1.107   2.382  0.5644  0.5636 -0.1318
  246ACOH    O110864   8.936   1.149   2.274 -0.0237  0.4886  0.0022
  246ACOH    C110865   8.873   1.193   2.494  0.4280  0.4530 -0.5589
  246ACOH    H110866   8.928   1.152   2.578  0.0237 -0.3264 -0.6743
  246ACOH    H210867   8.766   1.200   2.511  0.5308 -0.8273  0.6756
  246ACOH    H310868   8.907   1.296   2.483  0.6750  0.5243  0.9158
  247ACOH    H410869   2.813   4.804   2.688 -0.9867  0.8231  1.5028
  247ACOH    O210870   2.766   4.853   2.618  0.2227 -0.2304 -0.1000
  247ACOH    C210871   2.682   4.764   2.566 -0.2693  0.1216  0.5388
  247ACOH    O110872   2.655   4.657   2.614  0.3768 -0.3201  0.1079
  247ACOH    C110873   2.601   4.828   2.462 -0.0254 -0.2023  0.3485
  247ACOH    H110874   2.497   4.838   2.492 -0.0969  1.6379 -0.4449
  247ACOH    H210875   2.603   4.767   2.371 -1.1088  0.0716  0.1413
  247ACOH    H310876   2.634   4.931   2.448 -2.6233  0.4434 -1.4593
  248ACOH    H410877   4.604   5.187   1.736  0.5067  1.2176  1.4294
  248ACOH    O210878   4.614   5.150   1.825  0.6020  0.1085  0.9630
  248ACOH    C210879   4.640   5.020   1.810 -0.3055 -0.6612 -0.5005
  248ACOH    O110880   4.626   4.967   1.705 -0.1063  0.6295 -0.2123
  248ACOH    C110881   4.686   4.959   1.935 -0.0225  0.1123 -0.1299
  248ACOH    H110882   4.684   4.850   1.932  2.1474  0.0107  1.2448
  248ACOH    H210883   4.635   4.997   2.023  0.0772  0.7493 -0.3468
  248ACOH    H310884   4.791   4.981   1.953 -0.2276  1.1966 -0.2281
  249ACOH    H410885   0.118   3.155   3.580 -0.8041  0.7775  0.2838
  249ACOH    O210886   0.111   3.167   3.676  0.1271 -0.5431  0.5274
  249ACOH    C210887   0.210   3.252   3.720  0.5172  0.1675 -0.5973
  249ACOH    O110888   0.283   3.314   3.646 -0.2616 -0.4218 -0.2386
  249ACOH    C110889   0.206   3.277   3.871 -0.2560 -0.1729 -0.6385
  249ACOH    H110890   0.165   3.372   3.903 -0.3453 -0.1371 -0.8533
  249ACOH    H210891   0.305   3.257   3.912 -1.3525 -2.5876  0.9377
  249ACOH    H310892   0.144   3.192   3.901  1.1590 -1.2751 -0.7445
  250ACOH    H410893   4.908   3.520   2.865 -0.8203 -0.1352  0.3834
  250ACOH    O210894   4.966   3.583   2.911 -0.6264 -0.2880  0.3481
  250ACOH    C210895   4.896   3.604   3.023 -0.0496 -0.1459  0.3923
  250ACOH    O110896   4.777   3.585   3.040 -0.0247 -0.6556 -0.2598
  250ACOH    C110897   4.984   3.680   3.117 -0.1357  0.5094 -0.0092
  250ACOH    H110898   4.934   3.683   3.214 -0.2312  0.9904 -0.0759
  250ACOH    H210899   4.991   3.783   3.084  1.0033  0.2812 -0.5023
  250ACOH    H310900   5.078   3.626   3.128  0.2444  1.2454  0.3692
  251ACOH    H410901   9.011   9.372   2.816  0.0317 -1.8996  2.1311
  251ACOH    O210902   8.982   9.308   2.748 -0.1281  0.2384  0.1102
  251ACOH    C210903   8.902   9.380   2.676 -0.1951 -0.1765 -0.1524
  251ACOH    O110904   8.871   9.497   2.688  0.1469 -0.7558  0.5390
  251ACOH    C110905   8.819   9.291   2.590 -0.1058  0.2094  0.4504
  251ACOH    H110906   8.879   9.229   2.522  1.2444 -1.2977  2.9290
  251ACOH    H210907   8.731   9.338   2.547 -1.5821 -1.7637  1.2572
  251ACOH    H310908   8.785   9.216   2.661 -0.4084 -0.5595 -0.4897
  252ACOH    H410909   9.703   6.796   1.186 -0.0202  0.7451 -0.8711
  252ACOH    O210910   9.624   6.749   1.153  0.2476  0.1780 -0.7184
  252ACOH    C210911   9.643   6.701   1.033 -0.1422  0.1645 -0.1141
  252ACOH    O110912   9.703   6.751   0.939  0.2025 -0.0732  0.2534
  252ACOH    C110913   9.542   6.592   1.012 -0.1042 -0.5692  0.3726
  252ACOH    H110914   9.587   6.512   0.952  2.4103  2.5224 -2.0230
  252ACOH    H210915   9.458   6.628   0.953 -0.2789 -0.6324  0.5850
  252ACOH    H310916   9.503   6.564   1.110 -1.3388  0.0338  0.0583
  253ACOH    H410917   1.651   8.208   3.858  0.6388  0.0806  0.0422
  253ACOH    O210918   1.593   8.262   3.801 -0.2960 -0.7502  0.1992
  253ACOH    C210919   1.673   8.297   3.695  0.1994  0.6524 -1.3264
  253ACOH    O110920   1.788   8.257   3.678 -0.4438  0.8374  0.1864
  253ACOH    C110921   1.580   8.339   3.590 -0.0565  0.2511 -1.2086
  253ACOH    H110922   1.506   8.405   3.635  1.2818  0.5852  0.5185
  253ACOH    H210923   1.532   8.247   3.556 -2.3187  0.3489  1.5214
  253ACOH    H310924   1.644   8.397   3.524  1.3772  2.8659  2.3270
  254ACOH    H410925   9.133   0.678   2.659  0.0091  0.5824  0.1023
  254ACOH    O210926   9.046   0.692   2.700  0.0613  0.1190  0.3680
  254ACOH    C210927   9.047   0.682   2.835 -0.4948 -0.5005  0.7484
  254ACOH    O110928   9.145   0.667   2.903  0.4416 -0.0296  0.4267
  254ACOH    C110929   8.909   0.702   2.888  0.4714  0.5392  0.0777
  254ACOH    H110930   8.834   0.680   2.813 -1.3017  0.2596  1.8979
  254ACOH    H210931   8.898   0.805   2.920 -0.3819  0.3737  0.3229
  254ACOH    H310932   8.903   0.633   2.973  0.6082 -1.3576 -1.4159
  255ACOH    H410933   4.651   2.687   0.149  0.4849 -0.4866 -0.2000
  255ACOH    O210934   4.613   2.751   0.086  0.4359  0.1645  0.4785
  255ACOH    C210935   4.664   2.873   0.106 -0.2328  0.3389  0.6642
  255ACOH    O110936   4.754   2.903   0.182 -0.2698 -0.3677  0.3167
  255ACOH    C110937   4.585   2.971   0.023  0.3253  0.1639 -0.0164
  255ACOH    H110938   4.547   2.923  -0.068 -2.1980  3.2691 -0.7061
  255ACOH    H210939   4.658   3.044  -0.012 -0.4584  0.3485 -1.3232
  255ACOH    H310940   4.505   3.015   0.082 -0.4784 -0.9298 -0.2682
  256ACOH    H410941   7.809   6.580   0.191  0.2542 -2.1037  0.5630
  256ACOH    O210942   7.759   6.620   0.264 -0.1382 -0.6792 -0.4476
  256ACOH    C210943   7.796   6.746   0.266 -0.1047 -0.8750  0.2751
  256ACOH    O110944   7.857   6.807   0.179  0.5223  0.9260 -0.7326
  256ACOH    C110945   7.744   6.820   0.386 -0.8104 -0.0270 -0.5194
  256ACOH    H110946   7.761   6.763   0.478  0.4832  1.3943  0.1422
  256ACOH    H210947   7.637   6.839   0.377 -0.5403  1.1558 -1.3381
  256ACOH    H310948   7.794   6.916   0.394 -0.5110 -0.4136  2.8132
  257ACOH    H410949   6.310   0.835   2.326  2.2592  0.7147  0.9303
  257ACOH    O210950   6.320   0.898   2.253  0.0220 -0.1633 -0.1859
  257ACOH    C210951   6.456   0.881   2.219  0.5963 -0.2836  0.5152
  257ACOH    O110952   6.543   0.827   2.287  0.2660 -0.4647  0.4300
  257ACOH    C110953   6.489   0.961   2.101 -0.1675  0.0953 -0.3438
  257ACOH    H110954   6.422   0.917   2.026 -2.2367  3.3039 -0.4932
  257ACOH    H210955   6.594   0.944   2.078  0.4635  2.8133  0.3611
  257ACOH    H310956   6.460   1.066   2.097  2.2582  0.7962  0.1250
  258ACOH    H410957   2.472   9.506   1.723 -0.1719  0.7892 -1.1179
  258ACOH    O210958   2.523   9.588   1.729 -0.1393  0.6970 -0.0081
  258ACOH    C210959   2.458   9.681   1.649 -0.0726 -0.0366 -0.1971
  258ACOH    O110960   2.349   9.670   1.594 -0.0657 -0.4298  0.2044
  258ACOH    C110961   2.539   9.802   1.631  0.0410 -0.1973 -0.0702
  258ACOH    H110962   2.534   9.868   1.717 -0.2783 -0.6654  0.2679
  258ACOH    H210963   2.512   9.856   1.540  0.6998  0.3162  0.0307
  258ACOH    H310964   2.644   9.772   1.625  0.3844  0.9252  0.2402
  259ACOH    H410965   6.528   6.710   3.092  0.4709 -0.4910 -0.3795
  259ACOH    O210966   6.447   6.658   3.100  0.1342  0.0353 -0.3108
  259ACOH    C210967   6.425   6.638   3.234 -0.4006  0.1258 -0.3756
  259ACOH    O110968   6.504   6.675   3.319 -0.4678  0.3773  0.5041
  259ACOH    C110969   6.285   6.589   3.256  0.3239  0.0750  0.4013
  259ACOH    H110970   6.279   6.492   3.305 -0.3153  1.0658  2.3358
  259ACOH    H210971   6.227   6.571   3.165 -2.9449 -1.1275  2.6201
  259ACOH    H310972   6.232   6.666   3.313 -0.3538 -1.2967  1.6703
  260ACOH    H410973   4.185   7.491   0.189 -2.6069  0.1822 -2.6785
  260ACOH    O210974   4.196   7.397   0.169  0.1499 -0.1417  0.0397
  260ACOH    C210975   4.307   7.349   0.226 -0.3829  0.0487 -0.9130
  260ACOH    O110976   4.405   7.419   0.248 -0.5331 -0.3533  0.3704
  260ACOH    C110977   4.318   7.202   0.233  0.2698  0.1490  0.1806
  260ACOH    H110978   4.417   7.156   0.239 -0.5493 -1.5102  1.5360
  260ACOH    H210979   4.278   7.169   0.137 -1.2109 -0.8554  1.1261
  260ACOH    H310980   4.263   7.154   0.313  0.5194  1.1109  0.9285
  261ACOH    H410981   2.962   7.878   1.907  0.8839  3.1108 -1.2052
  261ACOH    O210982   3.046   7.865   1.954 -0.2600 -1.1016 -0.1199
  261ACOH    C210983   3.095   7.744   1.920  0.1193 -0.6034  0.0638
  261ACOH    O110984   3.034   7.644   1.881 -0.2161  0.3729  0.4014
  261ACOH    C110985   3.236   7.732   1.951 -0.3029  0.2660 -0.4579
  261ACOH    H110986   3.297   7.783   1.876  1.1017  0.7824  0.9965
  261ACOH    H210987   3.282   7.637   1.978  0.0827  0.4331 -0.5098
  261ACOH    H310988   3.242   7.781   2.048 -1.2232 -0.9261  0.2215
  262ACOH    H410989   4.876   3.305   1.168 -1.0440 -1.8107 -4.7856
  262ACOH    O210990   4.921   3.387   1.142 -0.3373 -0.6289 -0.1653
  262ACOH    C210991   4.853   3.447   1.045  0.0653 -0.4497 -0.2005
  262ACOH    O110992   4.743   3.417   1.003  0.6146  0.0885 -0.0542
  262ACOH    C110993   4.910   3.581   1.008  0.8986 -0.2942 -0.6708
  262ACOH    H110994   4.911   3.584   0.900 -0.5841  0.1846 -0.6756
  262ACOH    H210995   5.012   3.596   1.046  1.4663 -1.2371 -1.7978
  262ACOH    H310996   4.850   3.666   1.041  0.9471 -0.4348 -0.2141
  263ACOH    H410997   4.864   0.396   0.944  0.7988  0.5237  0.6343
  263ACOH    O210998   4.893   0.488   0.939  0.7748  0.4883 -0.3169
  263ACOH    C210999   4.781   0.560   0.916 -0.3254 -0.1857  0.1799
  263ACOH    O111000   4.677   0.517   0.870 -0.0164  0.4100 -0.2892
  263ACOH    C111001   4.792   0.700   0.936 -0.3088  0.1502 -0.2974
  263ACOH    H111002   4.747   0.756   0.854  1.3135  1.6568 -0.1902
  263ACOH    H211003   4.893   0.742   0.942  0.4666 -1.5398 -1.1258
  263ACOH    H311004   4.735   0.731   1.023 -0.1527 -0.7031  0.1122
  264ACOH    H411005   6.828   7.812   1.231 -0.9162  2.0370 -0.2873
  264ACOH    O211006   6.735   7.785   1.228 -0.3192 -0.0962 -0.2331
  264ACOH    C211007   6.694   7.793   1.355 -0.1059 -0.1157 -0.6304
  264ACOH    O111008   6.729   7.884   1.433  0.7557  0.0708 -0.1498
  264ACOH    C111009   6.559   7.726   1.356  0.9185 -0.3258  0.0818
  264ACOH    H111010   6.488   7.782   1.417  1.1912  1.8364 -1.5130
  264ACOH    H211011   6.575   7.634   1.411 -0.8508 -0.6403  0.0859
  264ACOH    H311012   6.522   7.716   1.254  0.6090 -2.6478  0.4125
  265ACOH    H411013   9.454   4.833   2.765  0.3111 -2.3317  1.7961
  265ACOH    O211014   9.361   4.826   2.792 -0.2808 -0.3435  0.3500
  265ACOH    C211015   9.378   4.745   2.893 -0.0739  0.1884 -0.1948
  265ACOH    O111016   9.478   4.714   2.954 -0.1576  0.0216 -0.2305
  265ACOH    C111017   9.252   4.668   2.915 -0.1258  0.5610  0.9530
  265ACOH    H111018   9.287   4.566   2.900 -0.6181  0.6019 -0.5562
  265ACOH    H211019   9.167   4.686   2.850 -0.6717  1.0939  1.8032
  265ACOH    H311020   9.215   4.681   3.017 -0.9699 -0.9901  0.8624
  266ACOH    H411021   4.889   2.919   2.990  0.4897 -0.6666 -0.0885
  266ACOH    O211022   4.896   2.999   3.046 -0.2125 -0.6542 -0.0155
  266ACOH    C211023   4.863   3.108   2.977  0.2991  0.4147  1.4422
  266ACOH    O111024   4.829   3.118   2.859 -0.0844 -0.0570  0.6073
  266ACOH    C111025   4.902   3.224   3.053 -0.5879 -0.2495  0.2546
  266ACOH    H111026   4.930   3.309   2.992 -3.0260 -0.0777 -0.6688
  266ACOH    H211027   4.991   3.190   3.106  0.5485  0.6657 -1.0310
  266ACOH    H311028   4.823   3.254   3.122 -0.1579 -0.0790  0.6792
  267ACOH    H411029   5.779   8.360   1.587 -1.5198  1.5044  0.9252
  267ACOH    O211030   5.758   8.393   1.498 -0.3543  0.2331  0.1555
  267ACOH    C211031   5.635   8.352   1.469  0.1396  0.5217 -0.3480
  267ACOH    O111032   5.580   8.258   1.527 -0.0294  0.6592  0.5419
  267ACOH    C111033   5.573   8.408   1.345 -0.0517  0.0761 -0.1310
  267ACOH    H111034   5.648   8.422   1.266 -1.1280  2.7784 -0.7304
  267ACOH    H211035   5.522   8.499   1.376 -1.4610 -0.9515  0.5768
  267ACOH    H311036   5.499   8.334   1.315 -1.0943  0.8011  0.6332
  268ACOH    H411037   4.945   3.458   0.309 -0.1751 -1.2652  1.8051
  268ACOH    O211038   4.986   3.391   0.251  0.2411 -0.0465  0.6607
  268ACOH    C211039   5.037   3.454   0.147  0.0960 -0.2002 -0.1279
  268ACOH    O111040   5.028   3.571   0.114 -0.4216 -0.4726 -0.2712
  268ACOH    C111041   5.110   3.351   0.066 -0.2796  0.0634  0.1020
  268ACOH    H111042   5.088   3.351  -0.040  1.4713  0.9158 -0.2690
  268ACOH    H211043   5.085   3.252   0.106 -0.8677  0.7231  1.3876
  268ACOH    H311044   5.216   3.374   0.075 -0.5686  0.3666  3.3768
  269ACOH    H411045   7.402   9.002   2.513  2.2511  0.5179 -0.8408
  269ACOH    O211046   7.425   9.055   2.592  0.0511  0.2755  0.0008
  269ACOH    C211047   7.347   9.162   2.599 -0.7031 -0.7564  0.4035
  269ACOH    O111048   7.250   9.198   2.532 -0.4671 -0.2950 -0.4188
  269ACOH    C111049   7.386   9.259   2.703 -0.6776  0.5633  0.6068
  269ACOH    H111050   7.304   9.314   2.749  0.1159  1.3996  1.0308
  269ACOH    H211051   7.452   9.327   2.649 -0.5079  1.0954  1.4784
  269ACOH    H311052   7.447   9.220   2.784 -1.2452 -0.0625  0.7415
  270ACOH    H411053   4.622   7.536   0.654 -0.7075  0.2838  0.8962
  270ACOH    O211054   4.685   7.609   0.667  0.1291 -0.3931  0.6651
  270ACOH    C211055   4.658   7.672   0.779 -0.0547 -0.6775 -0.1405
  270ACOH    O111056   4.583   7.634   0.868  0.1668 -0.2890  0.4904
  270ACOH    C111057   4.751   7.787   0.802  0.1638  0.3976 -0.1690
  270ACOH    H111058   4.852   7.774   0.763 -0.1177  0.3998 -0.9026
  270ACOH    H211059   4.760   7.801   0.910 -0.5703  0.5358 -0.1191
  270ACOH    H311060   4.714   7.882   0.764  2.0079  1.9872  1.8693
  271ACOH    H411061   5.209   2.929   1.135  0.6567 -0.8099  0.5535
  271ACOH    O211062   5.273   2.911   1.065  0.3704  0.0284  0.0738
  271ACOH    C211063   5.270   2.776   1.053  0.1552  0.2925  0.2789
  271ACOH    O111064   5.183   2.696   1.088 -0.0578 -0.6037 -0.1853
  271ACOH    C111065   5.380   2.724   0.964  0.0851 -0.5810 -0.2325
  271ACOH    H111066   5.374   2.617   0.941  3.6975 -0.8393 -0.3651
  271ACOH    H211067   5.475   2.747   1.013 -0.9093  0.1913  1.3765
  271ACOH    H311068   5.361   2.776   0.871 -2.5907  1.5010  1.3961
  272ACOH    H411069   3.510   6.104   1.374  2.6887  1.2617  1.0201
  272ACOH    O211070   3.538   6.044   1.304 -0.4302  0.1905  0.5852
  272ACOH    C211071   3.634   5.966   1.350  0.9904  0.5823 -0.9459
  272ACOH    O111072   3.649   5.853   1.312  0.5288 -0.2138  0.5396
  272ACOH    C111073   3.719   6.044   1.448  0.1157  0.5984  0.0295
  272ACOH    H111074   3.728   5.972   1.529  0.6135  1.7533  1.0214
  272ACOH    H211075   3.672   6.131   1.494 -0.3903  1.0549 -1.3058
  272ACOH    H311076   3.820   6.068   1.417  1.0822 -1.8140  1.2499
  273ACOH    H411077   7.271   0.622   4.579 -1.5379 -1.4183  0.3504
  273ACOH    O211078   7.205   0.641   4.648 -1.1519  0.2740  0.2792
  273ACOH    C211079   7.091   0.590   4.588 -0.0941 -0.2632 -0.9404
  273ACOH    O111080   7.083   0.524   4.488 -0.0186 -0.0573  0.0283
  273ACOH    C111081   6.971   0.616   4.672  0.3116  0.6232 -0.0063
  273ACOH    H111082   6.965   0.556   4.763 -2.3174  3.4881  1.8146
  273ACOH    H211083   6.881   0.599   4.613 -0.1609  0.5276  0.7394
  273ACOH    H311084   6.969   0.721   4.699  1.0271  0.7989 -0.5938
  274ACOH    H411085   4.001   7.132   0.648  0.0541  0.9944  0.5990
  274ACOH    O211086   4.023   7.043   0.618  0.2228  1.2212  0.0514
  274ACOH    C211087   3.960   7.017   0.499  0.2182  0.1584  0.2131
  274ACOH    O111088   3.881   7.089   0.443 -0.2755 -0.2200 -0.0156
  274ACOH    C111089   3.990   6.880   0.457 -0.3381  0.0417  0.7138
  274ACOH    H111090   3.905   6.841   0.401  0.5255  1.4324 -1.6280
  274ACOH    H211091   4.015   6.810   0.537 -1.2456 -0.9964  0.1079
  274ACOH    H311092   4.073   6.883   0.387 -1.6434  1.3132 -0.8281
  275ACOH    H411093   7.300   6.465   1.665  0.9291  0.9415  2.5519
  275ACOH    O211094   7.218   6.424   1.699  0.0896 -0.0989 -0.5625
  275ACOH    C211095   7.231   6.298   1.661  0.3173 -0.0275 -0.3783
  275ACOH    O111096   7.316   6.240   1.600 -0.0695  0.3416 -0.1813
  275ACOH    C111097   7.100   6.228   1.684 -0.0295  0.5233 -0.2611
  275ACOH    H111098   7.068   6.199   1.584  1.0541 -0.9141 -0.2035
  275ACOH    H211099   7.026   6.296   1.727 -0.8092  0.2052 -1.0844
  275ACOH    H311100   7.101   6.145   1.755 -0.2948  0.6274 -0.1332
  276ACOH    H411101   2.583   6.163   2.786  0.6775  0.5705 -0.4417
  276ACOH    O211102   2.518   6.235   2.774  0.0928  0.2194  0.5256
  276ACOH    C211103   2.401   6.182   2.728  0.2364 -0.0637  0.5182
  276ACOH    O111104   2.400   6.084   2.656  0.0088  0.3917 -0.1146
  276ACOH    C111105   2.277   6.272   2.723  0.1607 -0.4760  0.8490
  276ACOH    H111106   2.277   6.319   2.624 -0.0469 -1.8337  0.1923
  276ACOH    H211107   2.280   6.346   2.803 -2.3242  1.7270 -1.0141
  276ACOH    H311108   2.184   6.222   2.750 -0.0273 -0.6852 -0.1583
  277ACOH    H411109   5.923   0.535   3.735 -0.0897 -0.0912  1.8183
  277ACOH    O211110   5.956   0.624   3.716 -0.0613 -0.4101  0.2665
  277ACOH    C211111   5.865   0.691   3.638  0.3015  0.3043  0.3681
  277ACOH    O111112   5.756   0.644   3.610 -0.1464 -0.5746  0.5143
  277ACOH    C111113   5.911   0.821   3.583  0.1828 -0.2700 -0.1599
  277ACOH    H111114   5.872   0.846   3.484  1.0233 -1.7899 -0.9006
  277ACOH    H211115   6.020   0.831   3.573  0.0488  2.3802  0.5016
  277ACOH    H311116   5.884   0.899   3.654 -1.6592  1.8757 -3.1136
  278ACOH    H411117   6.596   0.829   3.536  1.6078  1.3665 -1.0504
  278ACOH    O211118   6.577   0.874   3.620 -0.1096 -0.7227 -0.2697
  278ACOH    C211119   6.622   0.793   3.717 -0.3757 -0.1697 -0.6963
  278ACOH    O111120   6.707   0.709   3.697  0.4106  0.6168  0.5647
  278ACOH    C111121   6.580   0.821   3.857  0.2045 -0.1684  0.0162
  278ACOH    H111122   6.666   0.818   3.924 -1.4886 -0.6642  2.2359
  278ACOH    H211123   6.512   0.740   3.882 -0.7505  0.5955 -0.0629
  278ACOH    H311124   6.530   0.918   3.862  0.1921 -0.1514 -0.4199
  279ACOH    H411125   3.645   4.901   3.091 -0.0892 -2.3209  0.6220
  279ACOH    O211126   3.657   4.904   3.188 -0.1048  0.4890  0.5969
  279ACOH    C211127   3.661   5.035   3.223 -0.0682  0.1502  0.5474
  279ACOH    O111128   3.620   5.121   3.154  0.5698  0.0510  0.5934
  279ACOH    C111129   3.691   5.050   3.365  0.1465 -0.5721 -0.6590
  279ACOH    H111130   3.700   5.154   3.396  0.6878 -0.7451 -0.2073
  279ACOH    H211131   3.785   4.998   3.385  0.4802  0.4948  0.6197
  279ACOH    H311132   3.610   5.003   3.421  0.4475 -1.5918 -1.0589
  280ACOH    H411133   4.558   8.124   0.756  0.6059 -0.0949  0.1823
  280ACOH    O211134   4.642   8.162   0.726  0.3583  0.2360 -0.0933
  280ACOH    C211135   4.617   8.217   0.604  0.1402 -0.4430  0.4723
  280ACOH    O111136   4.511   8.242   0.544  0.0437  0.7420 -0.3867
  280ACOH    C111137   4.745   8.234   0.532 -0.3115  0.5950 -0.0967
  280ACOH    H111138   4.759   8.153   0.461  1.8967 -0.2964  1.3364
  280ACOH    H211139   4.834   8.237   0.594  1.0106  1.5649 -1.9687
  280ACOH    H311140   4.739   8.327   0.475 -0.2263  0.8408  0.2979
  281ACOH    H411141   9.549   4.744   1.756 -0.1801  1.7030  0.6384
  281ACOH    O211142   9.454   4.725   1.761  0.1764 -0.3641 -0.3949
  281ACOH    C211143   9.421   4.682   1.642 -0.5019 -0.1724 -0.1343
  281ACOH    O111144   9.496   4.665   1.549 -0.2996 -0.4860  0.2258
  281ACOH    C111145   9.275   4.638   1.642 -0.2487  0.6488 -0.2172
  281ACOH    H111146   9.240   4.579   1.727 -1.8242  1.4581 -0.2810
  281ACOH    H211147   9.265   4.578   1.552 -2.6058  1.5687 -0.6192
  281ACOH    H311148   9.203   4.721   1.644  0.3107  1.1286  1.8076
  282ACOH    H411149   7.268   0.722   0.843 -2.5011 -1.6045 -1.4191
  282ACOH    O211150   7.269   0.780   0.766  0.0901  0.5504  0.1385
  282ACOH    C211151   7.350   0.876   0.816 -1.1937  0.1125 -0.3567
  282ACOH    O111152   7.406   0.882   0.925  0.0896  0.7971  0.3427
  282ACOH    C111153   7.348   0.988   0.721 -0.4103 -0.4703  0.6663
  282ACOH    H111154   7.433   1.050   0.747 -1.0394  0.7157 -0.0581
  282ACOH    H211155   7.261   1.049   0.745 -0.4356 -0.8053  1.4247
  282ACOH    H311156   7.352   0.962   0.615  1.0390  0.9634  0.3595
  283ACOH    H411157   3.986   4.802   2.008 -0.0351  0.9856  0.7307
  283ACOH    O211158   3.918   4.757   2.062  0.1760 -0.4122 -0.1536
  283ACOH    C211159   3.859   4.859   2.131 -0.0182 -0.6112  0.6128
  283ACOH    O111160   3.901   4.974   2.141 -0.3982 -0.4804 -0.5755
  283ACOH    C111161   3.765   4.807   2.237  0.5539  0.4484  0.0429
  283ACOH    H111162   3.743   4.702   2.217 -1.1778  1.0574 -1.4191
  283ACOH    H211163   3.668   4.857   2.232  0.7530  0.9943  1.4687
  283ACOH    H311164   3.807   4.825   2.336 -1.9795 -1.3105  1.4912
  284ACOH    H411165   0.741   9.872   1.932 -0.8304  0.1654  0.7623
  284ACOH    O211166   0.758   9.967   1.937  0.2734  0.0032  0.2132
  284ACOH    C211167   0.670  10.023   1.859  0.8488 -0.2762  0.1032
  284ACOH    O111168   0.554   9.993   1.845 -0.3930  0.4543  0.0494
  284ACOH    C111169   0.721  10.155   1.821  0.0802  0.1219 -0.4360
  284ACOH    H111170   0.630  10.203   1.783 -0.6826 -0.3330  0.7720
  284ACOH    H211171   0.801  10.159   1.748  1.8991 -1.8058  1.4104
  284ACOH    H311172   0.753  10.216   1.906  0.7684 -0.4407 -0.2937
  285ACOH    H411173   3.442   5.360   4.260  0.8145  0.2152  0.4030
  285ACOH    O211174   3.460   5.452   4.287 -0.6191  0.6200  0.0316
  285ACOH    C211175   3.586   5.454   4.335  0.5790 -0.4481 -0.4617
  285ACOH    O111176   3.647   5.356   4.375 -0.0954  0.1097  0.2497
  285ACOH    C111177   3.651   5.588   4.353  0.0000  0.0518  0.0772
  285ACOH    H111178   3.743   5.576   4.410  0.3545  1.8342 -0.0961
  285ACOH    H211179   3.575   5.648   4.404 -1.5209 -0.1142 -1.9101
  285ACOH    H311180   3.675   5.629   4.255 -2.5484  0.1443 -0.5594
  286ACOH    H411181   7.292   8.364   0.551  1.0824  1.0614 -1.5362
  286ACOH    O211182   7.300   8.272   0.520 -0.3669  0.5531 -0.4461
  286ACOH    C211183   7.357   8.266   0.399  0.3697 -0.0420 -0.9996
  286ACOH    O111184   7.408   8.360   0.344  0.3880 -0.6294 -0.8813
  286ACOH    C111185   7.382   8.130   0.352 -0.3053  0.0527  1.1079
  286ACOH    H111186   7.387   8.080   0.448  0.4905 -0.4461  0.8022
  286ACOH    H211187   7.474   8.127   0.294 -0.1253  0.5967  1.3627
  286ACOH    H311188   7.288   8.108   0.300  0.0296 -0.6743  0.8050
  287ACOH    H411189   5.138   1.469   2.494 -1.0166 -0.9474 -0.5148
  287ACOH    O211190   5.165   1.407   2.564 -0.3262 -0.1176 -0.0301
  287ACOH    C211191   5.110   1.449   2.676  0.0330  0.5406  0.0653
  287ACOH    O111192   5.058   1.552   2.699 -0.2138  0.2783 -0.4107
  287ACOH    C111193   5.115   1.346   2.782  0.7371 -0.8399  0.2027
  287ACOH    H111194   5.019   1.317   2.824  0.3897 -1.4830 -1.0205
  287ACOH    H211195   5.176   1.387   2.863 -0.0032  0.6183  0.0522
  287ACOH    H311196   5.157   1.250   2.754  0.8105 -1.4275  2.2464
  288ACOH    H411197   7.083   6.465   3.217  1.5823 -2.1688 -3.3474
  288ACOH    O211198   7.022   6.391   3.232  0.0255 -0.3777 -0.5688
  288ACOH    C211199   7.085   6.273   3.218  0.0965 -0.8464  0.1008
  288ACOH    O111200   7.190   6.250   3.158 -0.1905  0.2604 -0.4594
  288ACOH    C111201   7.004   6.168   3.278 -0.2680 -0.0722  0.2601
  288ACOH    H111202   7.009   6.090   3.201  3.0944  1.9774 -1.6945
  288ACOH    H211203   6.898   6.192   3.271 -0.3174 -0.1828  0.5977
  288ACOH    H311204   7.038   6.121   3.370  0.1192  1.4776  0.9154
  289ACOH    H411205   4.084   0.018   0.675 -3.0216 -1.0864 -0.7468
  289ACOH    O211206   4.064   0.101   0.629  0.0797  0.3546  0.4001
  289ACOH    C211207   4.186   0.163   0.614  0.1554  0.0104 -0.4077
  289ACOH    O111208   4.288   0.145   0.672 -0.5393  0.5281 -0.0210
  289ACOH    C111209   4.175   0.286   0.531 -0.1148  0.6122 -0.1322
  289ACOH    H111210   4.119   0.262   0.440 -2.3193 -0.5880  1.5029
  289ACOH    H211211   4.273   0.324   0.501  0.7055 -0.4773  1.1015
  289ACOH    H311212   4.115   0.349   0.597 -0.8582 -0.4137  0.1875
  290ACOH    H411213   6.212   0.309   3.880 -1.1385 -2.6698 -2.1108
  290ACOH    O211214   6.209   0.370   3.805  0.4979 -0.1210 -0.1625
  290ACOH    C211215   6.311   0.460   3.799  0.5796  0.1276  0.3919
  290ACOH    O111216   6.420   0.452   3.853 -0.0029  0.0583  0.5678
  290ACOH    C111217   6.279   0.567   3.702  1.1460  0.7167  0.5607
  290ACOH    H111218   6.178   0.560   3.662  0.8597  2.9134  0.8163
  290ACOH    H211219   6.344   0.560   3.615  0.8853  0.8576  0.3524
  290ACOH    H311220   6.289   0.668   3.743  0.5063 -0.2663  3.2117
  291ACOH    H411221   9.684   0.636   3.683 -2.3201 -2.8048  0.9624
  291ACOH    O211222   9.631   0.668   3.608  0.6354 -0.9357 -0.4136
  291ACOH    C211223   9.676   0.792   3.571 -0.7626  0.0685 -0.1023
  291ACOH    O111224   9.777   0.841   3.616  0.5221 -0.2335  0.3963
  291ACOH    C111225   9.580   0.862   3.484  0.5793 -0.5463  0.5978
  291ACOH    H111226   9.561   0.825   3.383 -1.3479 -0.3874  0.8658
  291ACOH    H211227   9.608   0.967   3.477 -1.4522 -0.1640 -4.7094
  291ACOH    H311228   9.484   0.871   3.535 -1.2391  1.1114 -2.8737
  292ACOH    H411229   4.500   3.336   2.580  0.3607  1.8673  2.2642
  292ACOH    O211230   4.591   3.357   2.552 -0.1436  0.4680 -0.6864
  292ACOH    C211231   4.583   3.446   2.455  0.1992  0.9047  0.6029
  292ACOH    O111232   4.474   3.489   2.417 -0.5567 -0.3445  0.8533
  292ACOH    C111233   4.705   3.481   2.384 -1.0497 -0.3520  0.0313
  292ACOH    H111234   4.789   3.427   2.427 -0.7826  0.9178  1.1213
  292ACOH    H211235   4.719   3.588   2.400 -1.7560 -0.3731  0.8722
  292ACOH    H311236   4.699   3.445   2.282 -1.1461 -1.1895  0.3259
  293ACOH    H411237   0.046   0.851   0.619 -0.9493 -1.6191  2.1701
  293ACOH    O211238   0.009   0.939   0.640 -0.3016 -0.6819 -0.4357
  293ACOH    C211239  -0.086   0.978   0.548 -0.1684 -0.3169 -0.7068
  293ACOH    O111240  -0.158   0.894   0.496  0.2770 -0.2537 -0.3638
  293ACOH    C111241  -0.145   1.108   0.585 -0.2221  1.2505 -0.6511
  293ACOH    H111242  -0.068   1.174   0.625  0.9100 -0.0004 -0.7382
  293ACOH    H211243  -0.225   1.090   0.657  1.1696  0.0491  0.6210
  293ACOH    H311244  -0.192   1.146   0.494 -1.7480 -0.3205 -0.5456
  294ACOH    H411245   9.624   8.014   3.919 -1.2233  2.7959 -1.3932
  294ACOH    O211246   9.545   7.959   3.903  0.6760 -0.3916 -0.0786
  294ACOH    C211247   9.508   7.931   4.028  0.7011  0.2095 -0.1245
  294ACOH    O111248   9.573   7.956   4.128  0.1641 -0.3892 -0.0843
  294ACOH    C111249   9.407   7.821   4.022  0.6439  0.0556  0.0756
  294ACOH    H111250   9.414   7.760   3.932 -2.3113  0.1904 -0.3187
  294ACOH    H211251   9.306   7.863   4.026  1.4984  2.0084  1.8996
  294ACOH    H311252   9.419   7.752   4.106 -1.1626  0.0567  0.3612
  295ACOH    H411253   5.446   7.664   1.514  0.7263  1.0292  0.5628
  295ACOH    O211254   5.430   7.719   1.435 -0.0660 -0.1703 -0.1349
  295ACOH    C211255   5.530   7.806   1.438 -0.2735  0.3547  0.4347
  295ACOH    O111256   5.634   7.807   1.498  0.2054 -0.6044 -0.3141
  295ACOH    C111257   5.523   7.895   1.321 -0.4185  0.0965  0.0067
  295ACOH    H111258   5.595   7.977   1.333  1.1356 -1.2865  0.3864
  295ACOH    H211259   5.422   7.933   1.306 -1.0607 -0.9262  1.6291
  295ACOH    H311260   5.542   7.838   1.230  0.3939 -0.0285  0.2486
  296ACOH    H411261   5.103   7.311   3.923 -0.0364  0.3040  0.0957
  296ACOH    O211262   5.121   7.241   3.989  0.3465  0.1268 -0.1992
  296ACOH    C211263   5.146   7.133   3.910  0.7418  0.6110  0.7927
  296ACOH    O111264   5.142   7.114   3.789 -0.1480 -0.6455 -0.3213
  296ACOH    C111265   5.154   7.024   4.010 -0.0311  0.9857 -0.2370
  296ACOH    H111266   5.146   6.920   3.979  0.6971  0.7480  0.3526
  296ACOH    H211267   5.070   7.039   4.077  0.2917 -0.5909  0.5245
  296ACOH    H311268   5.242   7.037   4.072 -2.3983  2.2942  2.9378
  297ACOH    H411269   4.088   9.372   0.266  1.6352 -0.3851 -0.6813
  297ACOH    O211270   4.105   9.365   0.362  0.1128  0.3431 -0.3417
  297ACOH    C211271   4.132   9.492   0.400  0.3226 -0.4207  0.0783
  297ACOH    O111272   4.124   9.599   0.339 -0.1082  0.0956 -0.3629
  297ACOH    C111273   4.132   9.490   0.550 -0.1483  0.4678  0.3715
  297ACOH    H111274   4.169   9.392   0.579  2.8297  1.4639  0.1671
  297ACOH    H211275   4.032   9.497   0.592 -0.2376  1.3729  0.0211
  297ACOH    H311276   4.204   9.562   0.590  0.0834  1.5535 -1.9443
  298ACOH    H411277   6.062   6.506   2.440  1.0319  0.1044  0.9614
  298ACOH    O211278   6.084   6.412   2.450  0.0221 -0.1426  0.8685
  298ACOH    C211279   5.996   6.363   2.535  0.0467 -0.2028  0.2945
  298ACOH    O111280   5.908   6.424   2.591  0.0927  1.0120  0.2809
  298ACOH    C111281   6.024   6.218   2.547  0.5897  0.4850  0.5424
  298ACOH    H111282   6.098   6.206   2.627  0.4963  0.4970  0.6306
  298ACOH    H211283   6.067   6.183   2.453  0.5720  0.4896  0.5326
  298ACOH    H311284   5.935   6.159   2.568  0.5318  0.0401 -0.8606
  299ACOH    H411285   5.006   2.411   0.639  0.5340 -0.8949 -0.9245
  299ACOH    O211286   5.070   2.392   0.710  0.0551  0.3036 -0.1651
  299ACOH    C211287   5.190   2.422   0.654 -0.7779 -0.1703 -0.2540
  299ACOH    O111288   5.217   2.473   0.546  0.1649  0.3263 -0.1840
  299ACOH    C111289   5.293   2.388   0.752 -0.4319 -1.4810 -0.3092
  299ACOH    H111290   5.298   2.280   0.764 -0.5906 -1.7899 -2.7020
  299ACOH    H211291   5.260   2.425   0.848 -1.6705 -1.9557 -0.5422
  299ACOH    H311292   5.396   2.414   0.728 -0.1923 -1.8807  0.2911
  300ACOH    H411293   3.182   7.021   2.121  2.1114 -1.5732 -0.5897
  300ACOH    O211294   3.153   6.947   2.176  0.3099 -0.2178  0.3365
  300ACOH    C211295   3.073   7.005   2.268 -0.3347 -0.5592 -0.3357
  300ACOH    O111296   3.032   7.120   2.267 -0.2929  0.0579  1.0035
  300ACOH    C111297   3.062   6.912   2.382 -0.0434 -0.3055  0.7201
  300ACOH    H111298   3.145   6.842   2.390 -0.0782 -0.3934  0.3317
  300ACOH    H211299   2.973   6.852   2.362  0.6488 -0.4662 -2.1163
  300ACOH    H311300   3.039   6.970   2.471 -1.5572 -1.2735  0.9841
  301ACOH    H411301   7.831   7.160   0.009  0.9188 -0.6687  0.2989
  301ACOH    O211302   7.752   7.135   0.058  0.2378  0.6706 -0.0933
  301ACOH    C211303   7.688   7.032  -0.006  0.3382 -0.0572 -0.2172
  301ACOH    O111304   7.714   6.981  -0.118 -0.4036 -0.1848 -0.1414
  301ACOH    C111305   7.574   6.983   0.067 -0.3994  0.6719  0.0738
  301ACOH    H111306   7.536   6.885   0.038 -0.7732  0.0004  2.6450
  301ACOH    H211307   7.492   7.052   0.048 -0.8102  0.4373  0.9327
  301ACOH    H311308   7.586   6.974   0.175 -0.8301 -0.7985  0.0143
  302ACOH    H411309   1.433   6.486   3.764  2.1748 -0.2987  1.6522
  302ACOH    O211310   1.377   6.562   3.788  0.5045 -0.9764 -0.0371
  302ACOH    C211311   1.358   6.608   3.661 -0.2206  0.1580 -0.6531
  302ACOH    O111312   1.377   6.550   3.553  0.4702  0.1200  0.2416
  302ACOH    C111313   1.297   6.744   3.668 -0.9154  0.1254 -0.0134
  302ACOH    H111314   1.207   6.741   3.730  0.0133 -3.7619  1.2695
  302ACOH    H211315   1.255   6.765   3.569 -1.0141 -1.2482 -0.2820
  302ACOH    H311316   1.366   6.819   3.707 -2.9552  1.3049  1.4163
  303ACOH    H411317   6.323   0.250   4.411  3.2919  2.1050  2.1357
  303ACOH    O211318   6.305   0.207   4.496 -0.4349 -0.3097  0.2631
  303ACOH    C211319   6.233   0.094   4.467  0.3791  0.2733  0.1189
  303ACOH    O111320   6.247   0.026   4.370 -0.1889  0.0491 -0.0622
  303ACOH    C111321   6.182   0.031   4.588  0.1926  0.1494  0.5784
  303ACOH    H111322   6.075   0.045   4.607 -0.2483 -3.4419  1.1081
  303ACOH    H211323   6.221   0.073   4.681 -2.7034  0.9404  1.4952
  303ACOH    H311324   6.204  -0.075   4.598  2.3290  0.2835 -2.3013
  304ACOH    H411325   5.382   9.642   1.326 -1.7818  2.3287 -1.5282
  304ACOH    O211326   5.311   9.609   1.384  0.2884 -0.1206 -0.3055
  304ACOH    C211327   5.193   9.633   1.322 -0.3048  0.3064  0.0232
  304ACOH    O111328   5.179   9.708   1.225 -0.8491  0.5175  0.2433
  304ACOH    C111329   5.081   9.570   1.395 -0.5808  0.9438 -0.2911
  304ACOH    H111330   5.091   9.462   1.398 -0.3780  0.9404 -0.9273
  304ACOH    H211331   4.983   9.588   1.350  0.3843  1.9097 -2.0569
  304ACOH    H311332   5.089   9.621   1.491 -1.8259  0.0451  0.2987
  305ACOH    H411333   5.563   9.839   4.385 -0.0519  1.0619 -1.8530
  305ACOH    O211334   5.539   9.895   4.461 -0.0040 -0.4178 -0.7348
  305ACOH    C211335   5.618   9.860   4.569 -0.0624  0.3223  0.1173
  305ACOH    O111336   5.684   9.759   4.587 -0.0186 -0.1089  0.1849
  305ACOH    C111337   5.579   9.939   4.687 -0.5444  1.3057 -0.0823
  305ACOH    H111338   5.529  10.031   4.656 -0.5113  0.5190 -2.5546
  305ACOH    H211339   5.665   9.975   4.744 -1.6970  2.0009  1.2666
  305ACOH    H311340   5.509   9.882   4.748  0.4655  0.6619  0.4947
  306ACOH    H411341   3.775   3.766   0.305  0.1138 -0.1852  0.5696
  306ACOH    O211342   3.838   3.736   0.238  0.0049  0.0751  0.3499
  306ACOH    C211343   3.912   3.846   0.203 -0.4934 -0.3978  0.3404
  306ACOH    O111344   3.929   3.945   0.274  0.4753  0.1239 -0.0464
  306ACOH    C111345   4.000   3.819   0.085 -0.7787 -0.0685  0.7069
  306ACOH    H111346   4.102   3.812   0.125 -0.4129  0.3965 -0.1303
  306ACOH    H211347   4.000   3.908   0.023 -0.6275  0.9643  2.1818
  306ACOH    H311348   3.973   3.726   0.035 -0.1446  0.3919 -0.5055
  307ACOH    H411349   6.012   9.954   1.059 -2.0514  0.8188 -0.7568
  307ACOH    O211350   6.040   9.881   1.002 -0.3539  0.9839 -0.1751
  307ACOH    C211351   6.164   9.909   0.951 -0.0117  0.2452  0.7427
  307ACOH    O111352   6.191  10.024   0.925 -0.4329 -0.2887  0.6638
  307ACOH    C111353   6.259   9.798   0.929 -0.0589 -0.8024  0.2035
  307ACOH    H111354   6.308   9.787   1.026  1.6025 -0.5098 -0.5748
  307ACOH    H211355   6.342   9.827   0.865 -0.4741 -0.2179 -0.0752
  307ACOH    H311356   6.201   9.714   0.892 -0.9227  0.9352 -2.5133
  308ACOH    H411357   3.757   5.205   2.033  1.3699 -0.6329  3.3814
  308ACOH    O211358   3.847   5.226   2.004  0.2927  0.3813  0.5589
  308ACOH    C211359   3.862   5.163   1.881 -0.4645 -0.9319  0.1651
  308ACOH    O111360   3.792   5.086   1.816  0.6142 -0.3771 -0.1003
  308ACOH    C111361   4.001   5.198   1.835 -0.5028 -0.1195 -0.8458
  308ACOH    H111362   4.048   5.100   1.824 -2.8082 -1.3506  0.0170
  308ACOH    H211363   4.056   5.232   1.923 -0.7615 -2.2198  0.1536
  308ACOH    H311364   4.001   5.253   1.741  0.9142 -0.1194 -0.8555
  309ACOH    H411365   4.454   4.733   0.693 -1.8156  0.1464 -0.8675
  309ACOH    O211366   4.451   4.800   0.763  0.0028  0.2251 -0.8497
  309ACOH    C211367   4.554   4.887   0.734 -0.0217 -0.3670  0.4806
  309ACOH    O111368   4.665   4.850   0.702 -0.2934 -0.2731  0.1246
  309ACOH    C111369   4.533   4.996   0.821  0.0454  0.0330 -0.3677
  309ACOH    H111370   4.609   5.073   0.813 -1.2870  1.3939 -0.1402
  309ACOH    H211371   4.533   4.964   0.925 -1.4531  1.1652 -0.0076
  309ACOH    H311372   4.437   5.042   0.798  0.4305  1.8683  1.5933
  310ACOH    H411373   4.531   2.928   0.753 -0.8284  0.0766 -1.5706
  310ACOH    O211374   4.621   2.923   0.718 -0.2763 -0.3634 -0.1453
  310ACOH    C211375   4.616   2.826   0.622  0.5232  0.2086 -0.2133
  310ACOH    O111376   4.520   2.796   0.557 -0.2412  0.0254 -0.2297
  310ACOH    C111377   4.752   2.808   0.567 -0.3386  0.1497  0.4703
  310ACOH    H111378   4.797   2.723   0.618  0.8075  0.0392 -0.7136
  310ACOH    H211379   4.813   2.896   0.584 -0.4386  1.0694 -3.5363
  310ACOH    H311380   4.760   2.787   0.460  1.2552 -0.7030  0.7495
  311ACOH    H411381   4.607   2.884   2.012  3.2167 -1.1139  2.5653
  311ACOH    O211382   4.613   2.976   2.041  0.0442 -0.1237  0.3781
  311ACOH    C211383   4.695   3.043   1.960 -0.1117 -0.5127  0.4943
  311ACOH    O111384   4.769   2.979   1.885 -0.1517 -0.1418  0.2008
  311ACOH    C111385   4.715   3.179   2.017 -0.1995  0.1159 -0.1246
  311ACOH    H111386   4.746   3.175   2.122 -0.9086 -1.2005  0.0423
  311ACOH    H211387   4.625   3.240   2.010  0.9767  1.8489 -0.4317
  311ACOH    H311388   4.798   3.224   1.962  0.7726 -1.4960 -0.0189
  312ACOH    H411389   4.460   6.237   2.276 -0.1991 -0.1098  0.1297
  312ACOH    O211390   4.423   6.175   2.341 -0.0007 -0.5241 -0.1501
  312ACOH    C211391   4.449   6.213   2.467  0.0575 -0.3182 -0.0120
  312ACOH    O111392   4.524   6.301   2.504  0.2961 -0.2912  0.8171
  312ACOH    C111393   4.377   6.127   2.561 -0.4942 -0.6162 -0.2694
  312ACOH    H111394   4.272   6.121   2.531 -0.6509  1.8513 -0.2399
  312ACOH    H211395   4.380   6.167   2.662 -1.0311  0.1277 -0.5475
  312ACOH    H311396   4.427   6.030   2.564  1.3561  0.2898 -0.8068
  313ACOH    H411397   4.849   3.731   0.721  0.4447 -1.7987 -1.2232
  313ACOH    O211398   4.934   3.776   0.708 -0.2085  0.1323  0.7570
  313ACOH    C211399   4.937   3.818   0.585  0.5928 -0.2500  0.2356
  313ACOH    O111400   4.839   3.811   0.509  0.5198 -0.1524 -0.3698
  313ACOH    C111401   5.062   3.879   0.548 -0.3998 -0.5063 -0.0579
  313ACOH    H111402   5.102   3.946   0.624 -1.1503  0.7856 -0.7895
  313ACOH    H211403   5.045   3.941   0.460 -1.4495  1.4778  1.5055
  313ACOH    H311404   5.138   3.806   0.518  0.0772  0.5689 -1.5813
  314ACOH    H411405   4.971   5.495   1.349  0.6726 -0.0084  0.4295
  314ACOH    O211406   5.036   5.567   1.341  0.3110  0.2623 -0.1987
  314ACOH    C211407   5.029   5.636   1.459 -0.0743 -0.2835 -0.0121
  314ACOH    O111408   4.954   5.618   1.552 -0.3843 -0.2780 -0.0574
  314ACOH    C111409   5.127   5.751   1.460  0.2974  0.0830 -0.3931
  314ACOH    H111410   5.068   5.841   1.445  1.0364  0.8428  1.1232
  314ACOH    H211411   5.198   5.747   1.377 -0.3554  1.7288 -1.0589
  314ACOH    H311412   5.181   5.752   1.555 -0.0239  2.0841 -0.2031
  315SOL     OW11413   8.862   7.592   3.087 -0.6954  0.9897 -0.0518
  315SOL    HW111414   8.913   7.554   3.010  0.0347  0.8142  0.5099
  315SOL    HW211415   8.862   7.692   3.081 -1.2645  0.9588 -0.6671
  316SOL     OW11416   1.966   1.853   0.371 -0.4154  0.1330  0.0716
  316SOL    HW111417   1.972   1.820   0.465 -2.4324  1.0394  0.5439
  316SOL    HW211418   1.936   1.779   0.312 -0.4390 -0.0846  0.3535
  317SOL     OW11419   4.232   7.768   4.598 -0.1319  0.2510  0.5627
  317SOL    HW111420   4.295   7.832   4.552 -0.8746  1.1353  0.7515
  317SOL    HW211421   4.281   7.685   4.622  0.0705 -0.6879 -2.7575
  318SOL     OW11422   3.802   9.734   0.829 -0.1626 -0.0658  0.0380
  318SOL    HW111423   3.880   9.703   0.883 -0.5408  3.7696  2.9939
  318SOL    HW211424   3.832   9.807   0.766 -0.8354 -0.5573 -0.8750
  319SOL     OW11425   7.187   6.153   2.472  0.5985 -0.2005 -0.3073
  319SOL    HW111426   7.219   6.213   2.545  0.8363  0.0035 -0.5747
  319SOL    HW211427   7.110   6.196   2.425  0.5638 -0.2481 -0.2944
  320SOL     OW11428   6.812   8.705   2.674  0.1382  0.4885 -0.0316
  320SOL    HW111429   6.850   8.696   2.766  0.7907  0.1676 -0.3257
  320SOL    HW211430   6.820   8.800   2.644 -1.6544  0.9515  0.9077
  321SOL     OW11431   4.349   9.833   2.464 -0.3929  0.2039  0.6020
  321SOL    HW111432   4.431   9.776   2.461  0.3463  1.3337 -1.7846
  321SOL    HW211433   4.329   9.857   2.559  2.4940  0.5039  1.1825
  322SOL     OW11434   1.865   1.758   3.422 -0.1528 -0.5751 -0.1322
  322SOL    HW111435   1.826   1.667   3.430  1.5767 -1.3492 -0.3618
  322SOL    HW211436   1.956   1.760   3.463  0.1885  0.8090 -0.8963
  323SOL     OW11437   9.721   6.173   2.809 -0.1512  0.0977  0.4172
  323SOL    HW111438   9.819   6.194   2.799 -0.6650  3.1115  1.4164
  323SOL    HW211439   9.711   6.075   2.829  2.9951  0.4237  4.3409
  324SOL     OW11440   2.428   5.335   3.583  0.4894  0.0513 -0.1591
  324SOL    HW111441   2.397   5.367   3.672 -1.0891 -2.9063  0.4147
  324SOL    HW211442   2.526   5.315   3.587  0.5485  0.4900  0.7271
  325SOL     OW11443   3.199   6.808   3.481 -0.6770  0.3198 -0.1867
  325SOL    HW111444   3.101   6.805   3.463 -0.7550  0.8394  0.1454
  325SOL    HW211445   3.215   6.812   3.579 -0.3704  1.4539 -0.2672
  326SOL     OW11446   1.699   3.580   1.322 -0.4300  0.5828 -0.1321
  326SOL    HW111447   1.634   3.519   1.277  0.2601  0.8640 -1.5462
  326SOL    HW211448   1.792   3.548   1.306 -0.1847  0.4330  1.5045
  327SOL     OW11449   7.384   8.543   2.681  0.3965  0.3985  0.4475
  327SOL    HW111450   7.343   8.579   2.597  0.4879 -0.2478  0.1213
  327SOL    HW211451   7.336   8.458   2.706  1.7918 -0.5799 -0.1552
  328SOL     OW11452   3.353   9.773   1.232 -0.2037 -0.1476  0.1466
  328SOL    HW111453   3.434   9.807   1.279  0.2795 -0.0754 -0.7147
  328SOL    HW211454   3.350   9.673   1.238 -0.8115 -0.0587  1.3823
  329SOL     OW11455   3.661   7.915   1.534  0.3798 -0.4470 -0.1136
  329SOL    HW111456   3.676   7.982   1.607 -0.0934 -0.2359 -0.2098
  329SOL    HW211457   3.606   7.840   1.569  0.8171 -0.7353 -0.0374
  330SOL     OW11458   0.334   1.228   3.183 -0.4931  0.2962  0.1494
  330SOL    HW111459   0.316   1.160   3.254 -1.5044  0.4021  0.0094
  330SOL    HW211460   0.248   1.249   3.135 -0.3207  2.1001  0.5820
  331SOL     OW11461   1.665   7.039   4.342  0.3964 -0.2734  0.2368
  331SOL    HW111462   1.591   7.093   4.382  0.8684 -0.7872  1.8755
  331SOL    HW211463   1.642   6.942   4.347  0.2372 -0.3253 -1.2615
  332SOL     OW11464   1.757   1.049   1.891 -0.0954 -0.2523 -0.2467
  332SOL    HW111465   1.796   1.133   1.928 -0.6496 -0.6830  1.3995
  332SOL    HW211466   1.671   1.028   1.939  0.4748 -2.1900 -0.0038
  333SOL     OW11467   3.036   5.485   2.005 -0.5214  0.0268 -0.2746
  333SOL    HW111468   3.053   5.466   1.908 -2.5182 -0.7032 -0.5024
  333SOL    HW211469   2.939   5.504   2.019 -0.4414 -0.9262  1.7430
  334SOL     OW11470   3.162   7.705   4.415  0.3368 -0.3122  0.0138
  334SOL    HW111471   3.253   7.676   4.443 -0.6350 -2.2256  1.3044
  334SOL    HW211472   3.130   7.778   4.477 -0.4695 -2.2335  1.9389
  335SOL     OW11473   9.551   7.999   2.441 -0.1640 -0.0897 -0.1583
  335SOL    HW111474   9.496   8.082   2.447  1.5051  0.9423  1.6196
  335SOL    HW211475   9.541   7.946   2.525  1.5184  0.1094  0.1894
  336SOL     OW11476   7.077   8.813   2.083 -0.2133  0.6627  0.6562
  336SOL    HW111477   7.131   8.886   2.124  0.5757  0.7768 -0.5572
  336SOL    HW211478   7.137   8.753   2.031 -1.0177 -0.2279  0.7396
  337SOL     OW11479   9.216   0.723   1.786 -0.3475 -0.8794  0.5011
  337SOL    HW111480   9.299   0.675   1.756 -0.3736 -1.0285  0.6663
  337SOL    HW211481   9.158   0.659   1.836 -0.4646 -0.7174  0.5691
  338SOL     OW11482   4.114   0.590   2.849 -0.4231 -0.4955  0.2681
  338SOL    HW111483   4.122   0.674   2.796 -0.6183 -0.0632  0.9197
  338SOL    HW211484   4.027   0.590   2.898 -0.0873 -0.7377  0.8601
  339SOL     OW11485   4.703   9.553   3.971  0.3146  0.2098  0.0845
  339SOL    HW111486   4.776   9.551   3.904  2.7042  1.1404  2.5660
  339SOL    HW211487   4.656   9.464   3.973 -0.2233  0.3689 -3.1651
  340SOL     OW11488   2.514   7.449   4.378  0.0188  0.2261 -0.0874
  340SOL    HW111489   2.512   7.534   4.430 -2.5213 -0.2589  0.6766
  340SOL    HW211490   2.431   7.396   4.397  1.3689 -2.2534 -0.8390
  341SOL     OW11491   9.553   9.147   2.939  0.3112 -0.1641  0.5185
  341SOL    HW111492   9.545   9.144   2.840 -1.2136 -2.2046  0.6639
  341SOL    HW211493   9.485   9.211   2.976  1.0434  0.7818  0.2550
  342SOL     OW11494   6.208   9.255   3.680 -0.3422  0.1419 -0.3899
  342SOL    HW111495   6.232   9.310   3.601 -1.5506 -0.4186 -1.1615
  342SOL    HW211496   6.288   9.204   3.711 -0.1679 -0.5935 -2.0246
  343SOL     OW11497   6.282   0.229   3.152 -0.3826 -0.3704 -0.1225
  343SOL    HW111498   6.367   0.176   3.144 -0.3276 -0.2366 -0.4313
  343SOL    HW211499   6.267   0.280   3.068  0.7200  1.8388  0.9871
  344SOL     OW11500   1.809   4.345   2.117  0.1422  0.0840 -0.0140
  344SOL    HW111501   1.745   4.326   2.043  0.4861  1.3740 -0.6571
  344SOL    HW211502   1.903   4.334   2.084  0.3063  1.0382  0.1136
  345SOL     OW11503   9.144   7.490   4.105 -0.0959 -0.1532  0.0497
  345SOL    HW111504   9.088   7.531   4.177 -2.3567 -2.3938 -0.3991
  345SOL    HW211505   9.104   7.403   4.077  2.2875 -0.6222 -2.0072
  346SOL     OW11506   7.867   0.858   1.954 -0.1502  0.2494 -0.2743
  346SOL    HW111507   7.955   0.822   1.985  0.6869 -0.2882 -3.1701
  346SOL    HW211508   7.862   0.956   1.974  0.5102  0.0162  1.1281
  347SOL     OW11509   0.208   3.564   1.812 -0.5475  0.0986 -0.2749
  347SOL    HW111510   0.224   3.470   1.781  0.9624  0.5137 -0.8311
  347SOL    HW211511   0.154   3.563   1.896  1.1219 -1.3705  0.8247
  348SOL     OW11512   4.359   8.250   3.284  0.0505 -0.7708  0.3082
  348SOL    HW111513   4.458   8.263   3.285  0.1550 -1.3468 -0.8419
  348SOL    HW211514   4.314   8.338   3.300  0.7386 -0.9030  3.0686
  349SOL     OW11515   0.662   6.969   2.400  0.1992  0.4867  0.0181
  349SOL    HW111516   0.734   6.905   2.376  1.1270  2.0051 -1.3172
  349SOL    HW211517   0.702   7.057   2.428 -1.0932  1.1406 -0.1161
  350SOL     OW11518   8.619   9.435   3.698  0.6299 -0.5596  0.0468
  350SOL    HW111519   8.707   9.474   3.724  0.2760  0.3471 -0.0983
  350SOL    HW211520   8.551   9.508   3.692 -0.0722 -1.2201 -0.0947
  351SOL     OW11521   0.449   7.120   0.865  0.3420  0.2404  0.0362
  351SOL    HW111522   0.526   7.114   0.929  0.6123  1.6601 -0.1291
  351SOL    HW211523   0.474   7.180   0.788 -1.0395  1.0054  0.1623
  352SOL     OW11524   2.157   1.859   0.146  0.0269  0.2023 -0.5027
  352SOL    HW111525   2.207   1.797   0.207  0.4640  1.4703  0.4400
  352SOL    HW211526   2.115   1.932   0.199  0.6858  1.5115 -1.7579
  353SOL     OW11527   3.181   2.507   2.046 -0.3136 -0.1682  0.5088
  353SOL    HW111528   3.197   2.582   2.110 -1.2762 -0.5301  1.1906
  353SOL    HW211529   3.265   2.455   2.032  0.1801  0.6162  0.5849
  354SOL     OW11530   7.855   8.636   2.353  0.2925  0.3427  0.2773
  354SOL    HW111531   7.829   8.624   2.257 -0.8060  0.0878  0.5923
  354SOL    HW211532   7.944   8.680   2.358  1.0493 -1.0153 -0.8670
  355SOL     OW11533   3.105   9.237   1.089 -0.0099 -0.0821  0.1002
  355SOL    HW111534   3.161   9.175   1.035  0.2288  0.4069 -0.2164
  355SOL    HW211535   3.009   9.213   1.079  0.1219 -0.7790  0.4644
  356SOL     OW11536   6.756   0.369   4.442 -0.5518 -0.4849  0.0139
  356SOL    HW111537   6.848   0.405   4.461 -1.2791  0.6631  1.4703
  356SOL    HW211538   6.762   0.301   4.369  1.8515 -2.3914  1.8826
  357SOL     OW11539   0.650   7.000   1.068  0.3726 -0.0958 -0.8680
  357SOL    HW111540   0.723   6.939   1.037  0.3123 -1.2361  1.1498
  357SOL    HW211541   0.561   6.962   1.044  0.2854 -1.5652  1.6227
  358SOL     OW11542   0.669   8.170   2.106 -0.0031  0.4626 -0.7070
  358SOL    HW111543   0.694   8.247   2.165 -1.8239  0.4859  0.0742
  358SOL    HW211544   0.597   8.117   2.150 -0.3317 -0.4029 -2.2522
  359SOL     OW11545   3.488   0.278   3.174 -0.3229  0.0455 -0.3865
  359SOL    HW111546   3.424   0.201   3.168 -2.3178  1.6880 -0.7848
  359SOL    HW211547   3.546   0.267   3.254 -0.3297 -2.0609 -0.6412
  360SOL     OW11548   2.702   1.407   3.050  0.0401  0.5935  0.3109
  360SOL    HW111549   2.659   1.326   3.091  0.9779 -0.2371 -0.3243
  360SOL    HW211550   2.636   1.454   2.992 -0.5663  0.3771  0.8164
  361SOL     OW11551   0.628   6.580   2.603  0.1110 -0.3847  0.3700
  361SOL    HW111552   0.692   6.523   2.655  0.2239  2.1314  3.1302
  361SOL    HW211553   0.673   6.666   2.577 -1.4820  0.5208  0.5202
  362SOL     OW11554   3.005   7.291   1.199  0.5665 -0.1214 -0.0983
  362SOL    HW111555   3.077   7.313   1.266 -0.0908  1.2996  0.1625
  362SOL    HW211556   3.043   7.297   1.107  1.1352 -0.7544  0.0886
  363SOL     OW11557   3.198   4.702   2.480  0.0298 -0.1872 -0.1639
  363SOL    HW111558   3.142   4.783   2.461 -1.0887 -0.9525 -0.1682
  363SOL    HW211559   3.286   4.731   2.516 -0.3854  1.0378 -0.0934
  364SOL     OW11560   4.031   1.548   2.652  0.1304  0.1960 -0.2592
  364SOL    HW111561   4.096   1.529   2.579  0.3794  0.9507 -0.2360
  364SOL    HW211562   4.008   1.645   2.653  1.0764  0.4300  1.4254
  365SOL     OW11563   8.403   7.523   4.428 -0.3545  0.3034 -0.4308
  365SOL    HW111564   8.443   7.464   4.358 -0.6647 -0.7788  0.2800
  365SOL    HW211565   8.405   7.618   4.398 -0.9794 -0.2136 -2.1307
  366SOL     OW11566   6.332   0.249   2.154  0.2560  0.3752  0.8831
  366SOL    HW111567   6.398   0.175   2.162 -0.0365  0.0587  0.4317
  366SOL    HW211568   6.247   0.223   2.199 -0.0405  0.2010  0.2283
  367SOL     OW11569   1.262   0.420   4.301  0.0530  0.6537  0.4710
  367SOL    HW111570   1.218   0.373   4.378  0.0385  1.4466  0.9535
  367SOL    HW211571   1.240   0.518   4.305  2.6366  1.2370  1.2589
  368SOL     OW11572   2.253   8.463   1.491 -0.2274 -0.6302 -0.1213
  368SOL    HW111573   2.212   8.388   1.439  0.8755 -0.1571 -1.6785
  368SOL    HW211574   2.325   8.426   1.551 -0.3955 -0.9440 -0.1091
  369SOL     OW11575   9.694   0.045   3.314  0.3277 -0.1336  0.1193
  369SOL    HW111576   9.791   0.061   3.300  0.2958 -1.3820 -1.7262
  369SOL    HW211577   9.668   0.075   3.406  2.1765  1.3930  0.1727
  370SOL     OW11578   1.670   5.819   0.019 -0.7419  0.5170  0.1319
  370SOL    HW111579   1.676   5.883   0.095 -0.5462  0.2010  0.3874
  370SOL    HW211580   1.626   5.863  -0.059  0.9808  1.5234 -0.2995
  371SOL     OW11581   0.490   4.994   0.915  0.0258  0.1687 -0.3051
  371SOL    HW111582   0.533   5.008   0.826  0.1082  1.3629 -0.0902
  371SOL    HW211583   0.553   4.945   0.975 -0.6398 -2.0786 -1.3953
  372SOL     OW11584   0.684   9.714   1.893  0.4429 -0.1578  0.5842
  372SOL    HW111585   0.585   9.724   1.909  0.0859 -1.3097 -0.7867
  372SOL    HW211586   0.701   9.714   1.795  1.8163  0.0057  0.8198
  373SOL     OW11587   2.581   5.686   0.697  0.5489 -0.6117 -0.1681
  373SOL    HW111588   2.562   5.777   0.659 -0.9228 -1.2872 -1.1334
  373SOL    HW211589   2.502   5.626   0.679  1.3334 -1.9600  0.8160
  374SOL     OW11590   4.151   0.169   3.891  0.7205  0.1424  0.4488
  374SOL    HW111591   4.203   0.123   3.819  0.6513  0.6988  0.0415
  374SOL    HW211592   4.141   0.266   3.869 -1.7481 -0.2140 -0.2518
  375SOL     OW11593   2.115   1.828   2.464  0.4406  0.3753  0.2958
  375SOL    HW111594   2.132   1.832   2.366  0.7293 -0.9526  0.2929
  375SOL    HW211595   2.134   1.918   2.505 -0.0692  1.0448 -0.9132
  376SOL     OW11596   0.902   3.704   0.767  0.0985 -0.8840  0.1536
  376SOL    HW111597   0.947   3.792   0.750 -0.9667 -0.4451 -0.4396
  376SOL    HW211598   0.920   3.675   0.861 -0.1360  0.3216  0.5825
  377SOL     OW11599   5.077   0.298   2.233 -0.3001  0.3510 -0.3606
  377SOL    HW111600   5.158   0.351   2.259  0.2257 -1.0750  0.9757
  377SOL    HW211601   4.995   0.344   2.267  0.0791  0.7646 -0.0002
  378SOL     OW11602   3.140   0.804   0.119 -0.1125 -0.4625 -0.3193
  378SOL    HW111603   3.219   0.783   0.177 -1.0493 -2.3665  0.3118
  378SOL    HW211604   3.078   0.865   0.167  1.1765  1.4701 -1.0129
  379SOL     OW11605   5.239   7.161   2.672  0.1507 -0.2284  0.1965
  379SOL    HW111606   5.238   7.103   2.753 -0.5803 -0.2010  0.2129
  379SOL    HW211607   5.146   7.171   2.637  0.2991  0.7692  0.0720
  380SOL     OW11608   2.833   3.066   3.414  0.2358 -0.3177  0.3487
  380SOL    HW111609   2.783   3.137   3.365  0.0379 -0.1523  0.7908
  380SOL    HW211610   2.897   3.109   3.477  0.8399 -0.5296 -0.1164
  381SOL     OW11611   7.374   8.443   1.410  0.3085 -0.5934 -0.1737
  381SOL    HW111612   7.461   8.484   1.438 -0.2322 -0.3868  1.2097
  381SOL    HW211613   7.351   8.474   1.317  1.1729  0.2029 -0.1258
  382SOL     OW11614   1.250   0.397   0.847 -0.2579  0.9005  0.3071
  382SOL    HW111615   1.182   0.448   0.795 -0.8070  1.0697  1.1702
  382SOL    HW211616   1.262   0.306   0.806  0.1651  1.4357 -0.7803
  383SOL     OW11617   9.950   9.296   1.018  0.8519  0.0872  0.3095
  383SOL    HW111618   9.863   9.312   1.064 -0.0373 -1.1756 -0.9029
  383SOL    HW211619   9.966   9.198   1.010  1.8773  0.3106 -0.4481
  384SOL     OW11620   4.202   7.787   0.696 -0.6271 -0.1376  0.6262
  384SOL    HW111621   4.263   7.764   0.772  1.0322 -0.3270 -0.7328
  384SOL    HW211622   4.168   7.702   0.654 -0.8646 -0.0308  0.5985
  385SOL     OW11623   1.042   0.587   0.840 -0.1792 -0.1146  0.3272
  385SOL    HW111624   1.058   0.674   0.792  0.4230  0.0069  0.7379
  385SOL    HW211625   0.946   0.561   0.832 -0.1743  0.1289 -0.5815
  386SOL     OW11626   2.179   8.324   3.944 -0.0812  0.0906  0.4150
  386SOL    HW111627   2.133   8.237   3.927 -0.4040  0.3339  0.0280
  386SOL    HW211628   2.196   8.370   3.857  0.7129  0.0972  0.5685
  387SOL     OW11629   1.092   2.108   4.596  0.2773  0.1148 -0.2984
  387SOL    HW111630   1.087   2.198   4.637 -1.2987  0.3362 -0.9456
  387SOL    HW211631   1.164   2.055   4.640 -0.4086  0.8435  1.7477
  388SOL     OW11632   3.222   5.587   2.522  0.0103 -0.5692  0.3138
  388SOL    HW111633   3.219   5.675   2.569  1.0067 -0.7112  0.6379
  388SOL    HW211634   3.156   5.525   2.565 -1.5435  0.3592 -0.6469
  389SOL     OW11635   3.336   8.350   1.465  0.0599  0.0905 -0.1500
  389SOL    HW111636   3.300   8.435   1.504 -0.4581 -0.4241  0.4914
  389SOL    HW211637   3.377   8.369   1.376  0.0614  1.0377  0.0524
  390SOL     OW11638   0.455   8.517   3.733  0.0888 -0.2081  0.2640
  390SOL    HW111639   0.355   8.509   3.736  0.0712  0.2094  0.9802
  390SOL    HW211640   0.488   8.545   3.823  0.8226  0.0046 -0.0738
  391SOL     OW11641   3.906   1.704   2.312  0.0083  0.4009 -0.7387
  391SOL    HW111642   3.811   1.697   2.343  1.0650 -2.1125  2.1323
  391SOL    HW211643   3.919   1.647   2.231 -0.2900 -1.6646  0.6195
  392SOL     OW11644   0.856   5.417   2.899 -0.4685 -0.8194  0.3110
  392SOL    HW111645   0.890   5.465   2.980 -2.9262  0.5796  0.5697
  392SOL    HW211646   0.932   5.400   2.836  1.1713 -0.3710  2.1133
  393SOL     OW11647   1.369   6.211   0.450 -0.0667 -0.1876  0.4149
  393SOL    HW111648   1.431   6.194   0.374 -1.8073 -2.8322 -0.4816
  393SOL    HW211649   1.329   6.302   0.441 -0.5175 -0.5992 -2.0533
  394SOL     OW11650   1.830   1.496   1.778 -0.0925 -0.5053 -0.2289
  394SOL    HW111651   1.841   1.425   1.847  0.0570  1.6806  2.0692
  394SOL    HW211652   1.732   1.512   1.763 -0.2140  1.6482  2.3853
  395SOL     OW11653   1.537   3.586   3.642  0.4531 -0.0424  0.1532
  395SOL    HW111654   1.566   3.641   3.720  0.0162  0.5143 -0.0742
  395SOL    HW211655   1.498   3.500   3.675  1.6598 -0.4756  0.4882
  396SOL     OW11656   3.476   8.160   2.699  0.0167 -0.4198  0.2577
  396SOL    HW111657   3.396   8.207   2.662  0.8846 -0.2046 -1.3798
  396SOL    HW211658   3.462   8.061   2.694 -0.1451 -0.3809 -0.0065
  397SOL     OW11659   8.476   8.632   0.934  0.2270 -0.0533 -0.2535
  397SOL    HW111660   8.546   8.671   0.874  0.6657 -1.0568 -0.4163
  397SOL    HW211661   8.386   8.655   0.900  0.4808  0.0583 -0.8540
  398SOL     OW11662   4.109   2.189   1.632  0.1600 -0.1553 -0.7754
  398SOL    HW111663   4.075   2.237   1.552 -1.2608  1.0529  0.5258
  398SOL    HW211664   4.070   2.097   1.636 -0.4748  0.1072 -0.9803
  399SOL     OW11665   9.020   6.840   2.410 -0.0385 -0.2500  0.1296
  399SOL    HW111666   9.052   6.785   2.333  0.1839  1.6819 -1.2074
  399SOL    HW211667   8.923   6.823   2.425 -0.5198  0.6013 -1.7372
  400SOL     OW11668   9.865   6.292   2.391 -0.4093 -0.0410  0.4175
  400SOL    HW111669   9.856   6.384   2.430  0.5995  0.7001 -1.0314
  400SOL    HW211670   9.920   6.235   2.452  0.6314  0.9138  0.3807
  401SOL     OW11671   4.232   9.668   2.026 -0.4481  0.0885  0.5494
  401SOL    HW111672   4.143   9.669   1.981  0.7853  0.9384 -1.9847
  401SOL    HW211673   4.265   9.762   2.038  1.8471 -0.3001 -2.2249
  402SOL     OW11674   6.042   9.712   2.489 -0.4959  0.0135 -0.5918
  402SOL    HW111675   5.944   9.694   2.491 -0.9223  2.2711  1.7368
  402SOL    HW211676   6.059   9.799   2.442  0.6086 -1.3686 -2.8275
  403SOL     OW11677   2.852   2.332   1.330 -0.1195 -0.3576 -0.1001
  403SOL    HW111678   2.878   2.264   1.399 -0.3003  0.3920  0.7087
  403SOL    HW211679   2.921   2.404   1.326 -0.8050  0.3429  0.3128
  404SOL     OW11680   0.121   0.474   3.493 -0.0184 -0.2056 -0.4221
  404SOL    HW111681   0.130   0.565   3.533  2.3459 -0.8302  0.5361
  404SOL    HW211682   0.168   0.471   3.405  2.3703 -1.2295  0.8340
  405SOL     OW11683   5.520   9.677   1.574  0.1595  0.1696 -0.4018
  405SOL    HW111684   5.518   9.688   1.474  0.0194  1.7827 -0.2352
  405SOL    HW211685   5.427   9.678   1.610  0.0430 -2.9050 -0.4734
  406SOL     OW11686   0.468   2.275   1.542  0.0511  0.2284 -0.2455
  406SOL    HW111687   0.560   2.294   1.575 -0.1814 -0.5613  0.8901
  406SOL    HW211688   0.407   2.259   1.620 -1.1451  1.1884 -0.9666
  407SOL     OW11689   0.736   6.289   2.157 -0.6658  0.0465  0.5077
  407SOL    HW111690   0.769   6.361   2.095 -1.8583  0.2184  0.0569
  407SOL    HW211691   0.638   6.274   2.141 -1.1662  0.6063  2.8392
  408SOL     OW11692   3.253   7.119   3.621  0.1200  0.3619  0.2508
  408SOL    HW111693   3.289   7.026   3.612 -0.5076  0.1474 -0.0524
  408SOL    HW211694   3.321   7.184   3.588  0.0454 -0.0754 -0.7803
  409SOL     OW11695   4.286   1.408   4.771  0.0894 -0.5681 -0.0231
  409SOL    HW111696   4.376   1.435   4.806 -0.5091  1.3146  0.1247
  409SOL    HW211697   4.214   1.445   4.830 -0.8401 -0.6300 -1.0831
  410SOL     OW11698   3.144   2.562   4.232  0.6105  0.0411 -0.1363
  410SOL    HW111699   3.186   2.472   4.218  1.9302  0.5741  0.2440
  410SOL    HW211700   3.150   2.615   4.147 -0.8288 -0.4874 -0.5759
  411SOL     OW11701   2.119   6.095   3.457  0.3255 -1.1943 -0.3435
  411SOL    HW111702   2.149   6.093   3.552  1.0673  0.6703 -0.5181
  411SOL    HW211703   2.196   6.119   3.398 -0.4207 -1.0544 -1.2754
  412SOL     OW11704   5.061   7.717   2.582 -0.8230  0.5763  0.1890
  412SOL    HW111705   5.139   7.662   2.552 -0.1136  0.6075  1.8771
  412SOL    HW211706   5.008   7.747   2.503  0.2421 -0.3852 -0.9096
  413SOL     OW11707   3.148   3.342   2.377  0.1041  0.4004  0.0766
  413SOL    HW111708   3.132   3.437   2.348 -0.3010  0.4512  0.4494
  413SOL    HW211709   3.060   3.295   2.386  0.1765  0.5455  1.7449
  414SOL     OW11710   7.020   7.431   2.696 -0.1209 -0.0786 -0.3229
  414SOL    HW111711   7.033   7.502   2.766  1.1268 -0.1766 -0.4384
  414SOL    HW211712   6.964   7.466   2.622  0.2427  0.6977 -0.2333
  415SOL     OW11713   7.799   6.087   1.821 -0.4567 -0.0792  0.0470
  415SOL    HW111714   7.765   6.180   1.839 -1.1442  0.2825 -2.7976
  415SOL    HW211715   7.736   6.041   1.758  0.5415 -2.0322  0.4611
  416SOL     OW11716   9.781   0.601   3.842 -0.5636  0.4210 -0.1737
  416SOL    HW111717   9.878   0.578   3.832 -0.9158 -0.0873 -2.7480
  416SOL    HW211718   9.736   0.531   3.898  0.9126  1.7377  2.7700
  417SOL     OW11719   5.047   8.573   3.807  0.3752  0.4369 -0.0640
  417SOL    HW111720   5.114   8.538   3.873 -0.7314 -0.3797  0.6423
  417SOL    HW211721   5.034   8.671   3.821  0.4164  0.3347  0.7037
  418SOL     OW11722   0.714   0.552   1.641  0.0330  0.1376 -0.1131
  418SOL    HW111723   0.632   0.501   1.667  0.4936 -0.6193 -0.1237
  418SOL    HW211724   0.709   0.644   1.680  0.4297 -0.7760  2.2257
  419SOL     OW11725   9.120   8.629   3.785  0.2637 -0.4435 -0.0374
  419SOL    HW111726   9.062   8.629   3.866  4.5550  1.2451  3.2986
  419SOL    HW211727   9.155   8.721   3.770  1.6353 -1.2866 -2.2403
  420SOL     OW11728   4.035   9.391   3.850 -0.1418 -0.2471 -0.3171
  420SOL    HW111729   4.039   9.388   3.949 -2.6653  0.3270 -0.1605
  420SOL    HW211730   3.942   9.370   3.819  0.1121  1.5123 -2.4576
  421SOL     OW11731   0.598   3.425   3.143 -0.1039  0.4435 -0.3667
  421SOL    HW111732   0.537   3.427   3.223 -0.7580  1.8636 -0.8916
  421SOL    HW211733   0.690   3.454   3.171 -0.1518  0.2230  0.0240
  422SOL     OW11734   0.792   5.855   1.071  0.1331  0.4552  0.3891
  422SOL    HW111735   0.735   5.831   1.151  0.9567 -1.9478  0.3112
  422SOL    HW211736   0.884   5.879   1.101  0.9788 -2.2328  0.1020
  423SOL     OW11737   2.698   2.175   3.861  0.2417  0.1931  0.2950
  423SOL    HW111738   2.755   2.094   3.847 -1.5212 -1.3064  1.5557
  423SOL    HW211739   2.663   2.206   3.773  0.5100 -0.7387 -0.1478
  424SOL     OW11740   0.630   1.289   4.153 -0.3243  0.1772 -0.3465
  424SOL    HW111741   0.640   1.261   4.249 -1.3525  1.7201  0.2465
  424SOL    HW211742   0.623   1.209   4.095 -0.3824 -0.7865  0.9664
  425SOL     OW11743   7.939   7.963   2.643  0.3500 -0.2779 -0.2535
  425SOL    HW111744   7.911   8.028   2.572  0.8149 -0.4728 -0.6194
  425SOL    HW211745   7.878   7.884   2.641 -0.7818  0.5400  0.7905
  426SOL     OW11746   5.994   8.350   1.911 -0.6023  0.4218  0.3446
  426SOL    HW111747   6.085   8.366   1.872 -0.9376 -0.5453 -0.8563
  426SOL    HW211748   6.001   8.284   1.985 -0.3732  0.0588  0.0045
  427SOL     OW11749   1.585   7.172   1.531  0.2979  0.2147 -0.7049
  427SOL    HW111750   1.623   7.176   1.623 -0.0105  0.6370 -0.5910
  427SOL    HW211751   1.577   7.077   1.501  0.4656  0.0833 -0.3261
  428SOL     OW11752   1.871   7.416   4.385  0.0477  0.5784 -0.2685
  428SOL    HW111753   1.830   7.375   4.467  1.2939 -0.9487 -0.3667
  428SOL    HW211754   1.802   7.465   4.333 -1.1327  0.0295  0.7605
  429SOL     OW11755   3.409   9.342   2.220 -0.1266 -0.0668  0.1914
  429SOL    HW111756   3.333   9.353   2.157 -0.1699  1.4994  0.5105
  429SOL    HW211757   3.388   9.388   2.306 -0.0009 -2.0216  1.3149
  430SOL     OW11758   9.330   9.491   4.765 -0.1500 -0.1159  0.6210
  430SOL    HW111759   9.384   9.536   4.694 -1.2309  0.9783  0.4680
  430SOL    HW211760   9.330   9.393   4.750  2.2155 -0.1947  0.9205
  431SOL     OW11761   3.123   4.716   0.894 -0.2939  0.7455 -0.3613
  431SOL    HW111762   3.038   4.703   0.947  0.4063  1.8673  1.0968
  431SOL    HW211763   3.199   4.672   0.942  0.1956  0.9660 -0.9294
  432SOL     OW11764   0.914   1.475   4.358 -0.1734 -0.4998  0.0300
  432SOL    HW111765   0.992   1.435   4.310  1.1744  0.9786  0.9369
  432SOL    HW211766   0.859   1.528   4.293 -0.0154 -0.9414 -0.4640
  433SOL     OW11767   9.660   6.110   2.469  0.1063  0.9052  0.0238
  433SOL    HW111768   9.724   6.034   2.485  0.0567  0.7691 -0.4187
  433SOL    HW211769   9.703   6.176   2.407 -0.2230  0.7643 -0.3529
  434SOL     OW11770   0.711   2.388   0.560  0.0771 -0.5114  0.1067
  434SOL    HW111771   0.756   2.312   0.514  1.4063 -0.9574  2.0531
  434SOL    HW211772   0.642   2.352   0.623 -0.2787 -0.0359 -0.0137
  435SOL     OW11773   9.549   7.480   1.719 -0.3278 -0.2733  1.0326
  435SOL    HW111774   9.567   7.394   1.672  1.5154  0.0890  1.0255
  435SOL    HW211775   9.482   7.465   1.792 -0.3522 -1.6184  0.7494
  436SOL     OW11776   4.192   0.629   1.181 -0.0823  0.1553  0.5824
  436SOL    HW111777   4.215   0.707   1.122  1.9906  0.1275  1.2911
  436SOL    HW211778   4.256   0.554   1.162 -0.0481 -0.2190  2.1355
  437SOL     OW11779   4.325   9.760   3.736 -0.0388  0.7821  0.5300
  437SOL    HW111780   4.288   9.667   3.745  1.8251 -0.0995 -0.6306
  437SOL    HW211781   4.353   9.776   3.642 -1.8212  3.1246  0.3561
  438SOL     OW11782   0.515   0.023   1.507  0.2964 -0.0286  0.5211
  438SOL    HW111783   0.615   0.028   1.516  0.1150  2.3229  1.4381
  438SOL    HW211784   0.484   0.093   1.443 -0.7862 -0.6840  0.3277
  439SOL     OW11785   1.360   8.893   0.389  0.0092 -0.2770  0.6812
  439SOL    HW111786   1.360   8.921   0.485 -0.5153 -1.4424  1.0296
  439SOL    HW211787   1.361   8.793   0.384 -0.5061 -0.2253 -0.5277
  440SOL     OW11788   3.579   9.940   3.633 -0.0927  0.0106  0.1273
  440SOL    HW111789   3.671   9.971   3.659  0.7217 -0.3661 -2.2059
  440SOL    HW211790   3.560   9.852   3.677  1.8314 -1.3177 -1.5813
  441SOL     OW11791   0.125   8.136   1.779  0.0866  0.3630 -0.5478
  441SOL    HW111792   0.203   8.073   1.784 -1.6631 -1.8959 -1.1213
  441SOL    HW211793   0.044   8.092   1.817 -0.6929  3.1123  1.0931
  442SOL     OW11794   4.106   9.792   2.370 -0.1784  0.0363  0.5471
  442SOL    HW111795   4.195   9.784   2.416 -0.1526  0.0853  0.5060
  442SOL    HW211796   4.082   9.705   2.330  0.4444  0.3501 -0.5221
  443SOL     OW11797   3.915   3.416   1.724  0.0778  0.2898  0.0243
  443SOL    HW111798   3.987   3.421   1.655  0.5728  2.3259  0.6466
  443SOL    HW211799   3.847   3.348   1.696  1.3400 -0.4174 -1.4194
  444SOL     OW11800   3.522   3.282   1.886  0.7224 -0.3528 -0.0761
  444SOL    HW111801   3.478   3.271   1.797 -1.7212  0.5355  0.9506
  444SOL    HW211802   3.496   3.206   1.945  2.3332 -0.9405 -0.1252
  445SOL     OW11803   3.026   8.571   2.004 -0.7494  0.3443  0.4124
  445SOL    HW111804   2.968   8.518   2.067 -0.1769 -0.9327 -0.1076
  445SOL    HW211805   3.122   8.556   2.027 -0.5434 -0.0184 -0.6720
  446SOL     OW11806   4.725   9.349   3.017 -0.0884  0.5856  0.4310
  446SOL    HW111807   4.669   9.321   2.940 -0.1205 -0.1246  0.7107
  446SOL    HW211808   4.670   9.401   3.082 -0.2782  0.4107  0.4098
  447SOL     OW11809   9.910   9.626   0.295 -0.4750  0.0223 -0.2225
  447SOL    HW111810   9.849   9.694   0.253 -1.0355 -0.0621  0.4502
  447SOL    HW211811   9.996   9.623   0.244 -1.6578 -1.0511 -2.1962
  448SOL     OW11812   3.518   9.140   2.055  0.1777 -0.5039  0.3266
  448SOL    HW111813   3.597   9.087   2.085 -0.2334 -0.8719  0.7723
  448SOL    HW211814   3.505   9.218   2.115  0.4993 -0.1649 -0.0449
  449SOL     OW11815   2.695   1.042   0.178  0.1329  0.2395  0.0089
  449SOL    HW111816   2.679   0.947   0.203 -0.5730  0.3336 -0.0858
  449SOL    HW211817   2.628   1.071   0.110  0.3627  0.7956  0.0164
  450SOL     OW11818   7.668   0.193   0.109  0.3315 -0.0427  0.3418
  450SOL    HW111819   7.709   0.175   0.020 -0.7063 -1.4627  0.1366
  450SOL    HW211820   7.573   0.224   0.097  0.3398  0.2133  0.9206
  451SOL     OW11821   8.256   6.820   1.328  0.1496  0.1164 -0.5533
  451SOL    HW111822   8.327   6.890   1.327 -1.1102  1.4613  0.8835
  451SOL    HW211823   8.254   6.776   1.418 -0.5409 -0.2153 -0.7308
  452SOL     OW11824   1.922   3.772   2.956 -0.2324  0.3579 -0.0554
  452SOL    HW111825   1.928   3.854   3.012 -0.7266  0.7336 -0.5355
  452SOL    HW211826   1.833   3.729   2.970  0.0467 -0.1190  0.2320
  453SOL     OW11827   7.532   8.705   2.859  0.2117 -0.5141  0.0452
  453SOL    HW111828   7.471   8.671   2.787 -0.4527 -0.4763  0.5865
  453SOL    HW211829   7.626   8.710   2.824  0.0197 -1.2146 -0.5836
  454SOL     OW11830   4.683   9.784   2.511 -0.2334  0.2201 -0.4438
  454SOL    HW111831   4.748   9.856   2.485  0.9782 -1.0507 -0.9846
  454SOL    HW211832   4.662   9.728   2.431 -0.8277 -0.3105  0.0813
  455SOL     OW11833   5.794   9.935   2.567 -0.4219  0.0257 -0.4546
  455SOL    HW111834   5.716   9.893   2.521 -1.3214 -0.9890  1.8846
  455SOL    HW211835   5.773   9.945   2.665  2.0508  0.5297  0.0575
  456SOL     OW11836   0.500   6.735   1.748  0.3017 -0.4509 -0.6315
  456SOL    HW111837   0.542   6.802   1.687  1.5061  1.6541  2.3930
  456SOL    HW211838   0.413   6.772   1.783  0.6567 -0.7267  0.5535
  457SOL     OW11839   1.659   0.269   1.887 -0.0746  0.4691 -0.2213
  457SOL    HW111840   1.755   0.241   1.886  0.1906  1.2908 -3.0316
  457SOL    HW211841   1.650   0.357   1.934  0.6079  0.5440 -0.2251
  458SOL     OW11842   3.998   7.829   4.686 -0.1451 -0.3722  0.6656
  458SOL    HW111843   4.082   7.806   4.637 -1.3364 -3.2135 -0.1791
  458SOL    HW211844   3.920   7.818   4.624 -1.1774  2.2667  1.4222
  459SOL     OW11845   1.391   0.835   3.128  0.3232 -0.3243 -0.1079
  459SOL    HW111846   1.323   0.761   3.126 -1.7379  1.5588 -1.6496
  459SOL    HW211847   1.364   0.903   3.196  0.9750  0.1284 -0.3038
  460SOL     OW11848   2.771   2.008   3.158  0.0624 -0.3837 -0.1895
  460SOL    HW111849   2.676   2.027   3.133  0.0414 -1.4516 -0.9809
  460SOL    HW211850   2.806   2.082   3.216 -1.7658 -0.8158  1.5148
  461SOL     OW11851   4.252   3.081   2.702 -0.1178 -0.1263  0.4146
  461SOL    HW111852   4.268   3.012   2.772 -1.8509 -0.0377  0.9297
  461SOL    HW211853   4.164   3.063   2.657  0.3086  0.6426 -0.7553
  462SOL     OW11854   3.043   0.059   4.522  0.1028  0.5835 -0.4050
  462SOL    HW111855   2.988   0.127   4.473  0.5363  1.6678  0.5959
  462SOL    HW211856   3.137   0.063   4.489 -0.2063 -0.6279 -1.4565
  463SOL     OW11857   0.879   5.857   1.609 -0.0125 -0.3554 -0.8042
  463SOL    HW111858   0.798   5.857   1.551  0.6148  0.0901 -1.6805
  463SOL    HW211859   0.961   5.857   1.553  0.6086 -1.1889  0.0756
  464SOL     OW11860   3.191   2.356   0.738 -0.0280 -0.2175  0.5485
  464SOL    HW111861   3.197   2.284   0.669  2.9177  0.9117 -0.4504
  464SOL    HW211862   3.151   2.439   0.697  0.1107 -0.0884  0.6750
  465SOL     OW11863   3.870   7.421   1.375 -0.0023  0.3634 -0.1467
  465SOL    HW111864   3.958   7.378   1.396  0.6704  2.1931  0.9694
  465SOL    HW211865   3.854   7.496   1.439 -2.1932  0.3226 -0.6168
  466SOL     OW11866   3.188   2.990   3.766 -0.2350  0.2822 -0.6285
  466SOL    HW111867   3.279   2.998   3.725 -0.2718  2.7399 -0.3396
  466SOL    HW211868   3.126   3.056   3.724 -1.0700  0.7431  1.2556
  467SOL     OW11869   8.205   8.646   1.127  0.3474  0.2628 -0.2622
  467SOL    HW111870   8.216   8.696   1.213  0.7980 -1.1255  0.5206
  467SOL    HW211871   8.109   8.625   1.113  0.4695 -1.2223  0.9367
  468SOL     OW11872   9.986   8.951   1.622  0.3840  0.3487  0.9541
  468SOL    HW111873   9.934   9.022   1.574  3.0772  1.1038 -1.0026
  468SOL    HW211874   9.980   8.865   1.571 -0.2456  0.0182  1.5832
  469SOL     OW11875   6.070   9.909   2.282 -0.3520 -0.7025 -0.2015
  469SOL    HW111876   6.157   9.875   2.246 -0.4608 -1.2835  0.0774
  469SOL    HW211877   6.008   9.929   2.207  0.0660 -0.1627 -0.4089
  470SOL     OW11878   1.519   7.473   3.170 -0.2588 -0.3088 -0.3104
  470SOL    HW111879   1.561   7.448   3.257  0.2523 -0.4682 -0.5990
  470SOL    HW211880   1.565   7.424   3.096  0.8067  1.5565 -0.9006
  471SOL     OW11881   3.177   0.437   2.303  0.2643  0.6014  0.1020
  471SOL    HW111882   3.116   0.389   2.366  1.1191 -0.9903 -0.2597
  471SOL    HW211883   3.129   0.456   2.217  0.1877 -0.4208 -0.0878
  472SOL     OW11884   4.094   1.488   0.162 -0.4505 -0.4842  0.1879
  472SOL    HW111885   4.067   1.542   0.082  0.0142 -0.2008  0.2195
  472SOL    HW211886   4.031   1.505   0.237 -1.3803 -1.3910 -0.3845
  473SOL     OW11887   0.381   6.933   4.430 -0.0170  0.1192 -0.3354
  473SOL    HW111888   0.307   6.906   4.491  0.6039 -2.5426 -0.6884
  473SOL    HW211889   0.451   6.982   4.482 -0.4015 -0.4199  0.7089
  474SOL     OW11890   1.021   9.935   3.496  0.0878 -0.4204 -0.4704
  474SOL    HW111891   0.953   9.863   3.484  0.6398 -0.6755 -2.1325
  474SOL    HW211892   1.045   9.974   3.407  0.7587  0.9256  0.2846
  475SOL     OW11893   1.981   9.654   1.527 -0.4830  0.1244  0.4895
  475SOL    HW111894   1.989   9.631   1.624  0.8916 -1.0701  0.1126
  475SOL    HW211895   2.006   9.750   1.513  2.3963 -0.5142  0.9168
  476SOL     OW11896   2.375   8.856   4.627  0.9446  0.1769  0.1886
  476SOL    HW111897   2.362   8.930   4.561  0.4768  0.3038  0.4221
  476SOL    HW211898   2.340   8.770   4.588 -1.3433  0.6553  1.1107
  477SOL     OW11899   2.967   8.781   3.035 -0.5035  0.3342 -0.4075
  477SOL    HW111900   3.054   8.786   3.084 -0.1949 -0.8528 -0.8057
  477SOL    HW211901   2.985   8.776   2.937 -1.1205  2.9516 -0.6745
  478SOL     OW11902   8.552   7.012   0.822 -0.6913 -0.6017 -0.2740
  478SOL    HW111903   8.493   7.082   0.782 -0.0728  0.2717  0.3200
  478SOL    HW211904   8.563   6.936   0.757  0.1978  0.7358 -1.7021
  479SOL     OW11905   9.921   9.693   0.578 -0.0232 -0.2183  0.8727
  479SOL    HW111906   9.881   9.783   0.599  1.1913  0.5905 -0.2511
  479SOL    HW211907   9.903   9.670   0.482  1.1123 -0.4241  0.7072
  480SOL     OW11908   1.444   0.553   3.743 -0.6955  0.1949 -0.5346
  480SOL    HW111909   1.458   0.644   3.706 -0.7871  0.4377  0.0198
  480SOL    HW211910   1.521   0.494   3.718 -0.9392  0.2491 -1.4224
  481SOL     OW11911   2.904   6.536   3.312  0.5579  0.1509  0.3451
  481SOL    HW111912   2.805   6.525   3.297  0.9358 -2.0870 -0.7524
  481SOL    HW211913   2.941   6.450   3.347  2.4720  0.3376 -1.1680
  482SOL     OW11914   0.339   5.909   1.289  0.7018  0.0134  0.1217
  482SOL    HW111915   0.328   5.813   1.266  0.6292 -0.1277  0.7475
  482SOL    HW211916   0.312   5.925   1.384 -1.1746  1.0181 -0.5557
  483SOL     OW11917   1.422   4.605   3.048  0.3049 -0.3422 -0.6852
  483SOL    HW111918   1.372   4.518   3.038 -0.1348 -0.5030  2.4606
  483SOL    HW211919   1.477   4.621   2.966 -1.2061 -2.5546 -2.1993
  484SOL     OW11920   0.228   5.091   3.430  0.0832  0.0204 -0.5217
  484SOL    HW111921   0.213   5.108   3.333 -0.3400 -1.4142 -0.7300
  484SOL    HW211922   0.191   5.166   3.483  0.7921  1.0709 -1.4887
  485SOL     OW11923   8.799   8.853   1.336  0.6144 -0.1744 -0.4297
  485SOL    HW111924   8.898   8.862   1.350  0.6450 -1.8097  0.4112
  485SOL    HW211925   8.780   8.857   1.237  1.3314  1.7636 -0.5225
  486SOL     OW11926   9.476   4.467   2.104  0.0517  0.0555  0.4267
  486SOL    HW111927   9.458   4.389   2.043  0.4926 -0.2457  0.6803
  486SOL    HW211928   9.571   4.495   2.094  0.2579 -0.3067  1.3336
  487SOL     OW11929   8.877   9.723   0.163 -0.2614 -0.3626  0.3553
  487SOL    HW111930   8.805   9.661   0.194 -0.0072 -2.0895 -2.3881
  487SOL    HW211931   8.966   9.679   0.176 -0.0387 -0.3449 -1.0921
  488SOL     OW11932   2.951   3.639   2.535  0.8978 -0.2669  0.0028
  488SOL    HW111933   3.033   3.619   2.589 -0.2647  0.7118  2.2069
  488SOL    HW211934   2.902   3.553   2.518  1.8352 -0.7247 -0.4412
  489SOL     OW11935   3.105   4.815   1.826  0.3902 -0.1152  0.3115
  489SOL    HW111936   3.171   4.760   1.878  0.3867 -0.2265  0.1988
  489SOL    HW211937   3.073   4.891   1.883  1.0749  0.2952  0.1661
  490SOL     OW11938   2.924   4.311   1.113 -0.2216  0.0451  0.5425
  490SOL    HW111939   2.877   4.368   1.180 -0.5266 -0.2007  0.5369
  490SOL    HW211940   3.009   4.356   1.085  0.6156 -0.4805  2.1204
  491SOL     OW11941   3.872   1.982   4.080  0.3761 -0.1232 -0.1672
  491SOL    HW111942   3.815   2.055   4.044  0.4534 -0.0617 -0.1659
  491SOL    HW211943   3.877   1.907   4.014  1.2438  0.3681 -0.6743
  492SOL     OW11944   1.325   4.061   2.726 -0.0202  0.0003  0.2239
  492SOL    HW111945   1.314   4.158   2.745  1.5109  0.2561 -0.1293
  492SOL    HW211946   1.417   4.032   2.751 -0.4906 -1.3863  0.4188
  493SOL     OW11947   0.692   2.970   1.560 -0.7008 -0.1794  0.0561
  493SOL    HW111948   0.767   3.029   1.590  0.2030 -1.5661  0.5710
  493SOL    HW211949   0.619   2.971   1.628 -0.3697 -0.2194  0.4154
  494SOL     OW11950   1.343   3.786   3.961 -0.0191 -0.1363 -0.1143
  494SOL    HW111951   1.437   3.818   3.945  0.0685  0.2819  1.1812
  494SOL    HW211952   1.342   3.727   4.042 -0.5187 -1.8634 -1.3471
  495SOL     OW11953   2.825   0.223   3.284 -0.1048 -0.1404  0.2713
  495SOL    HW111954   2.892   0.189   3.350  1.4873 -0.7408 -1.6217
  495SOL    HW211955   2.839   0.321   3.270 -0.3438 -0.0438  0.6889
  496SOL     OW11956   5.086   0.225   4.326  0.0454 -0.4136  0.7783
  496SOL    HW111957   5.178   0.205   4.361 -0.5526 -1.4682  1.8084
  496SOL    HW211958   5.090   0.236   4.227  1.4380  0.5424  0.9229
  497SOL     OW11959   4.896   9.528   3.752 -0.9128 -0.2333  0.2439
  497SOL    HW111960   4.878   9.604   3.690  1.1559  1.2681  1.4173
  497SOL    HW211961   4.898   9.442   3.701  1.9835  1.1065 -2.0067
  498SOL     OW11962   1.798   4.723   2.977 -0.1281  0.8271 -0.3743
  498SOL    HW111963   1.803   4.821   2.998  1.3096  0.3822  1.5811
  498SOL    HW211964   1.799   4.671   3.063  0.9649 -0.9482 -1.4299
  499SOL     OW11965   2.387   4.451   2.347 -0.3581  0.5433  0.1312
  499SOL    HW111966   2.477   4.407   2.338 -0.9700 -1.2077  2.1238
  499SOL    HW211967   2.392   4.545   2.312  1.8829  0.0361 -1.0261
  500SOL     OW11968   5.307   8.237   1.723  0.0863 -0.7052 -0.0695
  500SOL    HW111969   5.388   8.185   1.752  0.4439  0.2923  0.7677
  500SOL    HW211970   5.330   8.292   1.643 -0.2885 -1.8277 -0.9488
  501SOL     OW11971   3.080   4.606   4.743 -0.1897 -0.5632 -0.1754
  501SOL    HW111972   3.027   4.652   4.815 -2.6471  0.3709 -2.5092
  501SOL    HW211973   3.148   4.669   4.707  0.1533 -0.5918  0.4192
  502SOL     OW11974   8.287   4.969   2.265 -0.4744 -0.3882  0.3703
  502SOL    HW111975   8.193   4.986   2.295 -0.5454 -1.9291  1.1159
  502SOL    HW211976   8.287   4.950   2.167 -1.1616 -1.7400  0.6069
  503SOL     OW11977   0.288   6.313   1.459 -0.1078  0.4890  0.2467
  503SOL    HW111978   0.287   6.241   1.528  1.3658  1.2298  1.0417
  503SOL    HW211979   0.379   6.320   1.419  0.0169  2.5569  0.8566
  504SOL     OW11980   0.478   8.244   3.968  0.3032 -0.0740 -0.2622
  504SOL    HW111981   0.541   8.169   3.986 -0.8410 -0.8986  0.3937
  504SOL    HW211982   0.513   8.327   4.012  0.2126 -0.8626  1.3505
  505SOL     OW11983   4.439   0.730   2.374  0.6167  0.6013  0.0328
  505SOL    HW111984   4.365   0.796   2.383 -0.5225 -0.6537  0.1051
  505SOL    HW211985   4.428   0.680   2.288  1.0237 -0.0051  0.3285
  506SOL     OW11986   1.747   3.980   2.266 -0.4172  0.3602 -0.6560
  506SOL    HW111987   1.788   4.051   2.324 -0.8119  0.3734 -0.3914
  506SOL    HW211988   1.734   3.897   2.320 -0.7640  0.3657 -0.7311
  507SOL     OW11989   0.983   4.339   2.777  0.3406 -0.4071  0.3794
  507SOL    HW111990   0.952   4.342   2.682  0.0835  0.6090  0.4905
  507SOL    HW211991   1.080   4.364   2.781  0.0731  0.6573  0.4933
  508SOL     OW11992   1.453   0.277   0.321 -0.0647 -0.6856  0.3198
  508SOL    HW111993   1.499   0.323   0.397 -2.6475  0.8682  1.0128
  508SOL    HW211994   1.517   0.266   0.245  1.5080  1.1664  1.3307
  509SOL     OW11995   2.611   0.245   3.745 -0.0796  0.3864  0.2594
  509SOL    HW111996   2.569   0.319   3.798 -1.2623  0.1559 -0.3355
  509SOL    HW211997   2.710   0.244   3.762 -0.2615  1.1274  1.4568
  510SOL     OW11998   6.024   6.987   2.725 -0.1349 -0.2142  0.6875
  510SOL    HW111999   5.942   7.040   2.749  0.1235  0.6774 -0.3825
  510SOL    HW212000   6.100   7.017   2.783  0.2212  1.2098 -0.4713
  511SOL     OW12001   1.683   0.070   3.791 -0.2337  0.5735 -0.0460
  511SOL    HW112002   1.727   0.100   3.876 -0.2231  1.9976 -0.5588
  511SOL    HW212003   1.620   0.140   3.759 -1.7909 -0.8277 -0.1260
  512SOL     OW12004   7.485   8.591   2.089 -0.1304 -0.1962 -0.6552
  512SOL    HW112005   7.468   8.681   2.130  2.1388  0.1209 -0.3654
  512SOL    HW212006   7.427   8.523   2.134  0.7228  0.5288  1.6291
  513SOL     OW12007   9.392   9.359   4.422 -0.0669  0.7537 -0.1648
  513SOL    HW112008   9.353   9.440   4.378 -1.6695  0.4685  0.6606
  513SOL    HW212009   9.330   9.281   4.409  0.5125  0.1392  0.6918
  514SOL     OW12010   5.387   0.525   2.882 -0.4217 -0.1030 -0.9244
  514SOL    HW112011   5.386   0.586   2.962  3.1075  2.4863 -2.7017
  514SOL    HW212012   5.380   0.430   2.913 -2.1062  0.9674  2.2055
  515SOL     OW12013   5.608   9.578   3.715  0.3443 -0.1180 -0.1497
  515SOL    HW112014   5.542   9.652   3.713 -0.8547 -1.1445  0.8189
  515SOL    HW212015   5.577   9.504   3.656  0.3903 -0.7907  0.6603
  516SOL     OW12016   9.280   6.173   2.862  0.7738  0.2434  0.3225
  516SOL    HW112017   9.219   6.239   2.817 -1.4026 -0.6913  1.7644
  516SOL    HW212018   9.301   6.098   2.799 -0.4791  0.0301  0.1440
  517SOL     OW12019   1.629   3.738   0.814 -0.2594  0.2104  0.4619
  517SOL    HW112020   1.699   3.754   0.884 -0.2461  0.7709  0.3166
  517SOL    HW212021   1.637   3.807   0.742 -0.5804 -0.0823  0.1443
  518SOL     OW12022   2.275   8.437   2.420 -0.1269 -0.1141 -0.0330
  518SOL    HW112023   2.276   8.534   2.392 -0.9551 -0.5581 -1.6943
  518SOL    HW212024   2.182   8.412   2.446  0.1318 -0.4157  0.6045
  519SOL     OW12025   4.694   8.990   1.381 -0.1504 -0.2851 -0.0870
  519SOL    HW112026   4.760   8.917   1.364  0.1851  0.0311 -0.1553
  519SOL    HW212027   4.602   8.959   1.356 -0.0409 -0.7600  0.1011
  520SOL     OW12028   0.264   8.573   2.931  0.3649  0.2507  0.3488
  520SOL    HW112029   0.317   8.572   3.016  1.1452  3.2592 -0.0453
  520SOL    HW212030   0.287   8.492   2.876  3.2581  0.5914  0.9799
  521SOL     OW12031   2.666   7.348   2.905 -0.2530 -0.5062 -0.7166
  521SOL    HW112032   2.730   7.271   2.908 -0.6290 -0.7534  1.1349
  521SOL    HW212033   2.574   7.315   2.924 -0.3932  0.4176  0.2142
  522SOL     OW12034   4.204   9.434   3.662 -0.7731  0.0942 -0.2613
  522SOL    HW112035   4.211   9.348   3.612  0.8068 -0.2335  0.5032
  522SOL    HW212036   4.131   9.427   3.730  1.1605 -1.6515  1.7101
  523SOL     OW12037   3.939   0.452   2.250 -0.0802  0.2992 -0.2605
  523SOL    HW112038   3.899   0.488   2.166 -1.2821  0.1724  0.2484
  523SOL    HW212039   3.881   0.477   2.328  1.2278  0.7742  0.5837
  524SOL     OW12040   3.079   5.833   4.385 -0.0057  0.0259 -0.2589
  524SOL    HW112041   3.120   5.838   4.476  0.5418  0.6271 -0.5394
  524SOL    HW212042   3.118   5.755   4.335  2.0816  1.6044 -1.1513
  525SOL     OW12043   6.730   9.781   3.006  0.4525 -0.1753 -0.1582
  525SOL    HW112044   6.635   9.762   3.030  0.8157 -1.9440 -0.1071
  525SOL    HW212045   6.739   9.782   2.906  0.3153  0.3739 -0.1689
  526SOL     OW12046   3.107   0.097   1.040  0.4697  0.0124 -0.4470
  526SOL    HW112047   3.030   0.048   0.998  0.0868 -0.5559  0.8978
  526SOL    HW212048   3.171   0.125   0.968  0.5115 -2.1296 -1.3084
  527SOL     OW12049   9.886   8.040   4.207  0.0107  0.4021  0.4080
  527SOL    HW112050   9.858   7.960   4.261  2.6604 -1.0039 -0.2182
  527SOL    HW212051   9.837   8.039   4.120  0.0911 -0.6252  0.3612
  528SOL     OW12052   0.363   7.817   4.190 -0.0858 -0.3461  0.9098
  528SOL    HW112053   0.301   7.818   4.112  2.4201  2.1867 -1.1459
  528SOL    HW212054   0.332   7.884   4.258 -1.6369 -1.7655  1.6549
  529SOL     OW12055   6.337   9.847   2.182  0.3218  0.0031 -0.0254
  529SOL    HW112056   6.308   9.823   2.089 -0.9992  0.2597  0.3071
  529SOL    HW212057   6.400   9.924   2.178 -0.2831  0.4795 -0.6738
  530SOL     OW12058   3.125   1.228   0.016  0.1706  0.7747 -0.1490
  530SOL    HW112059   3.147   1.170  -0.062  1.1812  1.7266 -0.5989
  530SOL    HW212060   3.166   1.319   0.002  2.5410  0.2331  2.6171
  531SOL     OW12061   9.954   9.554   1.233  0.6263  0.2263 -0.1429
  531SOL    HW112062   9.975   9.643   1.193 -1.3288  1.1728  0.8514
  531SOL    HW212063   9.875   9.514   1.186  0.2923 -0.0908  0.6745
  532SOL     OW12064   3.496   3.881   4.172 -0.2455 -0.9028 -0.0620
  532SOL    HW112065   3.482   3.946   4.247 -0.1517  0.9308 -1.5823
  532SOL    HW212066   3.442   3.799   4.188  0.1341 -0.7393  2.2347
  533SOL     OW12067   3.908   4.387   1.932  0.1300 -0.2346 -0.2436
  533SOL    HW112068   3.901   4.315   1.863  0.5550  0.3229 -0.8727
  533SOL    HW212069   3.823   4.440   1.934  0.4707  0.3323 -0.9820
  534SOL     OW12070   4.244   8.277   0.654  0.0405 -0.2878 -0.3633
  534SOL    HW112071   4.214   8.188   0.622  0.1686  0.0417 -1.4322
  534SOL    HW212072   4.342   8.287   0.636 -0.1790  0.4587 -1.1870
  535SOL     OW12073   2.583   2.454   1.301  0.4173 -0.2090  0.0338
  535SOL    HW112074   2.621   2.436   1.391  1.5161 -0.2975 -0.4398
  535SOL    HW212075   2.649   2.505   1.246 -0.0881 -0.4851 -0.8481
  536SOL     OW12076   0.901   0.109   2.207 -0.0560  0.2735  0.7535
  536SOL    HW112077   0.808   0.077   2.228 -0.2966  0.9098  0.6580
  536SOL    HW212078   0.896   0.198   2.163  0.5768  0.0059  0.1501
  537SOL     OW12079   2.430   6.031   2.193 -0.0835  0.1661  0.1722
  537SOL    HW112080   2.528   6.036   2.215 -0.2660  1.9981  0.6698
  537SOL    HW212081   2.377   6.065   2.271 -1.0792  0.1026 -0.4693
  538SOL     OW12082   9.048   6.162   1.804  0.2097 -0.6185  0.4229
  538SOL    HW112083   9.023   6.066   1.804  0.0382 -0.5739  0.2339
  538SOL    HW212084   9.068   6.192   1.897 -2.1360 -0.2076  0.8279
  539SOL     OW12085   3.330   0.724   0.273  0.0507 -0.5372 -0.3128
  539SOL    HW112086   3.331   0.659   0.349  1.5978 -0.5776 -0.3417
  539SOL    HW212087   3.333   0.817   0.309  0.4597 -0.5495 -0.3089
  540SOL     OW12088   0.933   5.860   2.036 -0.3302 -0.0966 -0.0172
  540SOL    HW112089   0.952   5.956   2.014  1.5115 -0.1075  1.3793
  540SOL    HW212090   0.850   5.830   1.989 -2.0063  2.7374  1.0211
  541SOL     OW12091   8.091   0.015   3.865 -0.5407  0.1972  0.2905
  541SOL    HW112092   8.004   0.064   3.857 -1.8949 -2.1600  0.0698
  541SOL    HW212093   8.088  -0.068   3.809  0.4501 -1.8203  3.0793
  542SOL     OW12094   0.487   9.340   3.709 -0.1376  0.1744  0.4153
  542SOL    HW112095   0.558   9.269   3.713 -0.5305 -0.2527 -0.0867
  542SOL    HW212096   0.423   9.318   3.636  0.0175  1.3224 -0.0650
  543SOL     OW12097   2.136   2.435   1.441  0.2481 -0.3444  0.1395
  543SOL    HW112098   2.214   2.489   1.474 -0.1146  0.0426  0.3549
  543SOL    HW212099   2.163   2.338   1.438  0.3767 -0.3504  1.3191
  544SOL     OW12100   2.159   0.507   3.093  0.0898 -0.0290 -0.3174
  544SOL    HW112101   2.071   0.546   3.118  0.1961 -0.3003  0.4836
  544SOL    HW212102   2.224   0.519   3.168  0.6992  0.0461 -0.8447
  545SOL     OW12103   2.264   0.598   0.501  0.0888 -0.7503  0.2701
  545SOL    HW112104   2.188   0.576   0.440  0.5695 -0.1021 -0.5698
  545SOL    HW212105   2.340   0.535   0.484 -0.0447 -1.0254  0.6985
  546SOL     OW12106   1.493   8.003   2.544 -0.2133 -0.1342  0.5935
  546SOL    HW112107   1.576   7.998   2.599 -0.3716 -1.2584  0.7436
  546SOL    HW212108   1.420   7.952   2.590 -1.1879  1.4236  0.8169
  547SOL     OW12109   2.874   0.122   3.041  0.2264 -0.2872 -0.6111
  547SOL    HW112110   2.892   0.025   3.059  2.0740  0.0727 -0.4126
  547SOL    HW212111   2.849   0.168   3.126  0.8544 -0.2847 -0.4240
  548SOL     OW12112   1.825   4.738   4.166 -0.6209 -0.0486  0.6624
  548SOL    HW112113   1.790   4.644   4.168  2.1612 -1.1893 -0.4669
  548SOL    HW212114   1.801   4.780   4.079 -0.4735 -0.3302  0.4799
  549SOL     OW12115   4.506   2.082   0.331 -0.5130 -0.0072  0.1298
  549SOL    HW112116   4.480   2.024   0.254 -1.1415  0.1823  0.1947
  549SOL    HW212117   4.485   2.178   0.309  2.5053  0.5003 -0.8518
  550SOL     OW12118   7.717   8.128   2.793 -0.4265  0.4146 -0.1364
  550SOL    HW112119   7.811   8.151   2.768 -0.6788  0.1128 -1.4106
  550SOL    HW212120   7.710   8.030   2.811  0.0155  0.8244  2.3670
  551SOL     OW12121   2.168   4.934   0.943  0.8797 -0.3528  0.0888
  551SOL    HW112122   2.243   4.992   0.977  0.3200  1.2453 -1.3544
  551SOL    HW212123   2.203   4.871   0.874  0.3797  2.6597 -3.0784
  552SOL     OW12124   2.412   3.871   2.589 -0.1855 -0.1101  0.2250
  552SOL    HW112125   2.358   3.858   2.506 -1.5068  1.1493  0.8498
  552SOL    HW212126   2.350   3.896   2.665  1.2384  1.0250  1.0380
  553SOL     OW12127   1.207   8.371   3.466 -1.0929 -0.2418  0.3170
  553SOL    HW112128   1.146   8.319   3.526 -1.7259 -1.2962 -1.2106
  553SOL    HW212129   1.286   8.315   3.441 -0.7649  0.2356  0.2762
  554SOL     OW12130   2.954   5.390   3.301  0.4224 -0.3465 -0.1546
  554SOL    HW112131   2.981   5.483   3.328 -2.5379  0.5800 -0.1242
  554SOL    HW212132   2.942   5.334   3.383  3.2422 -1.1159 -0.2164
  555SOL     OW12133   8.694   8.627   2.460 -0.4946 -0.1390 -0.1302
  555SOL    HW112134   8.784   8.666   2.439  0.5405 -2.4809 -0.1398
  555SOL    HW212135   8.654   8.589   2.377 -1.6073  1.0729 -0.1660
  556SOL     OW12136   0.412   8.665   0.742  0.2723  0.0210 -0.1929
  556SOL    HW112137   0.491   8.623   0.698  0.0896 -0.5440 -0.0005
  556SOL    HW212138   0.341   8.684   0.674  1.6670  3.1757 -0.8319
  557SOL     OW12139   2.830   6.351   2.431 -0.8856 -0.3429  0.0358
  557SOL    HW112140   2.841   6.370   2.528  1.8329  2.7146 -0.7747
  557SOL    HW212141   2.915   6.312   2.395 -1.0788  0.6238 -1.5273
  558SOL     OW12142   9.368   9.822   3.941  0.0891 -0.3192  0.4131
  558SOL    HW112143   9.403   9.767   3.865 -1.8892 -0.0627 -0.7115
  558SOL    HW212144   9.334   9.909   3.907  1.4403  0.8355  1.9423
  559SOL     OW12145   2.720   4.254   3.447 -0.3865  0.1062 -0.0320
  559SOL    HW112146   2.658   4.237   3.371  1.4148  2.0610 -1.9766
  559SOL    HW212147   2.810   4.282   3.413  0.9331 -0.4413  2.7767
  560SOL     OW12148   3.461   8.745   2.724  0.1293 -0.5874 -0.6517
  560SOL    HW112149   3.492   8.767   2.632 -0.0321  0.6242 -0.4314
  560SOL    HW212150   3.540   8.719   2.781  0.1589 -1.8464 -1.2640
  561SOL     OW12151   8.594   0.340   1.556 -0.3225 -0.4544 -0.0715
  561SOL    HW112152   8.557   0.268   1.615 -0.8819  0.1103  0.2691
  561SOL    HW212153   8.583   0.313   1.460 -0.5592 -0.8082  0.0540
  562SOL     OW12154   5.583   0.276   3.169 -0.4837  0.3417  0.8496
  562SOL    HW112155   5.673   0.250   3.135 -0.5465 -0.1796  1.0706
  562SOL    HW212156   5.587   0.286   3.269 -0.5758  0.7046  0.8166
  563SOL     OW12157   9.225   9.143   2.664  0.4270 -0.1789 -0.4385
  563SOL    HW112158   9.299   9.204   2.634  0.5250 -0.0980 -0.0354
  563SOL    HW212159   9.155   9.197   2.710  0.5666 -0.3856  0.0211
  564SOL     OW12160   9.173   0.261   4.765  0.0476 -0.0671  0.7329
  564SOL    HW112161   9.149   0.221   4.677  1.4946 -1.0421  0.7624
  564SOL    HW212162   9.119   0.217   4.838  0.6559 -1.0427  0.6091
  565SOL     OW12163   2.947   9.369   2.320  0.4039 -0.1690 -0.1040
  565SOL    HW112164   2.903   9.282   2.340 -0.0319 -0.2382 -1.3291
  565SOL    HW212165   2.933   9.392   2.224 -0.3014  1.7058  0.4278
  566SOL     OW12166   8.829   0.470   1.542 -0.0318 -0.1951  0.8689
  566SOL    HW112167   8.743   0.420   1.543 -0.7231  0.9383 -0.8334
  566SOL    HW212168   8.823   0.549   1.602 -1.2881  1.6231 -1.5291
  567SOL     OW12169   2.249   4.946   1.397 -0.4438 -0.3727  0.2954
  567SOL    HW112170   2.241   4.879   1.324 -0.3594 -1.7722  1.5327
  567SOL    HW212171   2.240   4.899   1.486  2.5979  0.7901  1.2834
  568SOL     OW12172   9.593   5.589   2.084 -0.1937  0.2934  0.0363
  568SOL    HW112173   9.575   5.663   2.148 -1.6887  0.7318 -0.8661
  568SOL    HW212174   9.654   5.621   2.011 -1.0649  0.7150 -0.5062
  569SOL     OW12175   1.950   9.276   3.701 -0.6533  0.1002  0.5596
  569SOL    HW112176   1.883   9.283   3.627 -0.4027  0.9785  0.4128
  569SOL    HW212177   2.006   9.195   3.687 -2.9450 -1.7462  1.7401
  570SOL     OW12178   1.843   0.634   2.410  0.1853  0.3736  0.1437
  570SOL    HW112179   1.894   0.628   2.324  0.3486  1.6298  0.1320
  570SOL    HW212180   1.901   0.678   2.479 -0.1436 -0.1112  0.7296
  571SOL     OW12181   0.741   1.404   2.137 -0.0839  0.1415 -0.7476
  571SOL    HW112182   0.695   1.347   2.205  0.0213  1.1800  0.2206
  571SOL    HW212183   0.675   1.432   2.067 -0.6650  0.6880  0.0116
  572SOL     OW12184   8.819   8.092   1.544 -0.5562 -0.2358  0.5040
  572SOL    HW112185   8.896   8.120   1.601 -0.4834 -0.8473  0.7100
  572SOL    HW212186   8.822   7.993   1.530 -1.1967 -0.2370  0.3540
  573SOL     OW12187   1.278   0.645   3.480 -0.4773  0.3267 -0.3204
  573SOL    HW112188   1.202   0.705   3.456  0.0782  2.0045  1.9681
  573SOL    HW212189   1.362   0.679   3.438 -0.3563  0.4929  0.0592
  574SOL     OW12190   0.736   0.749   3.718  0.2082  0.7492  0.0330
  574SOL    HW112191   0.831   0.726   3.699  0.7906  2.1539  1.1846
  574SOL    HW212192   0.676   0.698   3.655  1.6447 -0.8992 -0.0248
  575SOL     OW12193   2.321   4.725   2.731  0.6432 -0.1263 -0.0828
  575SOL    HW112194   2.321   4.803   2.668  0.8472  0.2570  0.3920
  575SOL    HW212195   2.240   4.731   2.790 -0.0657 -1.0033 -0.9468
  576SOL     OW12196   3.408   4.142   3.249 -0.2720 -0.0424 -0.2206
  576SOL    HW112197   3.360   4.220   3.290  1.0806  0.9874 -0.5573
  576SOL    HW212198   3.350   4.061   3.255 -2.0525  1.1449 -0.5791
  577SOL     OW12199   2.537   4.716   1.972  0.4756  0.2755  0.0501
  577SOL    HW112200   2.500   4.761   1.891 -2.9246  0.6324  1.6866
  577SOL    HW212201   2.506   4.621   1.975 -1.0380  0.7751  1.8180
  578SOL     OW12202   0.019   6.905   3.363  0.3212 -0.4336 -0.1920
  578SOL    HW112203  -0.019   6.888   3.272 -1.9879 -1.6099  0.9426
  578SOL    HW212204  -0.038   6.972   3.411  0.5749 -1.0557  0.9860
  579SOL     OW12205   3.123   0.545   1.808  0.5221 -0.5408  0.1383
  579SOL    HW112206   3.066   0.625   1.828  0.1270 -0.7191 -0.2630
  579SOL    HW212207   3.152   0.547   1.712 -2.2229 -2.5640 -0.7957
  580SOL     OW12208   1.355   3.449   4.460 -0.1480  0.1387  0.4064
  580SOL    HW112209   1.337   3.546   4.443 -0.4289 -0.1380 -0.9839
  580SOL    HW212210   1.428   3.418   4.398 -0.0755 -0.5409  0.8249
  581SOL     OW12211   9.405   5.304   0.158  0.4662 -0.0687 -0.1695
  581SOL    HW112212   9.340   5.236   0.192 -0.8114  0.8664 -0.7147
  581SOL    HW212213   9.490   5.257   0.130 -0.5852 -1.5049 -1.0163
  582SOL     OW12214   6.751   8.096   1.834  0.6749  0.2692 -0.1470
  582SOL    HW112215   6.822   8.081   1.903  0.5764  0.0056 -0.1053
  582SOL    HW212216   6.731   8.194   1.828  1.6168  0.4314 -0.7258
  583SOL     OW12217   7.811   0.529   2.489 -0.5557  0.2547 -0.0903
  583SOL    HW112218   7.834   0.514   2.586 -1.5500 -0.4641  0.0542
  583SOL    HW212219   7.831   0.623   2.464  2.1766 -0.2501  0.0949
  584SOL     OW12220   4.598   7.015   2.121 -0.0233 -0.0224  0.2591
  584SOL    HW112221   4.522   6.951   2.122  0.1128 -0.1829  0.5146
  584SOL    HW212222   4.649   7.007   2.207 -1.1379  1.7874  1.1303
  585SOL     OW12223   4.594   6.806   2.533 -0.2642  0.1896 -0.3683
  585SOL    HW112224   4.606   6.887   2.591  0.1969  0.0298 -0.2389
  585SOL    HW212225   4.504   6.808   2.491  0.4768  1.7775 -1.9247
  586SOL     OW12226   3.377   6.114   4.088 -0.0947  0.0924 -0.0111
  586SOL    HW112227   3.452   6.148   4.145  0.3944 -1.7285  0.4593
  586SOL    HW212228   3.291   6.117   4.140  0.1410 -0.4402  0.4096
  587SOL     OW12229   2.925   0.276   2.437 -0.0524  0.0223 -0.3017
  587SOL    HW112230   2.886   0.215   2.369  0.6309  0.3317 -0.9768
  587SOL    HW212231   2.890   0.369   2.423 -0.4153 -0.0368  0.1795
  588SOL     OW12232   2.149   1.115   4.437  0.0642  0.5021 -0.1797
  588SOL    HW112233   2.151   1.040   4.503 -1.8601  0.7159  0.1704
  588SOL    HW212234   2.099   1.086   4.355  0.7067  0.8831 -0.7108
  589SOL     OW12235   2.863   9.092   2.400  0.0389  0.1765  0.0004
  589SOL    HW112236   2.827   9.113   2.491 -2.2054 -1.5390 -0.4393
  589SOL    HW212237   2.855   8.993   2.383  0.6369  0.4421 -1.9687
  590SOL     OW12238   3.297   9.598   1.871 -0.0227  1.2424  0.1875
  590SOL    HW112239   3.280   9.656   1.950 -0.8769 -0.1916  1.0737
  590SOL    HW212240   3.396   9.590   1.856  0.1745  0.8403  1.6331
  591SOL     OW12241   0.043   1.670   2.853  0.4830 -0.0436  0.0440
  591SOL    HW112242   0.023   1.590   2.796 -1.8287 -0.4729  1.4088
  591SOL    HW212243   0.023   1.649   2.948  1.4143  1.6691  0.6427
  592SOL     OW12244   2.443   0.915   0.066 -0.2497 -0.4447  0.4551
  592SOL    HW112245   2.455   0.849  -0.008  1.0587  0.5510 -0.2296
  592SOL    HW212246   2.449   1.008   0.029 -2.1405  0.0921  1.3902
  593SOL     OW12247   3.403   0.309   0.622  0.3579 -0.3762  0.1719
  593SOL    HW112248   3.403   0.385   0.557  1.3749 -1.3355 -0.9550
  593SOL    HW212249   3.318   0.311   0.675  0.0779  1.1428 -0.3156
  594SOL     OW12250   9.730   7.403   1.009 -0.1201  0.0362  0.3312
  594SOL    HW112251   9.790   7.442   0.938 -0.9692  1.0527  0.1615
  594SOL    HW212252   9.677   7.476   1.051 -0.1671 -0.6729  1.5074
  595SOL     OW12253   2.729   9.747   3.550 -0.3858  0.1387  0.0069
  595SOL    HW112254   2.752   9.691   3.629 -1.6673 -0.4408 -0.0285
  595SOL    HW212255   2.796   9.821   3.542 -0.4535  0.4236  1.8312
  596SOL     OW12256   7.159   9.773   4.393 -1.0287  0.4352  0.3397
  596SOL    HW112257   7.178   9.752   4.489  0.1775 -0.2008 -0.0179
  596SOL    HW212258   7.061   9.764   4.375 -1.0909 -0.7830  1.1974
  597SOL     OW12259   5.328   8.798   2.273 -0.9589 -0.0746 -0.1131
  597SOL    HW112260   5.280   8.727   2.221 -2.0737  0.5555  0.0457
  597SOL    HW212261   5.373   8.756   2.352 -0.5546 -0.7969 -0.7268
  598SOL     OW12262   2.606   2.401   2.947 -0.6157  0.4977  0.2130
  598SOL    HW112263   2.598   2.314   2.996 -1.3451  0.1019 -0.5923
  598SOL    HW212264   2.697   2.439   2.961 -0.0579 -0.7315  0.0173
  599SOL     OW12265   2.191   5.489   2.516 -0.1569 -0.1900 -0.2366
  599SOL    HW112266   2.190   5.439   2.429 -0.6313  0.8167 -0.8261
  599SOL    HW212267   2.097   5.514   2.540 -0.0173 -0.4108  0.5394
  600SOL     OW12268   8.137   7.399   4.381  0.9538 -0.7279 -0.2706
  600SOL    HW112269   8.229   7.433   4.398  0.3369 -0.4705  2.9104
  600SOL    HW212270   8.098   7.446   4.302  2.5203  1.2127  0.0706
  601SOL     OW12271   3.799   2.495   0.083 -0.0206  0.6840 -0.4047
  601SOL    HW112272   3.725   2.533   0.139  0.9333  0.9748  0.6864
  601SOL    HW212273   3.873   2.463   0.143  0.1832 -0.7898 -1.4195
  602SOL     OW12274   8.905   6.469   2.056  0.2637  0.3987  0.1173
  602SOL    HW112275   8.849   6.445   1.976 -0.4448 -1.0410  1.0080
  602SOL    HW212276   8.959   6.389   2.084 -0.4483  0.4767  1.8148
  603SOL     OW12277   8.855   6.680   3.039  0.2052 -0.3523  0.8090
  603SOL    HW112278   8.790   6.739   3.087  0.5902 -0.7909  1.8782
  603SOL    HW212279   8.828   6.673   2.943  0.2769  1.7307  0.6054
  604SOL     OW12280   9.451   7.406   2.621  0.0779 -0.9335 -0.3151
  604SOL    HW112281   9.479   7.437   2.712  0.4284 -0.3491 -0.6131
  604SOL    HW212282   9.506   7.454   2.552 -1.0345 -0.4557 -0.8806
  605SOL     OW12283   1.210   1.540   2.566 -0.3006 -0.3600 -0.1737
  605SOL    HW112284   1.139   1.554   2.636 -1.0308 -0.9067 -0.7926
  605SOL    HW212285   1.166   1.530   2.477  0.6705  1.4752 -0.8991
  606SOL     OW12286   9.324   0.232   0.962  0.2272  0.8877 -0.0694
  606SOL    HW112287   9.399   0.297   0.955 -0.6001  1.8778  0.0740
  606SOL    HW212288   9.246   0.276   1.008 -0.4835 -0.0777 -0.3310
  607SOL     OW12289   9.096   8.484   2.660 -0.6553 -0.3710 -0.2273
  607SOL    HW112290   9.125   8.415   2.594 -0.8003 -2.7381  2.0908
  607SOL    HW212291   9.176   8.533   2.695 -0.0630 -2.3078  1.2218
  608SOL     OW12292   1.677   0.455   2.115  0.6679  0.0615  0.0103
  608SOL    HW112293   1.713   0.372   2.159  1.9293  0.5046 -0.1550
  608SOL    HW212294   1.749   0.524   2.111 -0.0082  0.7236 -0.9919
  609SOL     OW12295   8.607   7.822   1.557  0.3876 -0.5306 -0.1119
  609SOL    HW112296   8.703   7.807   1.533  1.0595 -0.7266  2.4757
  609SOL    HW212297   8.549   7.769   1.495  1.7530  1.7589 -3.4789
  610SOL     OW12298   0.047   9.797   4.266 -0.2215 -0.1307 -0.2056
  610SOL    HW112299   0.075   9.807   4.170  0.7153  0.7745  0.1595
  610SOL    HW212300  -0.007   9.877   4.293  2.2201  1.1512  0.9598
  611SOL     OW12301   4.768   7.833   2.897 -0.9693  0.0972  0.8005
  611SOL    HW112302   4.855   7.879   2.880 -0.7547  0.2835  2.3244
  611SOL    HW212303   4.751   7.766   2.825  0.7397 -0.3859  0.8230
  612SOL     OW12304   7.031   7.873   2.433  0.4699 -0.1634  0.5516
  612SOL    HW112305   7.091   7.799   2.463  0.0019  0.2256  2.5575
  612SOL    HW212306   7.086   7.955   2.415  0.9981 -1.0223 -1.7821
  613SOL     OW12307   3.515   6.260   2.312 -0.1616 -0.3445 -0.2832
  613SOL    HW112308   3.493   6.272   2.409 -1.7938  0.1281 -0.6976
  613SOL    HW212309   3.579   6.331   2.284 -0.2958 -0.0046  0.2632
  614SOL     OW12310   9.865   1.047   1.379  0.2403  0.3775  0.6387
  614SOL    HW112311   9.927   0.968   1.385 -1.7466 -1.3406 -0.7648
  614SOL    HW212312   9.878   1.093   1.291 -3.0405 -2.2857 -1.3664
  615SOL     OW12313   9.325   5.575   2.342 -0.2157  0.2630  0.0208
  615SOL    HW112314   9.288   5.504   2.283  1.6450  0.0301 -0.8940
  615SOL    HW212315   9.390   5.631   2.291  0.1121  1.1436  1.3742
  616SOL     OW12316   9.858   0.363   1.096 -0.2058  0.0012 -0.3475
  616SOL    HW112317   9.860   0.393   1.191  0.2553 -1.7926  0.2203
  616SOL    HW212318   9.875   0.441   1.036  2.2458  0.6524  1.1328
  617SOL     OW12319   9.820   6.769   0.351  0.2048  0.7939 -0.5374
  617SOL    HW112320   9.838   6.671   0.344  0.3456  0.9392 -2.6001
  617SOL    HW212321   9.904   6.816   0.378  0.6342  0.5352 -1.3946
  618SOL     OW12322   2.772   4.128   0.876 -0.1333  0.4950  0.1866
  618SOL    HW112323   2.688   4.086   0.842 -1.0122  1.3381  1.2784
  618SOL    HW212324   2.783   4.107   0.974  0.9434  0.3497  0.0403
  619SOL     OW12325   1.529   1.856   2.047  0.2852 -0.1455 -0.1314
  619SOL    HW112326   1.546   1.919   2.123  2.8772 -1.2338  0.2661
  619SOL    HW212327   1.609   1.853   1.987 -1.1017 -0.5338 -2.0174
  620SOL     OW12328   9.521   7.202   2.444  0.0144 -0.3602  0.1066
  620SOL    HW112329   9.524   7.236   2.538 -0.2434 -1.4037  0.5018
  620SOL    HW212330   9.520   7.279   2.380  0.7503  0.3502  0.9444
  621SOL     OW12331   3.887   0.290   3.003 -0.1605  0.0540  0.2966
  621SOL    HW112332   3.934   0.297   2.915 -0.4641 -1.6407 -0.0206
  621SOL    HW212333   3.801   0.341   2.999 -0.6221 -0.7909 -0.7157
  622SOL     OW12334   5.416   9.013   3.142 -0.5044 -1.4527 -0.1987
  622SOL    HW112335   5.364   9.076   3.199 -1.3874  0.5811 -3.1439
  622SOL    HW212336   5.514   9.028   3.157 -0.7201 -0.2650  0.0829
  623SOL     OW12337   2.934   5.060   4.056 -0.3902  0.0371 -0.0725
  623SOL    HW112338   3.023   5.030   4.021 -0.4924  0.7135 -0.9170
  623SOL    HW212339   2.864   5.046   3.986 -1.0542 -0.9455  0.7543
  624SOL     OW12340   3.243   1.476   4.685  0.1533  0.3097 -0.1893
  624SOL    HW112341   3.332   1.433   4.670  0.4514  0.9170 -0.1917
  624SOL    HW212342   3.255   1.575   4.695 -0.6798  0.5598 -1.5081
  625SOL     OW12343   0.483   1.314   2.609  0.0730 -0.2197  0.1418
  625SOL    HW112344   0.463   1.322   2.706  0.8672 -1.7040  0.4512
  625SOL    HW212345   0.398   1.313   2.556 -0.3066  2.6236  0.6221
  626SOL     OW12346   1.772   7.280   0.811  0.0326 -0.3188 -0.2070
  626SOL    HW112347   1.845   7.344   0.836  1.5128 -1.5375 -1.2970
  626SOL    HW212348   1.710   7.325   0.746 -0.0158  0.6165  0.4734
  627SOL     OW12349   1.717   9.844   4.770 -0.0847  0.1657  0.6069
  627SOL    HW112350   1.792   9.867   4.833 -0.2405  3.8757 -0.4540
  627SOL    HW212351   1.737   9.756   4.725  3.0566  0.5067  1.2213
  628SOL     OW12352   2.147   9.491   1.068 -0.6111  0.3247  0.6702
  628SOL    HW112353   2.116   9.419   1.005  1.8934  0.4236 -0.7392
  628SOL    HW212354   2.147   9.457   1.161  1.0686 -1.7073 -0.0449
  629SOL     OW12355   0.123   7.067   4.010  0.2085  1.0725 -0.1277
  629SOL    HW112356   0.089   7.057   3.916 -1.3481  2.6143  0.2431
  629SOL    HW212357   0.061   7.020   4.073  0.8905  0.5986  0.1939
  630SOL     OW12358   1.102   8.452   1.691  0.0736  0.7452  0.2545
  630SOL    HW112359   1.194   8.435   1.725  0.1703  0.2476 -0.2536
  630SOL    HW212360   1.043   8.375   1.714  0.1335  0.4200 -0.6724
  631SOL     OW12361   0.835   4.573   2.920 -0.4511 -0.0535  0.2855
  631SOL    HW112362   0.864   4.513   2.845  0.7196  0.5433  0.2449
  631SOL    HW212363   0.888   4.658   2.917 -0.3899 -0.0322  1.8021
  632SOL     OW12364   6.396   7.516   2.426  0.4294  0.0889  0.1710
  632SOL    HW112365   6.396   7.580   2.349  0.2743 -0.2013 -0.0729
  632SOL    HW212366   6.302   7.492   2.450  0.4614  0.5478  0.7620
  633SOL     OW12367   1.159   3.262   2.211 -0.7641  0.7768 -0.7719
  633SOL    HW112368   1.137   3.285   2.117 -1.6495 -0.1909 -0.8065
  633SOL    HW212369   1.254   3.287   2.230 -0.4227  0.4898 -2.0792
  634SOL     OW12370   1.673   7.343   4.642 -0.0977  0.2919 -0.4719
  634SOL    HW112371   1.658   7.374   4.736  0.4863 -0.8578  0.0100
  634SOL    HW212372   1.585   7.331   4.596 -0.3830  0.9923 -0.1156
  635SOL     OW12373   1.646   6.039   3.768 -0.3391  0.5393 -0.1166
  635SOL    HW112374   1.691   5.959   3.729  2.8559  2.1276  0.1364
  635SOL    HW212375   1.562   6.011   3.814 -0.4229 -2.3329 -1.8971
  636SOL     OW12376   0.206   0.812   3.142  0.1479 -0.2285 -0.3370
  636SOL    HW112377   0.107   0.795   3.140  0.0189  0.2123  1.3082
  636SOL    HW212378   0.232   0.863   3.061 -0.9807 -0.3694 -0.8010
  637SOL     OW12379   4.125   0.996   3.602 -0.0204  0.2213  0.1679
  637SOL    HW112380   4.173   1.050   3.533  0.2380  1.1572  1.0640
  637SOL    HW212381   4.154   1.026   3.693  0.8160 -2.0348  0.6894
  638SOL     OW12382   2.281   7.190   1.998  0.2490  0.3050 -0.4593
  638SOL    HW112383   2.249   7.099   2.027 -0.3837  0.4266 -0.7727
  638SOL    HW212384   2.328   7.234   2.075 -0.0446 -0.0134 -0.0896
  639SOL     OW12385   1.934   2.707   4.198 -0.7583 -0.1259 -0.9292
  639SOL    HW112386   2.024   2.668   4.220 -0.3183  0.6542 -1.3223
  639SOL    HW212387   1.862   2.648   4.234 -0.0999 -1.3637 -1.5967
  640SOL     OW12388   2.407   8.460   2.063  0.3564  0.0341 -0.5869
  640SOL    HW112389   2.420   8.532   2.131 -1.7389 -0.3843  0.2863
  640SOL    HW212390   2.387   8.374   2.109 -0.0488 -0.4757 -1.7016
  641SOL     OW12391   3.475   4.960   1.531 -0.7594 -0.2322 -0.2794
  641SOL    HW112392   3.458   5.007   1.618 -0.0067 -1.0663  0.3304
  641SOL    HW212393   3.396   4.904   1.509 -1.6449  1.2635 -0.9884
  642SOL     OW12394   0.562   1.695   3.154  0.3831  1.1950  0.8127
  642SOL    HW112395   0.595   1.778   3.199 -0.3832  1.0651  1.6223
  642SOL    HW212396   0.640   1.639   3.128  0.8863  1.9017  0.7693
  643SOL     OW12397   8.912   7.185   0.034  0.1633 -0.1873  0.0355
  643SOL    HW112398   9.002   7.179  -0.008 -0.0219  1.1419 -0.5704
  643SOL    HW212399   8.844   7.209  -0.035 -0.5161 -0.2949  0.6588
  644SOL     OW12400   1.421   3.489   1.617 -0.1416 -0.5679  0.1852
  644SOL    HW112401   1.355   3.514   1.688 -1.3883 -2.1700 -0.3781
  644SOL    HW212402   1.501   3.446   1.660 -0.9772 -1.7143  0.6178
  645SOL     OW12403   9.702   9.810   1.534 -0.4828 -0.2426  0.0085
  645SOL    HW112404   9.670   9.905   1.540 -0.6399 -0.4905  4.1742
  645SOL    HW212405   9.787   9.807   1.481  0.6250  2.5459  1.5129
  646SOL     OW12406   3.726   9.267   3.843  0.4685  0.3728  0.2772
  646SOL    HW112407   3.702   9.352   3.891 -0.5824  0.1806  0.1077
  646SOL    HW212408   3.702   9.276   3.746 -0.0445 -0.2607  0.3381
  647SOL     OW12409   2.925   8.377   0.342  0.2153  0.0021  0.3913
  647SOL    HW112410   2.826   8.369   0.330  0.2418  0.0085  0.1688
  647SOL    HW212411   2.971   8.353   0.257  0.3914  0.3594  0.3825
  648SOL     OW12412   8.168   7.262   2.350  0.1754 -0.4017 -0.6292
  648SOL    HW112413   8.229   7.297   2.278  1.0747 -1.4965 -0.4037
  648SOL    HW212414   8.167   7.327   2.426  1.3586 -0.5499 -0.4770
  649SOL     OW12415   5.521   7.027   2.663 -0.4610 -0.1626  0.2334
  649SOL    HW112416   5.439   7.077   2.689 -0.8925 -1.1610  0.8179
  649SOL    HW212417   5.550   6.969   2.739  0.7126  0.0951 -0.0194
  650SOL     OW12418   5.134   1.051   2.960  0.1636 -0.1185  0.2812
  650SOL    HW112419   5.040   1.025   2.938 -0.2053  1.1106  0.3866
  650SOL    HW212420   5.141   1.069   3.058  0.2507  0.8151  0.1096
  651SOL     OW12421   4.486   4.215   4.312  0.0072 -0.5544  0.2677
  651SOL    HW112422   4.527   4.211   4.403 -1.1540 -4.4466  0.6845
  651SOL    HW212423   4.543   4.165   4.247 -0.8490 -0.5887 -0.4602
  652SOL     OW12424   1.849   6.344   2.529  0.0891  0.2888 -0.1586
  652SOL    HW112425   1.929   6.402   2.543 -0.1740  0.6850 -0.2630
  652SOL    HW212426   1.843   6.317   2.433  0.3421 -0.1078 -0.0634
  653SOL     OW12427   2.691   4.569   1.732  0.0839  0.6492  0.2998
  653SOL    HW112428   2.654   4.566   1.825  0.1006 -0.1749  0.2793
  653SOL    HW212429   2.789   4.587   1.736  0.4029 -1.0804  0.5148
  654SOL     OW12430   9.301   8.386   0.391  0.0064  0.0573  0.6858
  654SOL    HW112431   9.372   8.425   0.332  0.6866  0.8290  1.9979
  654SOL    HW212432   9.290   8.443   0.472 -2.8117  0.4943  0.0521
  655SOL     OW12433   0.631   1.181   1.786 -0.4140  0.0849  0.7404
  655SOL    HW112434   0.691   1.117   1.832 -0.4265 -0.7552 -0.3861
  655SOL    HW212435   0.685   1.249   1.737 -0.3643 -0.8749 -0.5559
  656SOL     OW12436   4.045   9.996   1.737 -0.1258  0.7796 -0.2239
  656SOL    HW112437   4.083  10.072   1.683 -0.6129  1.1882 -0.0011
  656SOL    HW212438   4.004   9.929   1.676 -0.1906  0.9748 -0.3972
  657SOL     OW12439   1.735   7.075   0.083 -0.6661 -0.4090  0.2291
  657SOL    HW112440   1.693   7.103   0.169 -2.3405  2.1855 -1.3824
  657SOL    HW212441   1.831   7.103   0.082 -0.9980  0.7474  0.7137
  658SOL     OW12442   3.166   7.321   0.477 -0.4083  0.2289 -0.2792
  658SOL    HW112443   3.168   7.221   0.481  0.4144  0.2355 -0.4824
  658SOL    HW212444   3.257   7.358   0.496 -0.6052  0.9247 -0.6425
  659SOL     OW12445   2.465   4.404   3.550  0.1831  0.1956  0.0558
  659SOL    HW112446   2.489   4.433   3.642  1.6398  0.1009 -0.2866
  659SOL    HW212447   2.539   4.347   3.512 -0.1641  0.6622 -1.3603
  660SOL     OW12448   2.052   3.787   0.325 -0.1652  0.0288  0.4014
  660SOL    HW112449   2.053   3.834   0.237  0.7761  0.2251  0.5147
  660SOL    HW212450   2.130   3.817   0.380 -2.3234  2.0955  2.4585
  661SOL     OW12451   1.757   6.358   1.482  0.2934 -0.4893 -0.1489
  661SOL    HW112452   1.672   6.404   1.457 -0.0807 -0.6452  0.8273
  661SOL    HW212453   1.834   6.403   1.436 -0.0528  1.1732  0.8765
  662SOL     OW12454   0.955   4.508   0.093 -0.4551  0.2563 -0.4094
  662SOL    HW112455   1.023   4.527   0.022  0.0527 -0.7576 -0.2069
  662SOL    HW212456   0.988   4.543   0.181  0.0628 -0.7016 -0.2103
  663SOL     OW12457   3.577   4.350   4.593 -0.5195 -0.3383 -1.2762
  663SOL    HW112458   3.529   4.408   4.659 -1.7205 -1.3353 -1.2673
  663SOL    HW212459   3.521   4.339   4.511 -1.0505 -2.7815 -0.6440
  664SOL     OW12460   2.242   9.145   3.258  0.7397 -0.1481  0.4937
  664SOL    HW112461   2.254   9.241   3.284  1.7984 -0.3986  0.9331
  664SOL    HW212462   2.233   9.088   3.339  1.8574 -0.6450  0.2792
  665SOL     OW12463   6.718   8.999   3.664  0.3298 -0.2774 -0.2491
  665SOL    HW112464   6.672   9.081   3.631  0.5790 -0.2894 -0.6293
  665SOL    HW212465   6.817   9.014   3.665  0.2794  0.0892  1.4776
  666SOL     OW12466   3.095   4.961   2.435  0.0203  0.6322 -0.1671
  666SOL    HW112467   3.107   5.060   2.443 -1.4107  0.8939 -1.0367
  666SOL    HW212468   3.120   4.932   2.342 -0.7813  0.3620 -0.2972
  667SOL     OW12469   2.936   4.668   1.679  0.2043  0.8952  0.6040
  667SOL    HW112470   2.954   4.671   1.581  1.0570  0.2968  0.7354
  667SOL    HW212471   2.984   4.743   1.725 -0.1878  1.1705  0.5602
  668SOL     OW12472   0.871   9.635   1.342 -0.0465  0.7263 -0.2100
  668SOL    HW112473   0.881   9.614   1.244 -0.6206 -0.9936  0.0914
  668SOL    HW212474   0.774   9.634   1.366  0.1307  0.6493  0.4891
  669SOL     OW12475   4.285   8.325   2.429 -0.0741 -0.2341 -0.2433
  669SOL    HW112476   4.195   8.363   2.405 -0.5136 -0.6382  0.7340
  669SOL    HW212477   4.357   8.386   2.396 -0.7612  1.0008  0.4985
  670SOL     OW12478   4.365   1.538   3.283  0.4024  0.3230  0.7079
  670SOL    HW112479   4.409   1.453   3.254  1.1316  0.8210  0.3388
  670SOL    HW212480   4.267   1.531   3.267  0.3883 -0.6527  1.1859
  671SOL     OW12481   2.448   4.265   0.526  0.6814  0.6443  0.5196
  671SOL    HW112482   2.380   4.301   0.462  0.1808 -2.0652 -0.5524
  671SOL    HW212483   2.540   4.283   0.490  0.4628  1.5142  0.3850
  672SOL     OW12484   0.713   4.753   1.573  0.5596  0.3231  0.7374
  672SOL    HW112485   0.624   4.772   1.529  1.4359  2.3636 -0.2361
  672SOL    HW212486   0.698   4.704   1.659 -1.3561 -1.4473 -0.5548
  673SOL     OW12487   0.029   4.383   0.244 -0.1772  0.3227  0.2731
  673SOL    HW112488  -0.045   4.412   0.184 -0.2949 -2.3326 -0.9194
  673SOL    HW212489  -0.007   4.323   0.316  0.6203 -0.0537  0.3681
  674SOL     OW12490   5.507   8.596   2.006 -0.1959 -0.2581  0.2414
  674SOL    HW112491   5.537   8.500   2.010 -0.9762 -0.4934  0.7164
  674SOL    HW212492   5.517   8.637   2.097  1.2904  0.4753 -0.2509
  675SOL     OW12493   1.907   0.861   3.429  0.4633  0.4610  0.3732
  675SOL    HW112494   1.953   0.783   3.470  0.8613 -0.5636 -1.9573
  675SOL    HW212495   1.897   0.847   3.331 -1.2830  2.4412  0.2165
  676SOL     OW12496   5.525   9.066   3.977  0.0707  0.0404 -0.3466
  676SOL    HW112497   5.568   9.156   3.975 -0.5367  0.3226 -0.9099
  676SOL    HW212498   5.574   9.007   4.041 -0.9547  1.4686  1.8125
  677SOL     OW12499   9.172   8.494   4.747 -0.0383  0.3671 -0.1524
  677SOL    HW112500   9.138   8.561   4.681 -1.1216 -0.7568 -0.7727
  677SOL    HW212501   9.271   8.484   4.736  0.0878  1.6934 -0.2093
  678SOL     OW12502   8.005   5.697   2.602 -0.2548  0.5461 -0.2026
  678SOL    HW112503   8.078   5.711   2.669  0.1442  0.2443 -0.5669
  678SOL    HW212504   8.030   5.621   2.541  0.1111  1.8056 -1.6701
  679SOL     OW12505   2.005   8.429   0.170 -0.5868  0.4578  0.1042
  679SOL    HW112506   1.913   8.461   0.146 -0.3116 -0.1960 -1.8893
  679SOL    HW212507   2.072   8.496   0.138 -0.2032 -0.5065 -1.1328
  680SOL     OW12508   1.585   1.554   1.701  0.1084  0.1374  0.2427
  680SOL    HW112509   1.515   1.566   1.772 -0.8025 -0.8063 -0.4696
  680SOL    HW212510   1.574   1.624   1.631  0.2745  0.3691  0.4481
  681SOL     OW12511   1.600   4.025   2.789  0.0458 -0.2345 -0.0481
  681SOL    HW112512   1.666   3.965   2.835  0.4677 -0.9937 -1.6273
  681SOL    HW212513   1.635   4.119   2.790  1.3838 -0.6956 -1.2473
  682SOL     OW12514   2.471   0.496   1.806 -0.1060 -0.2354  0.4486
  682SOL    HW112515   2.429   0.477   1.717  0.9615 -1.1580  0.1322
  682SOL    HW212516   2.410   0.555   1.859 -1.3684 -0.7851 -0.3586
  683SOL     OW12517   8.359   0.465   1.339 -0.2985 -0.4498  0.2292
  683SOL    HW112518   8.269   0.503   1.319 -0.1423  0.4061  1.0950
  683SOL    HW212519   8.429   0.518   1.291 -0.1632 -0.3175  0.5693
  684SOL     OW12520   2.587   6.327   2.042  0.1271  0.1606  0.0872
  684SOL    HW112521   2.553   6.332   1.948 -1.3699  0.1018  0.5967
  684SOL    HW212522   2.577   6.417   2.085 -1.8573 -0.4811  1.0444
  685SOL     OW12523   6.814   9.068   1.535 -0.3136 -0.2042  0.1961
  685SOL    HW112524   6.826   8.983   1.484  0.9553 -0.2714  0.5859
  685SOL    HW212525   6.742   9.056   1.603  0.8498 -1.4419  1.2443
  686SOL     OW12526   3.476   8.784   3.531  0.0334  0.4461 -0.3191
  686SOL    HW112527   3.381   8.774   3.502  0.1485  0.5344 -0.7355
  686SOL    HW212528   3.485   8.756   3.627 -0.1526 -0.8731 -0.6815
  687SOL     OW12529   8.919   0.037   1.368  0.1171  0.3781  0.2041
  687SOL    HW112530   8.853  -0.015   1.422  1.5225 -0.7837  0.8471
  687SOL    HW212531   8.902   0.135   1.380  0.5648  0.1560  2.9649
  688SOL     OW12532   9.287   6.229   2.248  0.1741 -0.2825 -0.1761
  688SOL    HW112533   9.328   6.319   2.265 -0.7563 -0.0471  0.8063
  688SOL    HW212534   9.346   6.178   2.185  1.5008  0.4184  0.4652
  689SOL     OW12535   3.416   4.047   1.513 -0.0629 -0.8640 -0.6039
  689SOL    HW112536   3.353   3.999   1.452 -0.4939 -2.4146  1.0281
  689SOL    HW212537   3.450   3.984   1.582  0.5964  0.8101  0.6331
  690SOL     OW12538   1.283   4.017   4.429  0.3048 -0.0356  0.5053
  690SOL    HW112539   1.218   4.021   4.504 -0.3649  0.5199 -0.0953
  690SOL    HW212540   1.347   4.093   4.436  0.0535  0.1937  0.3525
  691SOL     OW12541   9.810   7.072   3.467 -0.0858  0.1555  0.0289
  691SOL    HW112542   9.738   7.077   3.399  0.5665 -0.7123 -0.7491
  691SOL    HW212543   9.789   7.000   3.533 -0.1758  0.2436  0.0970
  692SOL     OW12544   1.556   9.903   0.408 -0.3067  0.0858 -0.2192
  692SOL    HW112545   1.538   9.998   0.433 -0.7778  0.3255 -1.4257
  692SOL    HW212546   1.654   9.885   0.416 -0.4908 -0.0262  2.2930
  693SOL     OW12547   8.739   0.306   2.392  0.8491 -0.3615 -0.5174
  693SOL    HW112548   8.642   0.311   2.415  0.9525  0.2866 -0.2111
  693SOL    HW212549   8.764   0.210   2.375 -0.2516 -0.3317 -2.4187
  694SOL     OW12550   7.939   9.411   0.168 -0.5212  0.3785  0.3552
  694SOL    HW112551   7.879   9.361   0.106  0.8451 -0.7600 -0.0612
  694SOL    HW212552   7.932   9.509   0.148  0.1961  0.0104 -1.8751
  695SOL     OW12553   3.717   7.368   4.449  0.0810  0.6223  0.0253
  695SOL    HW112554   3.647   7.392   4.516 -0.3215 -0.4686 -0.0007
  695SOL    HW212555   3.761   7.282   4.476  0.2646  0.4382 -0.8427
  696SOL     OW12556   9.182   0.696   1.154  0.4002  0.6283  0.3862
  696SOL    HW112557   9.124   0.702   1.236 -2.1423 -2.2473 -1.0856
  696SOL    HW212558   9.147   0.756   1.083  0.8246  0.8676  0.3745
  697SOL     OW12559   9.825   7.539   1.481  0.5151 -0.2538  0.6807
  697SOL    HW112560   9.866   7.509   1.395  1.1412  1.1622  0.4733
  697SOL    HW212561   9.725   7.526   1.476  0.4679  0.5510 -0.5570
  698SOL     OW12562   0.200   2.006   2.417 -0.5683  0.0938  0.0068
  698SOL    HW112563   0.289   2.024   2.457 -0.8194  1.4133  0.0052
  698SOL    HW212564   0.152   1.936   2.470  0.7266 -1.1030 -0.3896
  699SOL     OW12565   0.690   3.526   2.443 -0.4107  0.3135  0.4491
  699SOL    HW112566   0.740   3.477   2.373 -0.6342  0.7746 -0.0396
  699SOL    HW212567   0.693   3.475   2.529 -0.7667 -0.6208 -0.0890
  700SOL     OW12568   7.785   8.888   1.767 -0.3759  0.2879  0.0135
  700SOL    HW112569   7.734   8.838   1.837 -2.2547  1.8093 -0.2453
  700SOL    HW212570   7.827   8.969   1.808 -0.5836  0.6073 -0.4051
  701SOL     OW12571   0.679   9.657   4.472 -0.0464 -0.3170  0.1491
  701SOL    HW112572   0.681   9.632   4.569  0.4659 -2.2751 -0.3361
  701SOL    HW212573   0.770   9.647   4.433 -0.2465  0.4735 -0.5463
  702SOL     OW12574   1.082   9.365   4.264 -0.2294 -0.3344  0.3809
  702SOL    HW112575   1.073   9.328   4.356 -1.9108 -2.9763 -0.7792
  702SOL    HW212576   1.173   9.344   4.228  0.1971  0.1252  1.1735
  703SOL     OW12577   0.549   6.064   2.455 -0.2656 -0.7140 -0.0704
  703SOL    HW112578   0.593   5.997   2.395  2.0677  0.6732  0.0526
  703SOL    HW212579   0.598   6.151   2.451 -2.7723  0.7942  0.3834
  704SOL     OW12580   0.655   0.358   4.190  0.1014  0.1432  0.5396
  704SOL    HW112581   0.718   0.324   4.259 -0.3625 -1.5793  0.1426
  704SOL    HW212582   0.587   0.417   4.233 -0.6986 -1.5873  1.7396
  705SOL     OW12583   4.177   1.682   1.243 -0.4432  0.2747 -0.1074
  705SOL    HW112584   4.268   1.653   1.215 -0.0125  1.0231  0.5323
  705SOL    HW212585   4.173   1.781   1.248 -0.8198  0.1881  1.4809
  706SOL     OW12586   3.288   4.887   2.752 -0.3763  0.0047 -0.2645
  706SOL    HW112587   3.207   4.920   2.705  0.7583  1.5624 -1.1624
  706SOL    HW212588   3.364   4.951   2.738  1.2184 -1.7967 -0.0655
  707SOL     OW12589   3.974   2.529   3.395 -0.6482  0.1703  0.2271
  707SOL    HW112590   3.893   2.519   3.337 -1.2947 -1.3052  1.3592
  707SOL    HW212591   4.012   2.621   3.383 -1.7294  0.4388 -1.2838
  708SOL     OW12592   1.853   8.404   4.106 -0.1800  0.2709 -0.8175
  708SOL    HW112593   1.803   8.424   4.022 -2.5532 -0.5524  0.3351
  708SOL    HW212594   1.842   8.307   4.129 -0.2103  0.6489  0.8529
  709SOL     OW12595   3.433   7.847   3.894 -0.2187  0.2530  0.0855
  709SOL    HW112596   3.399   7.788   3.967  0.6933 -2.3273 -1.4982
  709SOL    HW212597   3.360   7.907   3.862 -1.6974 -1.3258  0.4794
  710SOL     OW12598   7.391   9.838   4.731 -0.1500  0.2469 -0.1514
  710SOL    HW112599   7.474   9.829   4.675  0.2089  2.2457  0.0200
  710SOL    HW212600   7.366   9.934   4.738 -3.5728 -0.4539 -1.6989
  711SOL     OW12601   3.162   0.598   0.985 -0.7357 -0.2616  0.5443
  711SOL    HW112602   3.229   0.527   1.007  2.5676  3.4599  3.2351
  711SOL    HW212603   3.170   0.621   0.888 -0.0712 -1.7479  0.2185
  712SOL     OW12604   3.084   4.274   3.969 -0.4836  0.4975  0.4346
  712SOL    HW112605   3.143   4.311   4.042 -0.9176 -1.5937  1.8927
  712SOL    HW212606   2.995   4.250   4.007 -0.3590 -1.6408 -0.5187
  713SOL     OW12607   4.066   3.028   1.593  0.7582  0.8331 -0.5483
  713SOL    HW112608   4.086   3.049   1.498  1.4583  0.9660 -0.3763
  713SOL    HW212609   4.124   3.084   1.653  1.7661 -0.6782 -0.0744
  714SOL     OW12610   9.166   5.002   1.180 -0.1314 -0.8669 -1.0771
  714SOL    HW112611   9.074   5.034   1.202 -0.4271 -0.1911 -3.1413
  714SOL    HW212612   9.231   5.078   1.192 -0.3937 -0.2957 -3.0849
  715SOL     OW12613   0.894   3.521   3.185 -0.2159  0.2065 -0.3431
  715SOL    HW112614   0.937   3.604   3.150 -0.3203  0.6284  0.4964
  715SOL    HW212615   0.962   3.466   3.234 -0.0246 -0.4761 -1.3687
  716SOL     OW12616   0.727   9.124   3.956 -0.1159  0.3897  0.1212
  716SOL    HW112617   0.733   9.030   3.922 -0.2041 -0.6031  2.7516
  716SOL    HW212618   0.818   9.166   3.953  0.0331  0.0387 -0.5021
  717SOL     OW12619   3.881   2.361   1.915 -0.1440  0.2984 -0.7037
  717SOL    HW112620   3.856   2.348   2.011 -1.1649 -1.3369 -1.1737
  717SOL    HW212621   3.970   2.319   1.897 -0.6647 -0.7890 -0.8095
  718SOL     OW12622   4.611   8.207   4.509  0.0762  0.2818 -0.2097
  718SOL    HW112623   4.622   8.298   4.549 -2.7806  1.7899 -2.6473
  718SOL    HW212624   4.645   8.208   4.415 -0.8567 -0.8753 -0.5709
  719SOL     OW12625   0.540   5.384   4.201  0.7505 -0.4929  0.1936
  719SOL    HW112626   0.496   5.330   4.130  0.6505 -0.0031 -0.1198
  719SOL    HW212627   0.615   5.331   4.242 -0.0552 -1.2811  0.6601
  720SOL     OW12628   0.621   5.353   2.781 -0.0417 -0.1350 -0.0370
  720SOL    HW112629   0.709   5.377   2.822  0.4917  0.7457 -1.6369
  720SOL    HW212630   0.555   5.426   2.796 -0.0944 -0.1837 -0.0260
  721SOL     OW12631   6.203   9.578   3.562 -0.2486 -0.4263 -0.6817
  721SOL    HW112632   6.120   9.580   3.506  0.7266  0.1807 -2.1509
  721SOL    HW212633   6.182   9.541   3.653 -2.1125 -0.2566 -1.0346
  722SOL     OW12634   8.614   7.472   0.715 -0.0980  0.1305  0.2898
  722SOL    HW112635   8.566   7.545   0.666 -1.2687  0.1043  1.3778
  722SOL    HW212636   8.660   7.413   0.649 -0.9012  0.6163 -0.7279
  723SOL     OW12637   0.641   5.742   2.845 -0.7058 -0.2510  0.1895
  723SOL    HW112638   0.574   5.672   2.820 -1.0631  1.1119 -2.9584
  723SOL    HW212639   0.702   5.759   2.767  1.1364  0.9330  1.8585
  724SOL     OW12640   6.398   9.891   4.760 -0.5216  0.1086  0.1795
  724SOL    HW112641   6.310   9.865   4.800 -0.2365  1.5486  1.8390
  724SOL    HW212642   6.463   9.817   4.774 -1.5670 -1.1611 -1.4727
  725SOL     OW12643   1.125   5.435   2.395 -0.1415  0.6738  0.1022
  725SOL    HW112644   1.088   5.424   2.303 -1.1519 -0.6223  0.6504
  725SOL    HW212645   1.178   5.519   2.399 -3.5760  2.9831 -0.5468
  726SOL     OW12646   9.353   6.920   0.056  0.5306  0.1948  0.2443
  726SOL    HW112647   9.447   6.917   0.090  0.5256 -0.2803  0.2104
  726SOL    HW212648   9.290   6.934   0.133  0.7075  1.6526  0.1474
  727SOL     OW12649   2.805   9.104   1.722  0.2339  0.3166 -0.5034
  727SOL    HW112650   2.811   9.008   1.694  1.5851  0.6447 -1.3572
  727SOL    HW212651   2.896   9.144   1.724 -0.0909  0.9973  1.9901
  728SOL     OW12652   3.050   0.328   0.135 -0.1815  0.2994 -0.0577
  728SOL    HW112653   3.086   0.363   0.049 -0.4559  0.0209 -0.2875
  728SOL    HW212654   2.967   0.275   0.118  1.1874 -1.9453  0.0628
  729SOL     OW12655   8.897   7.854   3.073  0.5479  0.0666  0.4647
  729SOL    HW112656   8.879   7.909   3.155 -0.9817  1.6343 -0.8888
  729SOL    HW212657   8.955   7.906   3.011 -1.4061  0.4346 -1.0981
  730SOL     OW12658   2.106   0.899   3.659 -0.0100  0.0995  0.1957
  730SOL    HW112659   2.046   0.973   3.690 -1.9844 -1.0892 -0.6785
  730SOL    HW212660   2.156   0.861   3.737 -0.5886  0.9405  0.9823
  731SOL     OW12661   4.949   8.687   4.170 -0.2022 -0.2100  0.4375
  731SOL    HW112662   4.897   8.744   4.106 -0.2626  0.7735  1.3625
  731SOL    HW212663   5.045   8.714   4.169 -0.1841 -0.2644  0.7014
  732SOL     OW12664   0.697   6.727   3.472  0.4914 -0.0767  0.3261
  732SOL    HW112665   0.765   6.653   3.464 -1.2665 -1.5259 -1.6287
  732SOL    HW212666   0.639   6.709   3.552 -0.2192 -1.1126 -0.3966
  733SOL     OW12667   1.554   6.743   2.652  0.2008 -0.7509 -0.1912
  733SOL    HW112668   1.486   6.815   2.651  1.5065  0.4892 -1.1098
  733SOL    HW212669   1.616   6.754   2.575  2.6722 -0.6450  1.7379
  734SOL     OW12670   3.676   7.995   3.896 -0.4294  0.1378  0.3711
  734SOL    HW112671   3.602   7.931   3.916 -1.3166  1.1821  0.4952
  734SOL    HW212672   3.763   7.947   3.899 -1.0584 -1.0085  0.7020
  735SOL     OW12673   7.745   8.159   0.375 -0.0581 -0.6774 -0.2938
  735SOL    HW112674   7.716   8.178   0.281 -2.5985 -1.2408  0.3177
  735SOL    HW212675   7.765   8.061   0.385 -1.5355 -0.9458  0.1608
  736SOL     OW12676   7.956   8.194   1.233 -0.1009 -0.0250 -0.0467
  736SOL    HW112677   8.038   8.162   1.184 -0.1977  0.6255 -0.6469
  736SOL    HW212678   7.924   8.122   1.294  1.1046 -0.1810  0.4303
  737SOL     OW12679   3.886   9.051   3.617  0.1121  0.1276 -0.0995
  737SOL    HW112680   3.813   8.992   3.581  1.3285 -0.6497 -1.3382
  737SOL    HW212681   3.889   9.136   3.564 -1.3565  1.1583  1.4092
  738SOL     OW12682   3.000   3.387   0.538  0.2140 -0.4388 -0.2335
  738SOL    HW112683   2.968   3.345   0.623  0.5528  0.3471  0.2815
  738SOL    HW212684   3.098   3.407   0.545 -0.0964  1.1011 -0.2005
  739SOL     OW12685   8.623   6.981   4.158 -0.0858  0.1125  0.3050
  739SOL    HW112686   8.711   6.985   4.205  0.4540 -0.5771 -0.6229
  739SOL    HW212687   8.566   6.911   4.199  0.5926 -0.8635 -0.4053
  740SOL     OW12688   6.726   9.342   1.465  0.3601 -0.2052  0.3763
  740SOL    HW112689   6.785   9.404   1.516  0.2125  0.4278 -0.2206
  740SOL    HW212690   6.746   9.248   1.492  1.8193 -0.0213 -0.0045
  741SOL     OW12691   2.433   1.915   0.285 -0.2864 -0.3018  0.0502
  741SOL    HW112692   2.478   1.847   0.344 -3.6150 -1.3823  1.5226
  741SOL    HW212693   2.403   1.871   0.201  1.4419  0.4300 -0.9618
  742SOL     OW12694   8.402   8.964   2.134  0.5808 -0.3825 -0.4349
  742SOL    HW112695   8.305   8.939   2.127  0.3473  0.9170 -2.1732
  742SOL    HW212696   8.446   8.951   2.045  1.1698  2.3622 -0.5906
  743SOL     OW12697   3.889   9.587   4.357  0.3171 -0.0977  0.5692
  743SOL    HW112698   3.793   9.616   4.358  0.2090 -0.3557 -1.2334
  743SOL    HW212699   3.899   9.504   4.411 -0.8805 -1.2367 -0.9230
  744SOL     OW12700   0.411   7.223   1.665 -0.5682  0.4664  0.1345
  744SOL    HW112701   0.464   7.152   1.619 -0.6816  1.5999 -1.7831
  744SOL    HW212702   0.319   7.188   1.684 -0.0510 -0.5209  0.8666
  745SOL     OW12703   4.163   9.863   0.761 -0.2965 -0.2914 -0.1270
  745SOL    HW112704   4.145   9.824   0.672  2.0263 -0.8892 -0.3783
  745SOL    HW212705   4.239   9.815   0.804 -0.0475  1.2992  1.2949
  746SOL     OW12706   3.570   8.850   0.613 -0.4965  0.0183 -0.1735
  746SOL    HW112707   3.569   8.892   0.522 -1.1312 -0.0147 -0.1849
  746SOL    HW212708   3.533   8.757   0.608 -1.6048  0.4246  0.3097
  747SOL     OW12709   1.053   5.729   0.401  0.2073  0.1593  0.1593
  747SOL    HW112710   1.113   5.728   0.320  0.9690  0.7104  0.7084
  747SOL    HW212711   1.015   5.637   0.414  0.1793  0.0286 -0.7499
  748SOL     OW12712   0.801   0.348   1.478 -0.1148 -0.4365  0.5220
  748SOL    HW112713   0.807   0.432   1.531  0.8167  0.4360 -0.9235
  748SOL    HW212714   0.712   0.305   1.494  0.0523 -0.0599  2.5448
  749SOL     OW12715   9.179   5.589   1.666 -0.3751  0.6669  0.1589
  749SOL    HW112716   9.222   5.510   1.709  0.5146  1.2353  0.3427
  749SOL    HW212717   9.249   5.642   1.616 -1.2273  0.5133 -1.2274
  750SOL     OW12718   0.501   2.995   1.793 -0.3490 -0.7466 -0.2122
  750SOL    HW112719   0.525   2.899   1.811  1.0840 -0.4556 -0.5117
  750SOL    HW212720   0.529   3.051   1.870  0.2257 -0.3467 -0.7165
  751SOL     OW12721   2.088   5.917   1.666 -0.1624  0.2902 -0.3805
  751SOL    HW112722   2.128   5.854   1.600 -0.8855  0.0457 -0.5930
  751SOL    HW212723   2.103   6.011   1.636  1.7889  0.2586  0.4458
  752SOL     OW12724   6.137   7.359   2.529 -0.2566 -0.1490  0.7207
  752SOL    HW112725   6.065   7.339   2.596 -0.5699 -0.0801  0.4020
  752SOL    HW212726   6.181   7.273   2.501  0.4519 -0.1021  1.6569
  753SOL     OW12727   4.363   7.538   1.066  0.1561 -0.2854  0.0542
  753SOL    HW112728   4.371   7.505   0.972  0.6917 -0.2397  0.0862
  753SOL    HW212729   4.415   7.623   1.076 -3.1627  1.9449 -0.6818
  754SOL     OW12730   9.717   9.807   2.944 -0.0189  0.6375  0.3633
  754SOL    HW112731   9.691   9.819   3.040  0.2059  0.3633  0.4578
  754SOL    HW212732   9.782   9.878   2.918 -1.3778  1.7587 -0.0701
  755SOL     OW12733   9.939   7.976   0.237  0.0592 -0.1918 -0.1070
  755SOL    HW112734   9.871   8.049   0.246  2.0004  1.6323  0.2061
  755SOL    HW212735   9.918   7.903   0.302 -0.3174  1.3764  1.5787
  756SOL     OW12736   1.910   8.475   4.634  0.1795  0.2540 -0.0730
  756SOL    HW112737   1.921   8.375   4.638  0.3976  0.3223  1.2768
  756SOL    HW212738   1.841   8.503   4.701  1.5177  1.1943  0.9294
  757SOL     OW12739   9.285   9.785   1.584 -0.0788 -0.5243  0.1181
  757SOL    HW112740   9.210   9.820   1.527  0.4012  1.2084  0.5228
  757SOL    HW212741   9.358   9.751   1.526  0.3864  1.1775 -0.3175
  758SOL     OW12742   8.976   8.989   4.432 -0.2045 -0.1752 -0.8272
  758SOL    HW112743   8.985   8.975   4.531  0.2766  0.6996 -0.7397
  758SOL    HW212744   8.889   8.952   4.401 -1.2241  1.2372  0.2602
  759SOL     OW12745   4.758   9.940   1.355 -0.3852  0.6525  0.0026
  759SOL    HW112746   4.850   9.973   1.376 -0.4015  0.6624  0.0579
  759SOL    HW212747   4.701  10.016   1.324 -0.9916  1.0453  2.0471
  760SOL     OW12748   7.372   9.870   2.723  0.1576 -0.6038  0.6081
  760SOL    HW112749   7.402   9.965   2.717 -0.0153 -0.5893 -0.0705
  760SOL    HW212750   7.408   9.819   2.645 -0.8866 -0.7700  0.2263
  761SOL     OW12751   1.977   2.450   3.714 -0.0157  0.4694 -0.2775
  761SOL    HW112752   2.006   2.466   3.619 -0.6423  0.6107 -0.4466
  761SOL    HW212753   2.043   2.390   3.759  0.3098  0.4393 -0.7901
  762SOL     OW12754   6.190   8.293   2.205  0.0273 -0.3835 -0.6001
  762SOL    HW112755   6.286   8.281   2.233  0.0008  0.0610 -0.3091
  762SOL    HW212756   6.161   8.214   2.152  0.0822 -1.2560  0.6325
  763SOL     OW12757   1.038   8.433   0.376  0.5695 -0.2887  0.4878
  763SOL    HW112758   1.096   8.417   0.296  0.7604  2.5701  0.0088
  763SOL    HW212759   1.044   8.529   0.403 -2.2905 -0.4252  1.7578
  764SOL     OW12760   3.603   1.533   0.367 -0.0045 -0.1204  0.6114
  764SOL    HW112761   3.646   1.623   0.365  0.7336 -0.4857 -1.6735
  764SOL    HW212762   3.563   1.513   0.278  1.6132 -2.8604  0.4191
  765SOL     OW12763   8.769   7.360   3.947  0.3064  0.6659 -0.4430
  765SOL    HW112764   8.825   7.328   3.870 -0.0854 -0.7920 -0.1430
  765SOL    HW212765   8.690   7.300   3.957  1.3023 -0.2986  2.2338
  766SOL     OW12766   5.047   1.730   2.152 -0.1088  0.5067 -0.1586
  766SOL    HW112767   5.070   1.825   2.170 -0.5542  0.8409 -1.2652
  766SOL    HW212768   5.006   1.723   2.060 -0.4221 -0.6882  0.0664
  767SOL     OW12769   3.221   2.429   3.330 -0.7454 -0.1672 -0.2354
  767SOL    HW112770   3.209   2.404   3.234  0.9866 -0.3432 -0.4180
  767SOL    HW212771   3.251   2.350   3.383  0.3783  0.4241  0.0392
  768SOL     OW12772   2.181   1.368   1.919  0.7054 -0.0070  0.0964
  768SOL    HW112773   2.220   1.316   1.996 -1.1565 -0.5923  0.6608
  768SOL    HW212774   2.171   1.464   1.946 -1.4998 -0.5155  1.2217
  769SOL     OW12775   6.629   9.358   2.657 -0.3727  0.2066  0.1996
  769SOL    HW112776   6.539   9.327   2.687 -1.0944  1.1057 -1.0255
  769SOL    HW212777   6.627   9.381   2.560  1.3297 -0.3242  0.0175
  770SOL     OW12778   7.455   9.233   3.075  0.0128 -0.0590  0.1402
  770SOL    HW112779   7.396   9.287   3.134  1.1944  0.6830  0.6704
  770SOL    HW212780   7.484   9.150   3.122 -2.3300 -1.5002 -0.9145
  771SOL     OW12781   2.244   2.965   2.146 -0.6538  0.0105  0.2246
  771SOL    HW112782   2.187   3.034   2.101 -1.3338 -1.2073 -0.8322
  771SOL    HW212783   2.185   2.890   2.177  0.4398 -1.5268 -1.3739
  772SOL     OW12784   4.028   9.396   4.126  0.0018 -0.1185 -0.1649
  772SOL    HW112785   4.055   9.356   4.214 -0.2760 -0.5610 -0.2741
  772SOL    HW212786   3.933   9.429   4.133  0.3533  0.8618  0.0337
  773SOL     OW12787   5.843   8.111   2.889 -0.5786  0.3089  0.0800
  773SOL    HW112788   5.932   8.113   2.844 -0.7975 -3.1129 -0.6239
  773SOL    HW212789   5.856   8.116   2.988  0.4819 -1.4093  0.0387
  774SOL     OW12790   3.962   4.252   1.411  0.1715  0.6469 -0.2170
  774SOL    HW112791   3.947   4.232   1.314 -3.0649  2.3583 -0.1479
  774SOL    HW212792   3.942   4.348   1.429 -2.8498 -0.4115  2.7475
  775SOL     OW12793   0.849   8.888   4.562 -0.1125 -0.2055 -0.1207
  775SOL    HW112794   0.752   8.894   4.586  0.0755 -0.9632  0.8785
  775SOL    HW212795   0.904   8.932   4.633  0.4159 -1.9483  0.5771
  776SOL     OW12796   2.496   2.705   3.604 -0.2819  0.2025 -0.1106
  776SOL    HW112797   2.523   2.664   3.691 -0.4755 -1.1527 -0.6817
  776SOL    HW212798   2.573   2.756   3.567  0.3358 -0.5896  0.0551
  777SOL     OW12799   2.629   4.108   4.433 -0.5605  0.0412 -0.0815
  777SOL    HW112800   2.544   4.152   4.408 -1.3949 -2.1580 -1.2040
  777SOL    HW212801   2.637   4.020   4.387  2.8721  0.7012 -0.9392
  778SOL     OW12802   0.072   8.077   0.035 -0.1284 -0.4879 -0.6636
  778SOL    HW112803   0.119   8.145   0.091 -1.6070  0.1491 -0.1689
  778SOL    HW212804   0.015   8.019   0.094 -0.0952 -1.1385 -1.2684
  779SOL     OW12805   7.863   9.262   3.038  0.3038 -0.1179 -0.0795
  779SOL    HW112806   7.812   9.176   3.035 -0.0857  0.1442 -1.5314
  779SOL    HW212807   7.799   9.339   3.039  0.6560  0.1702  0.5087
  780SOL     OW12808   3.107   7.200   2.769  0.2780  0.0164  0.5081
  780SOL    HW112809   3.185   7.248   2.728  0.8005 -1.5983 -0.4254
  780SOL    HW212810   3.140   7.120   2.819 -0.8137 -0.9482 -0.3001
  781SOL     OW12811   0.086   1.262   2.847  0.0456 -0.1503  0.0514
  781SOL    HW112812   0.022   1.286   2.920 -1.1420 -1.1625 -0.6456
  781SOL    HW212813   0.039   1.263   2.759  0.8915 -1.3181 -0.4250
  782SOL     OW12814   2.944   5.120   0.300 -0.7483  0.3257 -0.7069
  782SOL    HW112815   2.904   5.160   0.218 -0.6972 -0.0605 -0.9210
  782SOL    HW212816   2.885   5.138   0.379  0.4214  2.8632 -0.3701
  783SOL     OW12817   9.467   7.090   0.387  0.4017 -0.3270 -0.7813
  783SOL    HW112818   9.421   7.171   0.422  2.6858  0.9805 -0.7183
  783SOL    HW212819   9.438   7.010   0.440  0.1950  0.8777  0.9700
  784SOL     OW12820   9.758   1.420   2.406 -0.1117 -0.9328  0.3624
  784SOL    HW112821   9.802   1.381   2.326 -0.0529 -0.5004  0.1846
  784SOL    HW212822   9.760   1.520   2.401  1.2570 -0.8730  1.6446
  785SOL     OW12823   0.450   1.000   3.389  0.0924 -0.0555  0.1848
  785SOL    HW112824   0.370   0.974   3.444  0.2676 -0.8859  0.0602
  785SOL    HW212825   0.477   1.093   3.412 -0.0431 -0.2710  1.2712
  786SOL     OW12826   4.108   7.388   1.793  0.3168 -0.4808 -0.5148
  786SOL    HW112827   4.021   7.388   1.843  1.2145  0.1040  1.0887
  786SOL    HW212828   4.179   7.346   1.850  1.3424  0.1364 -1.3149
  787SOL     OW12829   7.872   5.579   2.247 -0.7471 -0.0183  0.2711
  787SOL    HW112830   7.862   5.674   2.279  2.3503  0.5071 -0.1728
  787SOL    HW212831   7.963   5.567   2.208 -1.6819 -2.7923 -1.1306
  788SOL     OW12832   9.333   0.728   2.069 -0.2547  0.4189  0.6482
  788SOL    HW112833   9.330   0.736   1.970 -1.3108 -1.6673  0.4726
  788SOL    HW212834   9.280   0.648   2.097  1.2971  0.0918  2.7799
  789SOL     OW12835   1.547   5.061   3.977  0.5746  0.1161 -0.0424
  789SOL    HW112836   1.574   5.121   3.902  0.5491  1.6967  1.2049
  789SOL    HW212837   1.579   5.098   4.064 -0.4265 -1.0847  0.8624
  790SOL     OW12838   1.383   8.874   3.114 -0.4164  0.2830 -0.1155
  790SOL    HW112839   1.457   8.821   3.157 -0.3446 -0.6562 -1.3912
  790SOL    HW212840   1.296   8.850   3.157 -0.1888  0.2292  0.3224
  791SOL     OW12841   3.693   8.978   0.222  0.6141 -0.2074 -0.2951
  791SOL    HW112842   3.706   9.019   0.131 -2.4352  0.5259 -0.4531
  791SOL    HW212843   3.661   9.048   0.286 -0.5559 -1.4505  0.5003
  792SOL     OW12844   1.945   3.422   1.584  0.6469 -0.3349  0.2642
  792SOL    HW112845   1.872   3.354   1.588 -0.4488  0.7298 -1.0748
  792SOL    HW212846   1.929   3.491   1.655  0.1322  0.0892 -0.2536
  793SOL     OW12847   2.677   9.743   1.223 -0.2248  0.6295  0.0421
  793SOL    HW112848   2.766   9.786   1.217 -1.1767  2.9982  1.9930
  793SOL    HW212849   2.678   9.673   1.294  0.5487 -0.6769 -1.2183
  794SOL     OW12850   8.951   6.558   4.022 -0.3690 -0.4466  0.6675
  794SOL    HW112851   8.889   6.537   3.946 -0.5138 -2.5307  1.3370
  794SOL    HW212852   9.044   6.532   3.998 -0.1589  0.3202  0.6351
  795SOL     OW12853   0.040   4.980   4.735  0.2964  0.0926 -0.1152
  795SOL    HW112854  -0.043   5.031   4.759 -1.0896 -2.2627  0.1757
  795SOL    HW212855   0.070   4.925   4.813  3.1914  2.2504  0.3864
  796SOL     OW12856   2.875   2.312   0.461 -0.4594  0.1339 -0.3227
  796SOL    HW112857   2.896   2.309   0.364 -0.9893 -0.3720 -0.4254
  796SOL    HW212858   2.939   2.373   0.508 -1.6893  2.2372 -1.3454
  797SOL     OW12859   2.772   1.624   2.714  0.4442  1.1071 -0.0765
  797SOL    HW112860   2.688   1.673   2.689  0.6533  0.6901 -1.6585
  797SOL    HW212861   2.813   1.667   2.794 -0.9778  1.6658  0.3703
  798SOL     OW12862   1.352   5.656   1.849  0.1286  0.2292 -0.0839
  798SOL    HW112863   1.315   5.567   1.821  1.3018 -0.2002 -0.2778
  798SOL    HW212864   1.286   5.701   1.909 -0.6399 -0.6098 -0.2739
  799SOL     OW12865   3.720   9.470   4.733  0.2691  0.0193  0.2220
  799SOL    HW112866   3.790   9.536   4.705  0.9308 -0.7484  0.0631
  799SOL    HW212867   3.635   9.519   4.751  0.8891  0.9812  0.5956
  800SOL     OW12868   3.390   7.594   0.873 -0.7204  0.0517  0.3359
  800SOL    HW112869   3.316   7.661   0.871 -1.2893 -0.5484  0.8287
  800SOL    HW212870   3.472   7.637   0.910 -0.3015  1.2073 -1.8721
  801SOL     OW12871   6.207   9.681   1.962 -0.7792 -0.1091  0.0800
  801SOL    HW112872   6.147   9.602   1.977 -1.0791  0.1565  0.2612
  801SOL    HW212873   6.173   9.734   1.884  0.4138 -1.1293 -1.1571
  802SOL     OW12874   2.480   0.140   0.387 -0.0724  0.6608 -0.1228
  802SOL    HW112875   2.474   0.215   0.321 -1.3794  1.0965  0.4841
  802SOL    HW212876   2.565   0.149   0.439  0.0627  1.3847 -0.4597
  803SOL     OW12877   9.058   5.548   0.393  0.3754 -0.0869  0.2959
  803SOL    HW112878   9.053   5.515   0.299  0.7318  1.4647 -0.2768
  803SOL    HW212879   9.140   5.512   0.437 -0.2476 -1.5233  0.3012
  804SOL     OW12880   9.156   9.833   4.645 -0.4426  0.0072  0.5030
  804SOL    HW112881   9.157   9.861   4.741  0.5744 -2.0334  1.1265
  804SOL    HW212882   9.110   9.745   4.636  0.5893 -0.4329 -0.6804
  805SOL     OW12883   0.283   5.676   0.094  0.0435  0.0540  0.9512
  805SOL    HW112884   0.257   5.747   0.029 -2.5361 -0.3005  1.5515
  805SOL    HW212885   0.230   5.686   0.178  1.4091 -1.1161  1.9813
  806SOL     OW12886   0.982   1.029   3.229 -0.0942 -0.2843 -0.3667
  806SOL    HW112887   0.947   1.122   3.216 -1.6575 -0.6931  0.7079
  806SOL    HW212888   0.914   0.964   3.195  1.2856 -1.0397 -1.7538
  807SOL     OW12889   9.235   7.103   4.318 -0.2883  0.1278  1.0041
  807SOL    HW112890   9.218   7.150   4.231  0.5738  1.7909  1.7063
  807SOL    HW212891   9.325   7.060   4.315 -0.0792  0.5491  1.2258
  808SOL     OW12892   0.257   9.849   0.913 -0.5871  0.0005 -0.6432
  808SOL    HW112893   0.289   9.869   0.820 -2.8598  1.7417 -1.0971
  808SOL    HW212894   0.191   9.775   0.910 -0.1809 -0.3762 -0.3147
  809SOL     OW12895   8.798   7.077   0.679 -0.4860  0.0951  0.3828
  809SOL    HW112896   8.712   7.080   0.729 -0.0148 -0.7648  1.2738
  809SOL    HW212897   8.807   6.989   0.632 -0.5489  0.5750 -0.5323
  810SOL     OW12898   6.218   0.129   1.203 -0.2622  0.2816  0.5334
  810SOL    HW112899   6.299   0.145   1.146  0.0681  1.2153  1.2615
  810SOL    HW212900   6.136   0.142   1.147  0.0845 -1.5809 -0.4447
  811SOL     OW12901   4.793   5.437   1.332 -0.7800 -0.0991 -0.1956
  811SOL    HW112902   4.747   5.461   1.417 -1.6165 -1.3482 -0.2822
  811SOL    HW212903   4.733   5.380   1.276  0.5749 -1.1286 -0.6546
  812SOL     OW12904   9.932   4.674   1.570  0.2559 -0.2628  0.1963
  812SOL    HW112905   9.868   4.597   1.570  0.7007 -0.6375  0.0015
  812SOL    HW212906   9.941   4.711   1.478 -1.1105  0.9973  0.5592
  813SOL     OW12907   1.258   2.391   1.400 -0.1371  0.1413  0.1160
  813SOL    HW112908   1.175   2.383   1.455 -0.7608 -1.9041 -1.0562
  813SOL    HW212909   1.254   2.473   1.344 -1.5790 -0.1543 -0.2256
  814SOL     OW12910   3.566   7.589   0.240 -0.4815  0.0441  0.0768
  814SOL    HW112911   3.638   7.646   0.201 -0.9186  0.1553 -0.5732
  814SOL    HW212912   3.565   7.601   0.340  0.6346 -0.2522  0.1293
  815SOL     OW12913   2.130   5.857   2.318 -0.1928  0.5639  0.2253
  815SOL    HW112914   2.039   5.828   2.349 -0.4782  1.4492  0.2299
  815SOL    HW212915   2.128   5.875   2.220  0.5619 -1.6553 -0.2156
  816SOL     OW12916   3.868   9.207   3.048  0.8940  0.3893 -0.1938
  816SOL    HW112917   3.899   9.302   3.050  0.4422  0.5352  0.3421
  816SOL    HW212918   3.935   9.149   3.093 -0.0851  0.8582  1.9557
  817SOL     OW12919   7.576   6.784   2.876 -0.1216  0.5373  0.4405
  817SOL    HW112920   7.632   6.855   2.834  0.3283  0.2443  0.5419
  817SOL    HW212921   7.511   6.749   2.809 -1.5808  2.3057  0.9023
  818SOL     OW12922   1.912   4.365   1.129  0.3809 -0.8517 -0.2853
  818SOL    HW112923   1.890   4.279   1.082 -0.3208 -0.8063 -0.0493
  818SOL    HW212924   1.837   4.430   1.114  0.8194 -0.3511 -0.2975
  819SOL     OW12925   1.921   0.013   4.487  0.1538  0.0203 -0.0997
  819SOL    HW112926   1.860  -0.010   4.411  0.7052  0.0843 -0.5648
  819SOL    HW212927   2.011   0.039   4.451  0.5909 -0.4972  0.6052
  820SOL     OW12928   8.999   0.678   0.693 -0.2075 -0.0818  0.0786
  820SOL    HW112929   8.978   0.697   0.597 -0.0895  0.4716  0.1600
  820SOL    HW212930   9.048   0.591   0.700 -0.4831 -0.2706 -0.3314
  821SOL     OW12931   3.939   8.005   4.316 -0.4165  0.0249 -0.0519
  821SOL    HW112932   3.854   8.041   4.353  0.0741 -0.1240  1.2455
  821SOL    HW212933   4.017   8.042   4.368  0.1045 -2.7049  1.2060
  822SOL     OW12934   0.137   7.083   3.594 -0.0264  0.3539 -0.1361
  822SOL    HW112935   0.098   7.171   3.566 -0.8708  0.0208 -0.0059
  822SOL    HW212936   0.079   7.041   3.664 -0.4497 -1.0217 -1.2979
  823SOL     OW12937   5.560   7.652   1.908  0.2643  0.0207 -0.8302
  823SOL    HW112938   5.634   7.718   1.898 -0.7286  1.2070 -0.4772
  823SOL    HW212939   5.474   7.700   1.928 -0.7216 -1.2876 -1.7949
  824SOL     OW12940   9.046   6.038   2.685 -0.1464  0.0150 -0.1407
  824SOL    HW112941   9.056   6.131   2.722 -2.5717  0.1411  0.3017
  824SOL    HW212942   9.109   6.026   2.609 -0.6054  2.4305 -0.9686
  825SOL     OW12943   1.437   5.114   2.295 -0.4891 -0.2650 -0.0730
  825SOL    HW112944   1.384   5.148   2.218 -1.7174  0.0406  0.8752
  825SOL    HW212945   1.418   5.170   2.376  1.2930 -0.1561  0.2899
  826SOL     OW12946   7.161   9.561   4.190  0.1746  0.0755 -0.4615
  826SOL    HW112947   7.082   9.563   4.129  0.0313 -1.0115 -0.3128
  826SOL    HW212948   7.140   9.612   4.274 -0.3926 -0.2788 -0.3866
  827SOL     OW12949   2.187   5.253   3.354 -0.6099  0.1876  0.1964
  827SOL    HW112950   2.214   5.290   3.443 -0.7531 -0.2690  0.4294
  827SOL    HW212951   2.163   5.328   3.292  0.8675  0.5998  0.0897
  828SOL     OW12952   2.940   2.122   0.226  0.2305  0.1063  0.0616
  828SOL    HW112953   2.885   2.049   0.267  0.5701  0.7581  1.7218
  828SOL    HW212954   3.021   2.082   0.184  0.5541 -0.4728  1.2030
  829SOL     OW12955   1.538   8.989   2.682  0.4421 -0.1955  0.4388
  829SOL    HW112956   1.478   9.045   2.740  0.1977  0.7031 -0.6607
  829SOL    HW212957   1.488   8.910   2.648 -0.0711  0.4542 -0.3258
  830SOL     OW12958   3.793   3.895   1.773 -0.7438 -0.3078 -0.0326
  830SOL    HW112959   3.779   3.973   1.712 -0.1465 -0.8494 -0.8891
  830SOL    HW212960   3.891   3.875   1.780 -0.8321 -0.4546  0.8565
  831SOL     OW12961   2.825   6.930   4.073 -0.7562 -0.0216  0.1154
  831SOL    HW112962   2.873   7.006   4.118 -0.2405 -1.5477  2.2292
  831SOL    HW212963   2.868   6.912   3.985  0.3105  0.9391  0.4157
  832SOL     OW12964   2.147   8.495   1.956  0.3135  0.6405  0.1733
  832SOL    HW112965   2.242   8.497   1.985  0.1839 -0.2847  0.6604
  832SOL    HW212966   2.141   8.516   1.858  1.3128 -2.5233 -0.6099
  833SOL     OW12967   3.260   6.047   1.917 -0.2317  0.4339 -0.2436
  833SOL    HW112968   3.246   6.032   1.819 -2.2299 -0.0361  0.1061
  833SOL    HW212969   3.322   5.976   1.952  0.4451  0.5664 -1.1412
  834SOL     OW12970   0.292   4.344   0.113  0.1887  0.4154 -0.2235
  834SOL    HW112971   0.295   4.298   0.024  0.6527  0.7887 -0.4046
  834SOL    HW212972   0.198   4.370   0.134 -0.0934 -0.7551 -0.0466
  835SOL     OW12973   1.631   2.376   1.930 -0.1541 -0.2404  0.4983
  835SOL    HW112974   1.669   2.439   1.862 -0.0997 -0.4423  0.3392
  835SOL    HW212975   1.533   2.390   1.938 -0.0441  0.3128  0.9392
  836SOL     OW12976   7.258   9.250   4.505 -0.0787 -0.4546  0.0414
  836SOL    HW112977   7.233   9.222   4.598 -2.4373 -0.1751 -0.4774
  836SOL    HW212978   7.341   9.203   4.478  0.2385 -1.1069  2.0257
  837SOL     OW12979   0.268   3.598   3.986  0.9161 -0.1961  0.4483
  837SOL    HW112980   0.352   3.549   4.011  0.2321 -0.5083  2.2271
  837SOL    HW212981   0.190   3.556   4.031 -0.0506  0.8305 -0.2326
  838SOL     OW12982   1.177   5.968   2.912  0.3010  0.0660  0.3992
  838SOL    HW112983   1.099   5.966   2.850  0.8125 -0.3940 -0.2432
  838SOL    HW212984   1.158   6.029   2.989 -0.9576 -0.6033  0.6209
  839SOL     OW12985   6.035   8.797   3.199 -0.4736 -0.5411  0.5668
  839SOL    HW112986   6.045   8.892   3.171 -1.3211 -0.1065  1.6909
  839SOL    HW212987   6.124   8.760   3.227 -0.0348 -0.2837 -0.4889
  840SOL     OW12988   4.839   8.687   2.061  0.2762 -0.6402  0.3454
  840SOL    HW112989   4.821   8.743   2.142  1.1309 -0.7177  0.5938
  840SOL    HW212990   4.783   8.719   1.985  0.9022  0.6933  0.4230
  841SOL     OW12991   4.299   0.534   1.945 -0.3216  0.2187  0.3873
  841SOL    HW112992   4.339   0.520   2.035  0.9478  1.4970  0.0414
  841SOL    HW212993   4.237   0.612   1.947 -0.2329  0.2976  0.1438
  842SOL     OW12994   5.070   9.015   3.048 -0.2162 -0.4489  0.0422
  842SOL    HW112995   5.133   8.950   3.005 -0.9615 -1.3985  0.3705
  842SOL    HW212996   5.019   8.969   3.121 -0.7152  0.5169  0.3072
  843SOL     OW12997   9.376   8.429   4.499 -0.4757  0.1341 -0.3003
  843SOL    HW112998   9.439   8.405   4.573  0.2961  2.7612 -0.0498
  843SOL    HW212999   9.302   8.363   4.496  0.6198 -1.2392  1.4316
  844SOL     OW13000   1.944   0.268   0.723 -0.0790 -0.2649 -0.3747
  844SOL    HW113001   2.040   0.244   0.738 -0.5168 -1.1146  1.1122
  844SOL    HW213002   1.939   0.359   0.683  1.3733 -0.4436 -1.0109
  845SOL     OW13003   9.628   9.699   3.200  0.2069  0.0292  0.5271
  845SOL    HW113004   9.609   9.796   3.211  1.6313  0.2214  1.3869
  845SOL    HW213005   9.725   9.681   3.216  0.2897 -1.2893 -1.3227
  846SOL     OW13006   2.463   6.122   4.122 -0.3437 -0.3871  0.6696
  846SOL    HW113007   2.367   6.127   4.150 -0.3977  1.0649  0.2746
  846SOL    HW213008   2.469   6.107   4.023 -0.2358  3.8471 -0.0602
  847SOL     OW13009   9.814   0.374   1.373  0.2319 -0.3040  0.3185
  847SOL    HW113010   9.799   0.456   1.429  1.6255 -0.9946  1.7706
  847SOL    HW213011   9.736   0.360   1.313 -0.9351  0.9632  1.4900
  848SOL     OW13012   4.289   1.213   1.972  0.3328  0.8319  0.2696
  848SOL    HW113013   4.347   1.157   2.031 -1.1451 -0.8080  0.2083
  848SOL    HW213014   4.322   1.208   1.878  1.1331  1.3312  0.5219
  849SOL     OW13015   0.817   5.543   4.031  0.0013 -0.4727 -0.2484
  849SOL    HW113016   0.741   5.487   4.065 -0.0793 -0.7876 -0.9535
  849SOL    HW213017   0.788   5.639   4.026 -0.5337 -0.6798 -1.0790
  850SOL     OW13018   5.977   9.249   1.465  0.3399  0.2069 -0.1240
  850SOL    HW113019   6.005   9.153   1.476 -0.9401 -0.0682  0.7948
  850SOL    HW213020   5.877   9.255   1.470  0.4848  1.7464  1.0635
  851SOL     OW13021   4.415   0.104   4.606  0.1432 -0.2041 -0.0636
  851SOL    HW113022   4.417   0.006   4.585  1.6398 -0.0759 -0.5852
  851SOL    HW213023   4.448   0.155   4.528 -2.6489  0.8975 -0.5878
  852SOL     OW13024   4.672   0.561   1.299 -0.2661  0.1875  0.6429
  852SOL    HW113025   4.585   0.518   1.273 -1.2368 -0.6903  4.8339
  852SOL    HW213026   4.746   0.495   1.288 -0.3553  0.3812 -1.3194
  853SOL     OW13027   7.313   9.829   2.111 -0.1484 -0.0652 -0.1566
  853SOL    HW113028   7.306   9.805   2.014 -0.8989  1.5994 -0.5309
  853SOL    HW213029   7.225   9.863   2.143  0.2137 -0.2166  1.0089
  854SOL     OW13030   4.105   1.500   3.213  0.5179 -0.1754  0.1362
  854SOL    HW113031   4.058   1.570   3.267 -0.4674 -0.4565 -0.3515
  854SOL    HW213032   4.085   1.515   3.116  0.4037 -1.0676  0.0245
  855SOL     OW13033   1.406   6.055   2.195 -0.3073 -0.4444 -0.4372
  855SOL    HW113034   1.359   5.984   2.247 -0.6253 -0.4226 -0.6920
  855SOL    HW213035   1.497   6.023   2.171  0.9196  0.6392  2.5582
  856SOL     OW13036   2.426   1.582   4.113  0.0949 -0.0606 -0.8043
  856SOL    HW113037   2.520   1.616   4.114  0.7664 -1.8465  0.2074
  856SOL    HW213038   2.364   1.654   4.142  1.3314  0.6937  0.0279
  857SOL     OW13039   3.121   9.751   3.899  0.3945 -0.0710  0.6756
  857SOL    HW113040   3.174   9.677   3.857  0.0313 -0.3732  0.7429
  857SOL    HW213041   3.134   9.835   3.847 -0.6919 -0.6296 -0.5345
  858SOL     OW13042   9.554   7.713   3.014  0.0791 -0.4836 -0.1850
  858SOL    HW113043   9.618   7.771   3.064  0.5411 -2.9990  2.2685
  858SOL    HW213044   9.466   7.761   3.006  0.9232  1.2100  0.3082
  859SOL     OW13045   4.064   1.473   1.705 -0.0152 -0.5826  0.0633
  859SOL    HW113046   4.138   1.499   1.767  0.6146 -1.9932 -0.0749
  859SOL    HW213047   4.085   1.505   1.613  0.7428 -1.4917 -0.0989
  860SOL     OW13048   4.588   1.485   1.419 -0.1542  0.2199  0.3497
  860SOL    HW113049   4.547   1.399   1.387  0.0131 -0.4542  1.8950
  860SOL    HW213050   4.527   1.561   1.398 -1.5935 -0.6167  1.3969
  861SOL     OW13051   4.669   4.659   1.758 -0.3680 -0.1610 -0.4149
  861SOL    HW113052   4.599   4.642   1.689 -0.4989  0.7134 -0.5003
  861SOL    HW213053   4.750   4.697   1.716 -0.5644  0.6725 -0.0465
  862SOL     OW13054   9.169   8.087   4.710 -0.7593  0.2569 -0.4530
  862SOL    HW113055   9.266   8.064   4.708 -0.5602  1.0748 -0.2323
  862SOL    HW213056   9.117   8.008   4.743 -0.4023 -0.9286 -2.6540
  863SOL     OW13057   4.693   7.875   1.788  0.9266  0.4988  0.3183
  863SOL    HW113058   4.747   7.936   1.730  1.3282  1.1008  1.3028
  863SOL    HW213059   4.621   7.832   1.733  1.3259  1.0131 -0.6277
  864SOL     OW13060   7.376   5.997   2.342 -0.4264  0.3441 -0.2725
  864SOL    HW113061   7.454   6.040   2.387 -1.2662  0.4860  1.0975
  864SOL    HW213062   7.291   6.031   2.384 -1.2974  1.6841 -3.0412
  865SOL     OW13063   0.023   8.037   0.790 -0.4595  0.4930 -0.4386
  865SOL    HW113064  -0.060   7.984   0.772 -0.9894  1.4396 -0.8266
  865SOL    HW213065   0.077   7.993   0.861 -1.5896  0.1903  0.2310
  866SOL     OW13066   3.403   5.424   1.341 -0.4110  0.0937 -0.1621
  866SOL    HW113067   3.421   5.326   1.342  0.1769  0.1928  1.5696
  866SOL    HW213068   3.321   5.442   1.287 -1.5154 -1.5443  0.9112
  867SOL     OW13069   3.968   3.531   2.821  0.1437 -0.5393 -0.1529
  867SOL    HW113070   3.935   3.482   2.902 -0.2707  0.4646  0.3030
  867SOL    HW213071   4.000   3.466   2.753  1.2358 -1.3930  1.1365
  868SOL     OW13072   8.013   0.255   4.073  0.0757  0.1738  0.0220
  868SOL    HW113073   7.942   0.228   4.138 -0.1999 -0.1742 -0.4196
  868SOL    HW213074   7.978   0.247   3.980  1.4117 -2.1636 -0.3191
  869SOL     OW13075   2.570   2.691   2.916  0.0956 -0.2538  0.2335
  869SOL    HW113076   2.499   2.743   2.964  1.0705  1.5479 -0.2398
  869SOL    HW213077   2.561   2.594   2.938 -1.8514  0.0783  1.0186
  870SOL     OW13078   1.031   1.776   1.319 -0.3485  0.1343  0.0762
  870SOL    HW113079   0.940   1.812   1.299 -0.9907 -0.8878  1.1114
  870SOL    HW213080   1.097   1.815   1.254 -1.7440 -0.2037 -1.5930
  871SOL     OW13081   6.876   9.854   3.225  0.2301  0.0676 -0.0668
  871SOL    HW113082   6.933   9.783   3.265  0.7350 -0.2447 -1.3038
  871SOL    HW213083   6.827   9.817   3.146 -1.8117  0.2955  1.0653
  872SOL     OW13084   2.618   1.588   0.060  0.4415  0.3169 -0.3939
  872SOL    HW113085   2.710   1.550   0.060  0.4540  0.1906  2.6734
  872SOL    HW213086   2.555   1.523   0.103 -0.4936  1.6444  0.2699
  873SOL     OW13087   1.586   7.998   0.093  0.0684  0.8014 -0.0144
  873SOL    HW113088   1.582   8.061   0.016 -0.1278 -0.6236 -1.1927
  873SOL    HW213089   1.665   8.020   0.150  0.3691  1.6992 -0.7629
  874SOL     OW13090   8.970   0.647   1.353  0.1131  0.6674 -0.1424
  874SOL    HW113091   8.915   0.601   1.423 -2.0890  0.8015 -1.7378
  874SOL    HW213092   9.001   0.736   1.388  2.3553 -0.9011  2.0615
  875SOL     OW13093   7.961   7.689   2.407 -0.2973  0.3007  0.3801
  875SOL    HW113094   7.929   7.699   2.501  0.1731  0.9074  0.4703
  875SOL    HW213095   7.886   7.652   2.351 -0.7993  0.6218  0.8356
  876SOL     OW13096   0.785   7.284   1.662 -0.4668 -0.0590  0.4206
  876SOL    HW113097   0.805   7.329   1.749 -0.3659 -1.7025  1.2707
  876SOL    HW213098   0.726   7.343   1.607  1.4013  2.0535  0.5749
  877SOL     OW13099   2.222   2.549   4.598 -0.6322 -0.0879 -0.1363
  877SOL    HW113100   2.267   2.464   4.573 -0.2092  0.0682  0.0954
  877SOL    HW213101   2.207   2.551   4.697  3.3621  2.0177  0.5367
  878SOL     OW13102   3.866   8.939   3.864  0.0545  0.1110  0.0950
  878SOL    HW113103   3.871   9.015   3.929 -1.5333  0.3640 -0.0535
  878SOL    HW213104   3.895   8.971   3.774  0.3007  0.2980  0.2403
  879SOL     OW13105   8.070   7.405   1.459 -0.6510  0.3817  0.3148
  879SOL    HW113106   8.057   7.356   1.544 -0.7298  0.2164  0.2073
  879SOL    HW213107   8.115   7.346   1.392 -1.9462  0.0220 -0.2432
  880SOL     OW13108   9.088   6.189   4.760  0.4523 -0.4657 -0.1435
  880SOL    HW113109   9.184   6.210   4.745  0.6904 -0.9474  0.6446
  880SOL    HW213110   9.068   6.097   4.726  0.2303 -0.2974 -0.4692
  881SOL     OW13111   2.882   0.305   3.854 -0.5233 -0.1585 -0.3884
  881SOL    HW113112   2.979   0.282   3.846 -0.4791  0.2361 -1.0335
  881SOL    HW213113   2.852   0.291   3.948 -0.1719 -1.5662 -0.4793
  882SOL     OW13114   3.208   9.831   4.774  0.5324 -0.8684 -0.9515
  882SOL    HW113115   3.117   9.819   4.735  0.3291  0.7983 -1.0366
  882SOL    HW213116   3.274   9.847   4.700  0.3651  0.9771 -0.7249
  883SOL     OW13117   1.354   6.974   2.685  0.5962 -0.4208  0.3838
  883SOL    HW113118   1.277   7.014   2.635  0.1270 -0.6078  0.9369
  883SOL    HW213119   1.325   6.954   2.779  2.2216  2.3804  1.5536
  884SOL     OW13120   5.680   9.279   3.951  0.1242  0.6885  0.0518
  884SOL    HW113121   5.676   9.368   3.996 -1.2174  0.3575  0.6134
  884SOL    HW213122   5.748   9.281   3.877 -0.8399  2.5587 -0.7992
  885SOL     OW13123   8.034   8.852   0.729  0.2793 -1.0030  0.5763
  885SOL    HW113124   7.982   8.897   0.802 -0.5192 -1.5991  0.3849
  885SOL    HW213125   8.037   8.912   0.649  1.3656 -0.2418  1.1734
  886SOL     OW13126   2.041   8.000   2.033  0.4757 -0.2749 -0.5444
  886SOL    HW113127   1.971   8.023   1.965  0.2419  3.4111  0.8118
  886SOL    HW213128   2.047   8.074   2.101  1.6589 -3.2217  2.6855
  887SOL     OW13129   1.105   2.625   2.134  0.3555 -0.4034  0.0832
  887SOL    HW113130   1.104   2.646   2.232  0.2630 -0.8248  0.1709
  887SOL    HW213131   1.107   2.526   2.121  1.0949 -0.3387 -0.3316
  888SOL     OW13132   3.632   4.053   0.937  0.4219  0.3420  0.5852
  888SOL    HW113133   3.694   4.131   0.937 -1.1951  1.6496  0.6581
  888SOL    HW213134   3.632   4.010   0.846 -0.6598  2.0389 -0.2332
  889SOL     OW13135   1.376   6.975   1.786 -0.1265 -0.3215  0.3761
  889SOL    HW113136   1.421   6.926   1.860  0.8923 -0.9917 -0.6630
  889SOL    HW213137   1.391   6.926   1.700 -2.4052 -0.2923 -0.0908
  890SOL     OW13138   9.600   7.918   1.599 -0.0102  0.3364 -0.0728
  890SOL    HW113139   9.619   8.004   1.646 -0.0712  0.6618 -0.6399
  890SOL    HW213140   9.658   7.910   1.518  2.2385 -1.5932  1.6379
  891SOL     OW13141   6.665   8.752   4.255 -0.4584  0.1199  0.0187
  891SOL    HW113142   6.571   8.742   4.222 -0.5096  1.6396 -0.3318
  891SOL    HW213143   6.700   8.842   4.228  0.4896  0.2559  1.6611
  892SOL     OW13144   3.489   3.676   2.632  0.0376 -0.3420  0.9935
  892SOL    HW113145   3.490   3.742   2.707  0.5096  0.8916 -0.0851
  892SOL    HW213146   3.579   3.632   2.626  1.4313  2.6236 -1.4788
  893SOL     OW13147   4.081   8.798   3.264 -0.1171  0.1964  0.6619
  893SOL    HW113148   3.998   8.808   3.209  0.1353 -0.9199  0.0702
  893SOL    HW213149   4.113   8.704   3.260  0.2753  0.2481  2.2013
  894SOL     OW13150   3.885   8.439   2.145 -0.3017  0.6875  0.3953
  894SOL    HW113151   3.839   8.414   2.231  0.7714  0.9424  1.0623
  894SOL    HW213152   3.978   8.402   2.146  0.4909  2.6190  0.3437
  895SOL     OW13153   0.632   4.828   1.085 -0.8290 -0.7056 -0.3580
  895SOL    HW113154   0.567   4.770   1.133 -0.9792  0.8453  1.3662
  895SOL    HW213155   0.725   4.803   1.110 -0.8978 -0.1202  0.5019
  896SOL     OW13156   2.310   2.905   1.729  0.4724  0.4420 -0.0549
  896SOL    HW113157   2.253   2.842   1.675 -0.6854  1.4570 -0.0360
  896SOL    HW213158   2.255   2.943   1.803  2.0966 -1.1064  2.0176
  897SOL     OW13159   1.625   6.309   1.740 -0.4780 -0.1114  0.0188
  897SOL    HW113160   1.656   6.302   1.645  0.0849 -0.8249  0.2404
  897SOL    HW213161   1.561   6.234   1.759 -1.3705  0.6208 -0.0769
  898SOL     OW13162   4.099   0.115   2.638 -0.1379 -0.5290 -0.0192
  898SOL    HW113163   4.194   0.144   2.647 -0.1954 -0.7068  1.2190
  898SOL    HW213164   4.080   0.042   2.703 -1.2820 -0.1055  0.1220
  899SOL     OW13165   0.288   7.908   1.844 -0.1636 -0.0700 -0.1872
  899SOL    HW113166   0.324   7.966   1.917 -2.0402  0.5969  0.2476
  899SOL    HW213167   0.363   7.862   1.798  1.1308  0.3618  1.4419
  900SOL     OW13168   8.223   0.294   2.619 -0.4540  0.2597  0.4514
  900SOL    HW113169   8.221   0.209   2.671  0.6139  0.0011  0.0909
  900SOL    HW213170   8.133   0.311   2.578 -0.5959 -0.8353  0.3073
  901SOL     OW13171   2.609   0.254   4.499 -0.3030  0.2512  0.4678
  901SOL    HW113172   2.689   0.292   4.546 -0.5171  0.5724  0.5770
  901SOL    HW213173   2.567   0.184   4.556  0.7137 -0.9175 -0.1876
  902SOL     OW13174   0.728   6.647   3.786 -0.2970  0.0762  0.6062
  902SOL    HW113175   0.647   6.596   3.758  0.3121 -0.4672 -0.1711
  902SOL    HW213176   0.708   6.745   3.784 -1.0584 -0.0711  0.8125
  903SOL     OW13177   3.965   2.617   0.810  0.0931 -0.6023  0.0723
  903SOL    HW113178   4.050   2.607   0.862  0.1303 -1.0782 -0.0720
  903SOL    HW213179   3.887   2.591   0.868 -0.0147  0.4393  0.4050
  904SOL     OW13180   2.163   8.626   1.709 -0.2512  0.1306  0.0871
  904SOL    HW113181   2.194   8.568   1.634  0.4352 -1.5168  1.6032
  904SOL    HW213182   2.149   8.719   1.676  1.0661 -0.3297 -1.8367
  905SOL     OW13183   1.030   0.551   0.244 -0.4511  0.0004  0.3665
  905SOL    HW113184   0.973   0.584   0.319  0.2868  1.1858  0.4174
  905SOL    HW213185   1.062   0.629   0.190 -0.1131 -0.7704 -0.5467
  906SOL     OW13186   1.494   1.696   3.030 -0.0223  0.0555  0.0973
  906SOL    HW113187   1.515   1.599   3.044 -1.5366 -0.0535  1.8359
  906SOL    HW213188   1.558   1.752   3.083 -0.9998 -0.1140  1.4895
  907SOL     OW13189   2.612   0.773   0.212 -0.3142  0.6303  0.2427
  907SOL    HW113190   2.547   0.815   0.149 -1.1596 -0.6878  0.2266
  907SOL    HW213191   2.615   0.674   0.196  3.4219  0.9283 -1.3820
  908SOL     OW13192   3.532   7.536   3.291 -0.0896 -0.4164 -1.1442
  908SOL    HW113193   3.451   7.548   3.347  0.6739  0.0872 -0.1221
  908SOL    HW213194   3.507   7.494   3.204 -1.6751  1.2119 -1.5068
  909SOL     OW13195   3.598   5.694   1.694 -0.3817  0.6173  0.1724
  909SOL    HW113196   3.611   5.693   1.595  0.2912 -0.5464  0.2659
  909SOL    HW213197   3.547   5.613   1.722 -0.9039  1.1377  0.7397
  910SOL     OW13198   7.407   8.632   4.206  0.4914  0.4009 -0.5155
  910SOL    HW113199   7.441   8.719   4.171  0.0020  0.4979 -0.7636
  910SOL    HW213200   7.434   8.559   4.144 -0.2781  0.5574 -1.0454
  911SOL     OW13201   0.889   3.257   4.156 -0.3143  0.0790  0.3400
  911SOL    HW113202   0.881   3.357   4.152  0.1790  0.1528  1.0799
  911SOL    HW213203   0.962   3.232   4.220  0.1866 -0.7314 -0.5269
  912SOL     OW13204   2.990   0.678   3.880 -0.0657 -0.1089 -0.1524
  912SOL    HW113205   3.005   0.627   3.795 -1.5481 -0.0529 -0.4661
  912SOL    HW213206   2.941   0.619   3.945  0.7436 -0.0296  0.5321
  913SOL     OW13207   0.852   2.959   3.099 -0.0762 -0.4127 -0.4011
  913SOL    HW113208   0.847   2.872   3.148 -0.1995 -1.6282 -2.5124
  913SOL    HW213209   0.823   2.945   3.005  0.3783  1.8347 -0.8866
  914SOL     OW13210   9.158   8.143   1.004  0.3192 -0.1403  0.3771
  914SOL    HW113211   9.177   8.119   1.100  3.2295 -0.0383 -0.1420
  914SOL    HW213212   9.062   8.125   0.984 -0.3255 -0.2519  3.2930
  915SOL     OW13213   2.053   1.562   2.375  0.4418  0.5802 -0.0070
  915SOL    HW113214   2.080   1.637   2.435 -0.7213 -1.0533  2.6367
  915SOL    HW213215   1.992   1.500   2.424  2.1409 -2.6461 -1.7991
  916SOL     OW13216   7.604   9.004   3.903 -0.5603 -0.6878 -0.4226
  916SOL    HW113217   7.644   9.073   3.964 -0.1158 -1.9115  0.6831
  916SOL    HW213218   7.670   8.932   3.886 -1.2985 -1.2522 -0.9453
  917SOL     OW13219   1.705   3.819   3.373 -0.1004 -0.2765  0.3689
  917SOL    HW113220   1.794   3.803   3.332 -0.7325 -0.8972 -0.7984
  917SOL    HW213221   1.633   3.787   3.310 -1.0886 -1.4783  2.0576
  918SOL     OW13222   9.202   0.014   3.836 -0.3749  0.0286 -0.0621
  918SOL    HW113223   9.221   0.108   3.866 -1.9881  0.8074 -1.3934
  918SOL    HW213224   9.104  -0.004   3.844 -0.0753 -1.5160  0.1204
  919SOL     OW13225   4.667   9.391   2.442 -0.2946  0.0045  0.3109
  919SOL    HW113226   4.598   9.346   2.386 -0.3501 -1.0496  1.2147
  919SOL    HW213227   4.694   9.478   2.399 -0.7113 -0.5384 -1.0661
  920SOL     OW13228   1.112   5.028   0.220 -0.1248  0.2211  0.7727
  920SOL    HW113229   1.197   5.073   0.247 -0.5381  0.9221  0.9298
  920SOL    HW213230   1.100   5.038   0.121 -0.6777  1.3002  0.9307
  921SOL     OW13231   3.116   8.031   4.129  0.5599 -0.0722  0.4363
  921SOL    HW113232   3.155   8.100   4.068  0.5084  1.4461  2.1186
  921SOL    HW213233   3.048   8.073   4.189 -0.2831 -1.8061  0.7350
  922SOL     OW13234   9.252   6.041   0.170  0.2941 -0.1734 -0.3626
  922SOL    HW113235   9.306   6.093   0.236  1.3039 -0.2032 -1.1526
  922SOL    HW213236   9.170   6.093   0.145  0.7924  0.5979 -0.3915
  923SOL     OW13237   2.921   8.147   1.224  0.4634 -0.0151 -0.0132
  923SOL    HW113238   2.855   8.110   1.158  0.4171 -0.8608  0.5053
  923SOL    HW213239   3.002   8.089   1.227  0.5166  0.0857  0.5963
  924SOL     OW13240   9.722   8.316   2.350 -0.5730 -0.0467 -0.3500
  924SOL    HW113241   9.738   8.410   2.381 -0.4387 -0.2370  0.1716
  924SOL    HW213242   9.746   8.307   2.254  0.9913  0.0572  0.0198
  925SOL     OW13243   2.397   8.206   2.484 -0.3335 -0.3773  0.2962
  925SOL    HW113244   2.412   8.201   2.583 -1.8961 -1.0488  0.5262
  925SOL    HW213245   2.359   8.295   2.461 -0.2160 -0.3136  0.3478
  926SOL     OW13246   1.636   4.202   1.887  0.5507  0.0111  0.6677
  926SOL    HW113247   1.667   4.294   1.861  0.2597  0.2050  1.0045
  926SOL    HW213248   1.582   4.163   1.813  0.9278 -0.0070  0.4015
  927SOL     OW13249   3.755   1.320   3.777  0.5739 -0.0586  0.2417
  927SOL    HW113250   3.820   1.245   3.785  0.1075 -0.5489 -0.4317
  927SOL    HW213251   3.667   1.292   3.816 -0.0083 -0.3806 -1.2676
  928SOL     OW13252   9.997   4.636   0.426 -0.5963 -0.3562  0.1238
  928SOL    HW113253  10.060   4.633   0.503 -0.6141 -0.2906  0.1410
  928SOL    HW213254   9.989   4.545   0.386 -0.6601 -0.4078  0.2569
  929SOL     OW13255   1.209   3.603   2.868 -0.6485  0.3632 -0.0972
  929SOL    HW113256   1.272   3.603   2.790  0.4152  0.4901  0.7404
  929SOL    HW213257   1.135   3.668   2.851  0.5340  1.6914 -0.2540
  930SOL     OW13258   2.855   1.441   0.083 -0.5264  0.3901  0.0709
  930SOL    HW113259   2.901   1.514   0.135 -0.6716  0.0217  0.7188
  930SOL    HW213260   2.918   1.405   0.014  0.3562 -0.4727  1.3008
  931SOL     OW13261   4.952   9.728   4.280  0.4146  0.1826  0.0191
  931SOL    HW113262   4.967   9.796   4.352 -0.3509  1.1638 -0.7315
  931SOL    HW213263   4.855   9.728   4.255  0.4587 -1.0283 -0.1492
  932SOL     OW13264   9.558   0.133   0.240 -0.6378  0.1445 -0.0358
  932SOL    HW113265   9.639   0.167   0.287  1.2804 -0.8288 -2.5072
  932SOL    HW213266   9.538   0.191   0.161 -0.9903 -0.9077 -0.7326
  933SOL     OW13267   2.451   8.216   2.746 -0.2035  0.1758  0.1425
  933SOL    HW113268   2.533   8.163   2.722 -1.8979 -1.0437 -3.2733
  933SOL    HW213269   2.478   8.294   2.802  3.0219 -1.3569  0.8829
  934SOL     OW13270   6.806   8.117   3.140  0.0571 -0.0855  0.5960
  934SOL    HW113271   6.826   8.213   3.155  1.1721 -0.5446  2.1519
  934SOL    HW213272   6.723   8.092   3.190 -1.1896  0.4476 -1.1684
  935SOL     OW13273   2.615   3.851   0.203  0.3532 -0.1996  0.2172
  935SOL    HW113274   2.602   3.794   0.284  0.6776 -0.8542 -0.1827
  935SOL    HW213275   2.583   3.944   0.222 -0.1275 -0.4958  0.8976
  936SOL     OW13276   2.657   3.459   1.476 -0.4805 -0.0573 -0.2683
  936SOL    HW113277   2.629   3.493   1.386 -1.0054 -0.6263 -0.3258
  936SOL    HW213278   2.751   3.427   1.472 -0.9512 -1.3564 -0.9696
  937SOL     OW13279   8.034   7.787   3.603  0.6751  0.5886 -0.0477
  937SOL    HW113280   7.981   7.864   3.640  1.8676  0.9213  0.9949
  937SOL    HW213281   7.998   7.701   3.640 -0.7198  0.6213 -1.2849
  938SOL     OW13282   2.546   0.847   3.189 -0.2990  0.3928 -0.3446
  938SOL    HW113283   2.530   0.897   3.104  2.9193  1.2021 -0.5277
  938SOL    HW213284   2.562   0.911   3.264 -1.4039 -0.3473  0.5493
  939SOL     OW13285   4.894   9.451   4.264  0.2984  0.3577 -0.0781
  939SOL    HW113286   4.872   9.428   4.359 -2.6202  1.8510 -0.3410
  939SOL    HW213287   4.922   9.546   4.259  0.3638  0.3043 -0.7361
  940SOL     OW13288   0.860   0.366   3.179 -0.6288 -0.3521  0.2368
  940SOL    HW113289   0.778   0.312   3.200 -0.2311 -0.0119  2.8176
  940SOL    HW213290   0.941   0.315   3.206 -0.1600  0.7388  0.9263
  941SOL     OW13291   7.762   9.969   1.740  0.5529 -0.9584  0.1876
  941SOL    HW113292   7.712  10.053   1.759  0.7346  0.0515 -3.4115
  941SOL    HW213293   7.699   9.900   1.704  1.0941 -0.8918 -0.9214
  942SOL     OW13294   3.361   3.346   4.320 -0.4966  0.1190 -0.3143
  942SOL    HW113295   3.430   3.316   4.386 -0.2375 -0.6231 -0.9144
  942SOL    HW213296   3.376   3.300   4.232 -1.2831  0.5380 -0.6771
  943SOL     OW13297   8.246   9.569   1.926 -0.2833 -0.6444  0.4843
  943SOL    HW113298   8.303   9.595   2.004 -0.8302  4.4301 -0.6362
  943SOL    HW213299   8.150   9.576   1.952 -0.4552 -0.8685 -0.0900
  944SOL     OW13300   1.680   8.075   3.360  0.1612  0.2131  0.1002
  944SOL    HW113301   1.686   8.005   3.431  2.4447  0.6461  0.3673
  944SOL    HW213302   1.584   8.099   3.345 -0.7429 -3.5938 -0.6332
  945SOL     OW13303   2.003   8.961   1.531  0.0039 -0.0608  0.1129
  945SOL    HW113304   2.028   9.053   1.501  0.9831 -0.1361  0.6674
  945SOL    HW213305   1.935   8.922   1.469 -0.2170  0.9348 -0.2734
  946SOL     OW13306   0.953   7.614   1.166  0.4750 -0.3921 -0.4507
  946SOL    HW113307   1.040   7.598   1.119 -0.4376 -1.5326 -1.7720
  946SOL    HW213308   0.961   7.584   1.261  2.6411  2.8360  0.4918
  947SOL     OW13309   7.900   8.015   3.703  0.0045  0.1212 -0.0102
  947SOL    HW113310   7.978   8.077   3.705 -0.5632  0.8489 -0.0356
  947SOL    HW213311   7.816   8.068   3.689 -0.2641 -0.8620 -2.3875
  948SOL     OW13312   0.486   4.528   0.116 -0.0937 -0.1612 -0.0957
  948SOL    HW113313   0.553   4.502   0.047  0.1665 -0.2550  0.1932
  948SOL    HW213314   0.410   4.462   0.114  0.4564 -0.8314  0.4787
  949SOL     OW13315   2.039   0.654   3.587  0.3827  0.2814 -0.0232
  949SOL    HW113316   1.965   0.620   3.644 -0.0631 -0.9441 -1.3159
  949SOL    HW213317   2.074   0.740   3.626 -3.0693  2.0026 -0.5333
  950SOL     OW13318   9.542   5.740   3.741 -0.9122 -0.1920  0.1137
  950SOL    HW113319   9.554   5.791   3.656 -0.4366  0.1287  0.3717
  950SOL    HW213320   9.445   5.740   3.766 -0.8970  0.7154  0.1868
  951SOL     OW13321   2.998   3.985   1.614  0.5905  0.1558 -0.2652
  951SOL    HW113322   2.943   4.041   1.677  1.0393 -0.2921  0.5388
  951SOL    HW213323   3.090   3.974   1.652  0.8521 -0.1498 -0.9915
  952SOL     OW13324   3.223   8.175   3.679 -0.0417 -0.3037  0.2201
  952SOL    HW113325   3.130   8.160   3.646  0.6518  0.9346 -2.4037
  952SOL    HW213326   3.288   8.152   3.606  1.6075  0.8480  1.3009
  953SOL     OW13327   2.893   2.056   1.879  1.0131 -0.0858  0.5782
  953SOL    HW113328   2.860   2.150   1.874  0.3360 -0.3200  0.5051
  953SOL    HW213329   2.908   2.031   1.975  0.9394  0.0094  0.6143
  954SOL     OW13330   0.642   0.580   3.517 -0.5709 -0.2985 -0.0469
  954SOL    HW113331   0.556   0.535   3.490 -1.0247  1.9399 -2.5974
  954SOL    HW213332   0.698   0.595   3.436  1.2503  0.2600  1.2957
  955SOL     OW13333   8.436   6.078   0.215  0.2816 -0.2628  0.0411
  955SOL    HW113334   8.363   6.139   0.247  0.6750 -0.5850  1.6162
  955SOL    HW213335   8.427   6.064   0.116 -2.3505 -1.0187  0.3444
  956SOL     OW13336   3.859   3.313   0.917  0.5616 -0.2040 -0.1619
  956SOL    HW113337   3.936   3.348   0.864  0.3452  0.3804 -0.0976
  956SOL    HW213338   3.893   3.267   0.999  0.7945  1.1774  0.5300
  957SOL     OW13339   2.633   7.582   3.274  0.5432  0.6372 -0.3389
  957SOL    HW113340   2.679   7.632   3.347  0.7381  0.3921 -0.2910
  957SOL    HW213341   2.617   7.643   3.196  0.3614  0.8901 -0.1050
  958SOL     OW13342   2.621   3.227   2.987 -0.1333 -0.1414  0.0805
  958SOL    HW113343   2.583   3.279   2.910  0.9029  2.6863  1.3972
  958SOL    HW213344   2.683   3.157   2.952  0.5079  1.2551 -1.6725
  959SOL     OW13345   2.674   7.806   3.665 -0.1953  0.0679 -0.1369
  959SOL    HW113346   2.743   7.840   3.728  0.6216  0.0027 -0.9858
  959SOL    HW213347   2.666   7.869   3.587  0.4135 -1.0002 -1.0797
  960SOL     OW13348   5.303   0.422   2.360  0.3466 -0.2219 -0.6460
  960SOL    HW113349   5.396   0.431   2.325  1.2324  0.1611  1.6851
  960SOL    HW213350   5.253   0.507   2.344  0.6374 -0.1627 -1.2509
  961SOL     OW13351   3.428   1.945   3.624  0.0319  0.4289 -0.8622
  961SOL    HW113352   3.373   1.861   3.625 -0.6901  0.8986  0.5846
  961SOL    HW213353   3.398   2.005   3.699  0.9997  1.6783 -1.4668
  962SOL     OW13354   9.262   6.970   3.928  0.7970 -0.2327  0.0172
  962SOL    HW113355   9.293   7.040   3.992 -0.8584  0.1652  0.4187
  962SOL    HW213356   9.169   6.942   3.952  0.1035  0.0050 -2.2877
  963SOL     OW13357   7.049   9.713   3.376  0.8692 -0.4825 -0.3817
  963SOL    HW113358   7.124   9.674   3.323  1.1254 -0.3743 -0.0988
  963SOL    HW213359   7.085   9.778   3.443  0.2802  1.8438 -2.2585
  964SOL     OW13360   1.900   2.455   2.297 -0.5131  0.6862  0.0591
  964SOL    HW113361   1.892   2.379   2.233 -1.4518 -0.5314  1.5925
  964SOL    HW213362   1.852   2.535   2.260 -0.2299  0.2941 -1.1804
  965SOL     OW13363   3.465   4.763   0.788  0.6776  0.4273 -0.5506
  965SOL    HW113364   3.551   4.745   0.836  0.5042 -0.6401 -0.6317
  965SOL    HW213365   3.430   4.678   0.749 -0.1489  0.9516 -0.9691
  966SOL     OW13366   2.033   6.602   4.000  0.4846  0.1482  0.3826
  966SOL    HW113367   2.022   6.679   4.062 -0.1957  0.3324  0.0464
  966SOL    HW213368   2.129   6.591   3.977  0.5172  1.3299 -0.1032
  967SOL     OW13369   7.493   7.858   3.097  0.0365  0.2758 -0.6031
  967SOL    HW113370   7.400   7.876   3.130 -0.0693 -0.5960 -0.4300
  967SOL    HW213371   7.539   7.945   3.080 -0.4623  0.7258  0.2961
  968SOL     OW13372   4.274   6.944   2.601 -0.3030 -0.4069  0.0509
  968SOL    HW113373   4.207   6.874   2.574 -0.4417  0.4210 -1.7784
  968SOL    HW213374   4.237   7.034   2.581  1.9267  0.0158 -2.2323
  969SOL     OW13375   7.247   7.403   3.164 -0.0848 -0.1771  0.4041
  969SOL    HW113376   7.321   7.367   3.220 -0.4619 -2.1940 -0.3445
  969SOL    HW213377   7.230   7.341   3.087 -0.9702  1.4653 -0.7532
  970SOL     OW13378   3.288   4.486   0.759  0.2926 -0.2165 -0.3492
  970SOL    HW113379   3.335   4.424   0.697  0.8665 -0.2679  0.1311
  970SOL    HW213380   3.237   4.554   0.706  0.8378 -0.2142 -0.8703
  971SOL     OW13381   9.682   7.712   1.801  0.1669 -0.2903  0.1688
  971SOL    HW113382   9.652   7.619   1.779 -0.9264  0.0667  0.1207
  971SOL    HW213383   9.686   7.766   1.718 -2.3685  0.6007  0.5769
  972SOL     OW13384   0.647   0.165   3.594 -0.4488 -0.0878  0.4436
  972SOL    HW113385   0.707   0.236   3.630  1.4420 -0.9114 -0.9771
  972SOL    HW213386   0.663   0.080   3.644  0.2442 -0.5365 -0.5171
  973SOL     OW13387   2.925   3.758   1.894  0.0424  0.1004  0.6907
  973SOL    HW113388   2.930   3.666   1.857 -1.5516  0.6223 -0.9285
  973SOL    HW213389   2.830   3.778   1.920  0.1680  1.6312  0.0412
  974SOL     OW13390   4.200   3.775   3.549  0.0446  0.0647 -0.3340
  974SOL    HW113391   4.192   3.677   3.531  1.0539 -0.0665 -0.1212
  974SOL    HW213392   4.215   3.823   3.463  1.3201 -0.1729 -0.2605
  975SOL     OW13393   2.696   6.185   2.237 -0.3184 -0.0904  0.4776
  975SOL    HW113394   2.733   6.234   2.316  0.0836  0.2537  0.0840
  975SOL    HW213395   2.647   6.250   2.178  0.0758 -0.1852  0.0374
  976SOL     OW13396   5.404   9.313   3.139  0.1672 -0.4965  0.1138
  976SOL    HW113397   5.342   9.329   3.062  1.5853 -0.5493 -1.0702
  976SOL    HW213398   5.352   9.287   3.220 -1.5461  1.8700 -0.1795
  977SOL     OW13399   3.760   8.503   0.135  0.5770 -0.3399  0.4482
  977SOL    HW113400   3.831   8.503   0.065  0.9183 -1.3504  0.7967
  977SOL    HW213401   3.774   8.426   0.197 -0.5116 -0.2329  0.8309
  978SOL     OW13402   3.365   6.132   3.817 -0.2889 -0.3394  0.4338
  978SOL    HW113403   3.350   6.103   3.912 -0.6391  0.2358  0.5619
  978SOL    HW213404   3.337   6.228   3.808 -3.0860 -1.2362 -0.9571
  979SOL     OW13405   5.218   8.562   2.424  0.3398  0.1399 -0.0079
  979SOL    HW113406   5.302   8.507   2.420  0.3068  0.2497 -2.8954
  979SOL    HW213407   5.142   8.509   2.386 -0.1974  1.3065 -0.5699
  980SOL     OW13408   1.024   8.447   2.694  0.2201 -0.1120  0.0197
  980SOL    HW113409   1.115   8.454   2.653  0.0832  0.3412 -0.2057
  980SOL    HW213410   1.023   8.496   2.781  0.3926 -0.7206  0.3684
  981SOL     OW13411   1.137   3.210   3.798  0.0460 -0.0207  0.1043
  981SOL    HW113412   1.170   3.128   3.751  1.1709  0.1628  0.5395
  981SOL    HW213413   1.122   3.282   3.732  0.2664 -0.1992 -0.1437
  982SOL     OW13414   1.588   6.691   4.659 -0.5417 -0.2260 -0.0715
  982SOL    HW113415   1.631   6.676   4.749  0.6089  2.2326 -0.1594
  982SOL    HW213416   1.534   6.775   4.662 -0.0046  0.1936 -1.8446
  983SOL     OW13417   0.213   1.594   1.041 -0.1108  0.3340 -0.0523
  983SOL    HW113418   0.254   1.643   0.964 -0.1988  1.0408  0.3403
  983SOL    HW213419   0.114   1.613   1.043 -0.2279 -0.2545 -0.1855
  984SOL     OW13420   8.594   7.850   0.767  0.2487 -0.3138  0.5070
  984SOL    HW113421   8.630   7.944   0.774  1.3368 -0.8007  1.6736
  984SOL    HW213422   8.561   7.834   0.674 -0.9043  1.5632  0.5591
  985SOL     OW13423   0.267   4.755   4.146 -0.1652 -0.4282  0.4825
  985SOL    HW113424   0.185   4.753   4.088  0.8334 -0.0327 -0.9775
  985SOL    HW213425   0.265   4.677   4.208 -1.0747 -1.1055 -0.3642
  986SOL     OW13426   7.475   9.705   4.373 -0.4993  0.3475 -0.4707
  986SOL    HW113427   7.420   9.632   4.413 -2.5747  1.7290 -0.7038
  986SOL    HW213428   7.479   9.694   4.273 -0.9825  0.6376 -0.5262
  987SOL     OW13429   2.926   0.575   2.464  0.6542 -0.7282  0.7977
  987SOL    HW113430   3.019   0.606   2.446 -0.2153  0.9140 -1.1885
  987SOL    HW213431   2.876   0.647   2.513 -0.8705  0.3686 -2.2377
  988SOL     OW13432   2.099   5.280   0.520  0.2798 -0.0624 -0.8549
  988SOL    HW113433   2.101   5.378   0.504 -1.4078 -0.0551 -1.1214
  988SOL    HW213434   2.074   5.262   0.615 -1.1029 -0.2248 -1.2254
  989SOL     OW13435   1.878   5.580   4.267  0.1842 -0.4163 -0.6178
  989SOL    HW113436   1.931   5.496   4.253 -1.3182 -1.1842 -1.9242
  989SOL    HW213437   1.865   5.626   4.179 -1.4659 -0.3583 -0.3711
  990SOL     OW13438   8.788   0.033   2.350  0.0195 -0.1325  0.1027
  990SOL    HW113439   8.799   0.013   2.448  1.8417 -1.4122 -0.3465
  990SOL    HW213440   8.702  -0.007   2.318  0.5689 -1.8038  0.6501
  991SOL     OW13441   4.598   2.728   1.963  0.1172 -0.3834  0.8519
  991SOL    HW113442   4.609   2.660   2.035  1.2459 -0.0223  1.0384
  991SOL    HW213443   4.683   2.734   1.910  0.0082  0.8219  0.7983
  992SOL     OW13444   3.909   7.257   1.627 -0.1710 -0.5955  0.1784
  992SOL    HW113445   3.909   7.304   1.715  0.3651  0.4657 -0.3762
  992SOL    HW213446   3.996   7.275   1.580  0.2603 -2.5992  0.1941
  993SOL     OW13447   3.007   1.702   0.170 -0.1633 -0.6355 -0.4445
  993SOL    HW113448   2.941   1.756   0.223 -0.1030 -0.2830 -0.7249
  993SOL    HW213449   3.076   1.763   0.131  0.3215 -0.9994 -0.1699
  994SOL     OW13450   0.959   0.912   3.913 -0.1352 -0.2750 -0.3131
  994SOL    HW113451   1.022   0.984   3.941 -1.0553  0.8880 -1.1829
  994SOL    HW213452   0.874   0.952   3.882 -1.0997 -1.8046  0.2728
  995SOL     OW13453   7.835   9.237   4.723 -0.5367 -1.0457  0.7893
  995SOL    HW113454   7.752   9.196   4.687  0.2046 -1.6849 -0.2126
  995SOL    HW213455   7.887   9.168   4.774  0.8018 -1.4230 -1.0497
  996SOL     OW13456   2.787   3.205   3.832  0.0367  0.4302  0.1196
  996SOL    HW113457   2.712   3.138   3.826  1.2879 -0.8469 -1.9352
  996SOL    HW213458   2.754   3.294   3.801 -1.0900  0.2793  0.8595
  997SOL     OW13459   8.443   0.153   1.724  0.3606 -0.0931 -0.0448
  997SOL    HW113460   8.467   0.095   1.646  0.7749  0.4470 -0.3215
  997SOL    HW213461   8.344   0.167   1.726  0.3635 -0.0071 -0.5423
  998SOL     OW13462   2.922   1.546   1.490 -0.6001 -0.0748  0.2971
  998SOL    HW113463   2.876   1.577   1.407 -2.0980 -1.8884  0.4429
  998SOL    HW213464   2.863   1.561   1.569  0.2907  0.4165  0.8805
  999SOL     OW13465   1.687   2.567   1.476 -0.1268 -0.4546 -0.3411
  999SOL    HW113466   1.615   2.502   1.501 -1.3556  1.1007  0.2072
  999SOL    HW213467   1.756   2.571   1.549 -0.0184 -1.1706 -0.4012
 1000SOL     OW13468   8.492   0.013   1.499  0.0792 -0.9692 -0.0485
 1000SOL    HW113469   8.506   0.091   1.438 -0.3010 -1.9446 -1.4021
 1000SOL    HW213470   8.567  -0.052   1.487  0.0244 -1.1437  0.5547
 1001SOL     OW13471   9.007   0.103   3.238  0.2072 -0.2268 -0.4505
 1001SOL    HW113472   8.987   0.121   3.334  0.4031 -1.1144 -0.2459
 1001SOL    HW213473   8.997   0.006   3.219  1.1889 -0.2160 -1.0858
 1002SOL     OW13474   2.767   7.265   1.542  0.8235  0.5775 -0.5544
 1002SOL    HW113475   2.700   7.311   1.599 -0.6965  0.9850 -2.6260
 1002SOL    HW213476   2.838   7.225   1.600 -1.4655 -0.3392  1.7249
 1003SOL     OW13477   9.733   7.921   0.753 -0.0559 -0.7253  0.2818
 1003SOL    HW113478   9.743   7.893   0.849  0.3005 -1.4855  0.0271
 1003SOL    HW213479   9.699   8.015   0.749  0.4716 -0.4939  1.1556
 1004SOL     OW13480   8.587   7.976   1.162  0.0063  0.3727 -0.5550
 1004SOL    HW113481   8.601   8.044   1.234  0.2537 -1.6861  1.4070
 1004SOL    HW213482   8.676   7.948   1.125 -0.1805  2.4824 -2.7449
 1005SOL     OW13483   3.859   8.166   1.225 -0.7106  0.6161  0.3110
 1005SOL    HW113484   3.834   8.231   1.152 -1.1205  1.2364  0.9866
 1005SOL    HW213485   3.775   8.136   1.271 -0.5147 -0.3844  0.0151
 1006SOL     OW13486   1.306   8.839   4.248 -0.5024 -0.2363 -0.2096
 1006SOL    HW113487   1.218   8.884   4.264 -1.4937 -1.7475 -1.2207
 1006SOL    HW213488   1.292   8.740   4.247  1.4703 -0.5403  1.0076
 1007SOL     OW13489   1.274   9.537   2.318 -0.5771  0.2457 -0.1058
 1007SOL    HW113490   1.260   9.438   2.327 -0.3394  0.1615 -0.6245
 1007SOL    HW213491   1.187   9.580   2.292 -0.7184  0.1910  0.2839
 1008SOL     OW13492   8.194   0.513   2.258  0.2667  0.5244 -0.0534
 1008SOL    HW113493   8.290   0.488   2.251 -0.3548 -1.1985 -3.0204
 1008SOL    HW213494   8.148   0.452   2.323  0.8465  0.3847  0.2282
 1009SOL     OW13495   8.338   9.244   2.508 -0.2977  0.6422 -0.3833
 1009SOL    HW113496   8.425   9.197   2.493  0.2170  1.7642 -0.9270
 1009SOL    HW213497   8.287   9.197   2.580  1.1015  0.4415  0.4958
 1010SOL     OW13498   3.823   3.080   1.366  0.0634 -0.1889 -0.5351
 1010SOL    HW113499   3.834   2.984   1.339 -0.3551 -0.0616 -1.1809
 1010SOL    HW213500   3.899   3.134   1.329  0.7285 -0.3994  0.5005
 1011SOL     OW13501   2.048   2.099   1.152 -0.3145  0.1114 -0.2864
 1011SOL    HW113502   2.113   2.169   1.180 -0.5771  0.1833  0.1524
 1011SOL    HW213503   1.993   2.072   1.230  0.7484 -1.6230 -0.1206
 1012SOL     OW13504   4.669   7.260   2.124  0.6465 -0.0118  0.7673
 1012SOL    HW113505   4.681   7.254   2.223 -0.2316  0.2685  0.8950
 1012SOL    HW213506   4.618   7.180   2.092 -0.2740  0.5820  0.7363
 1013SOL     OW13507   1.751   9.965   4.258  0.4125 -0.0847 -0.0322
 1013SOL    HW113508   1.653   9.971   4.243  0.0604  1.3483  2.5339
 1013SOL    HW213509   1.783   9.872   4.242 -1.3057 -0.5020 -1.0912
 1014SOL     OW13510   9.057   5.330   0.146  0.3483  0.5915 -0.0394
 1014SOL    HW113511   9.073   5.235   0.174  0.1390 -0.1141 -2.2041
 1014SOL    HW213512   8.959   5.349   0.149  0.2460  0.2464 -1.0967
 1015SOL     OW13513   6.890   9.054   2.405  0.6446 -0.1369 -0.0365
 1015SOL    HW113514   6.908   9.004   2.489 -1.8463 -0.0988  0.5598
 1015SOL    HW213515   6.806   9.107   2.416  1.8960  2.2205 -1.5161
 1016SOL     OW13516   9.287   7.285   1.149  0.1787 -0.1870  0.3015
 1016SOL    HW113517   9.302   7.249   1.057  1.2969 -1.0734  0.8220
 1016SOL    HW213518   9.248   7.214   1.207  0.9883 -0.1251  0.9330
 1017SOL     OW13519   8.846   6.688   2.777  0.4850 -0.3989  0.0791
 1017SOL    HW113520   8.799   6.776   2.765 -0.1576 -0.5808  1.1497
 1017SOL    HW213521   8.943   6.698   2.755  0.3851  0.5423  0.0608
 1018SOL     OW13522   7.229   8.655   1.892  0.3210  0.0147  0.2253
 1018SOL    HW113523   7.303   8.623   1.832  0.3254 -0.8353  0.6763
 1018SOL    HW213524   7.180   8.577   1.930 -1.2823  0.5777 -0.6305
 1019SOL     OW13525   3.829   2.520   1.055  0.0396  0.1549 -0.1472
 1019SOL    HW113526   3.888   2.575   1.114  1.5392 -0.5811 -0.9286
 1019SOL    HW213527   3.744   2.500   1.102  1.0785 -0.1464  1.6375
 1020SOL     OW13528   9.305   8.727   1.681 -0.1117  0.7077  0.0535
 1020SOL    HW113529   9.270   8.687   1.766  0.0671  2.1304  0.8228
 1020SOL    HW213530   9.396   8.690   1.662 -0.7542 -0.7166 -0.3180
 1021SOL     OW13531   8.895   6.439   4.253  0.1717 -0.3015  0.1837
 1021SOL    HW113532   8.893   6.522   4.308 -1.3366  1.2215 -2.0744
 1021SOL    HW213533   8.911   6.463   4.157 -0.8030 -2.5631 -0.5713
 1022SOL     OW13534   2.465   5.050   0.253  0.1619 -0.0623 -0.2405
 1022SOL    HW113535   2.515   5.117   0.197 -0.3094  0.2853 -0.2491
 1022SOL    HW213536   2.410   5.098   0.321  1.2146 -0.5069  0.9386
 1023SOL     OW13537   0.811   3.335   2.288 -0.2064 -0.3916 -0.6963
 1023SOL    HW113538   0.817   3.334   2.188  0.6332 -1.5625 -0.6426
 1023SOL    HW213539   0.885   3.280   2.327  1.7988  3.0834  0.6977
 1024SOL     OW13540   1.306   8.580   4.153  0.5677 -0.4081 -0.1485
 1024SOL    HW113541   1.216   8.539   4.139  0.2767  0.3324 -0.4975
 1024SOL    HW213542   1.353   8.587   4.065  0.6771 -0.1429 -0.0683
 1025SOL     OW13543   4.403   1.971   2.624 -0.0886 -0.2557 -0.1065
 1025SOL    HW113544   4.426   2.067   2.613 -0.9811 -0.0280 -0.0359
 1025SOL    HW213545   4.416   1.923   2.537  0.7711 -0.1677 -0.0304
 1026SOL     OW13546   3.591   3.365   0.152  0.2641 -0.1788 -0.2358
 1026SOL    HW113547   3.569   3.268   0.151  0.8665 -0.3189 -0.1828
 1026SOL    HW213548   3.599   3.399   0.058  0.1058 -0.1877 -0.2535
 1027SOL     OW13549   8.444   8.252   3.501  0.2066  0.0261  0.0344
 1027SOL    HW113550   8.493   8.331   3.463 -1.0925  0.6238 -0.4525
 1027SOL    HW213551   8.501   8.206   3.569  1.1193  1.1846  0.0657
 1028SOL     OW13552   3.289   4.228   4.397 -0.1871 -0.4759  0.2152
 1028SOL    HW113553   3.379   4.203   4.362  0.2637 -0.6060  1.4519
 1028SOL    HW213554   3.218   4.186   4.340  0.5443 -1.3807 -0.0360
 1029SOL     OW13555   2.797   7.277   4.755  0.2843  0.2155  0.0803
 1029SOL    HW113556   2.715   7.312   4.801 -0.2395 -0.5675 -0.2392
 1029SOL    HW213557   2.794   7.177   4.754  0.2459  0.2139 -1.7150
 1030SOL     OW13558   9.524   5.091   3.924 -0.3978 -0.5353  0.3181
 1030SOL    HW113559   9.587   5.018   3.898 -1.1398 -2.1612  2.8513
 1030SOL    HW213560   9.432   5.068   3.892 -0.1129  0.8614 -1.6151
 1031SOL     OW13561   2.359   5.147   0.914  0.2601  0.5119 -0.7150
 1031SOL    HW113562   2.402   5.227   0.956  0.6022 -0.7717  1.4452
 1031SOL    HW213563   2.427   5.097   0.861  0.1831  1.3102 -1.5813
 1032SOL     OW13564   4.481   0.881   3.428 -0.1962 -0.2419 -0.4283
 1032SOL    HW113565   4.519   0.970   3.405 -0.4514 -0.2667 -0.9459
 1032SOL    HW213566   4.400   0.893   3.486  2.2697 -0.2720  3.1481
 1033SOL     OW13567   1.752   1.388   3.815  0.8596 -0.0244  0.3255
 1033SOL    HW113568   1.817   1.325   3.771  0.4173  0.7524 -1.4584
 1033SOL    HW213569   1.715   1.451   3.747 -2.8598 -1.3638  1.0259
 1034SOL     OW13570   2.314   3.015   0.622  0.5215 -0.6364  0.3443
 1034SOL    HW113571   2.388   3.078   0.644  0.5733 -0.7934  0.6148
 1034SOL    HW213572   2.347   2.921   0.626 -0.0992 -0.8026  2.1079
 1035SOL     OW13573   4.543   9.229   3.512 -0.5054  0.0428  0.2682
 1035SOL    HW113574   4.581   9.304   3.566  0.7912  0.3105 -0.9692
 1035SOL    HW213575   4.471   9.184   3.564 -0.3681  1.2780  1.5786
 1036SOL     OW13576   1.974   3.509   1.334  0.1486  0.3334 -0.2910
 1036SOL    HW113577   1.939   3.447   1.264 -2.5153  1.8602 -0.3766
 1036SOL    HW213578   1.966   3.465   1.424  0.5644 -0.4027 -0.6165
 1037SOL     OW13579   0.985   6.312   3.019  0.6488  0.4032 -0.1205
 1037SOL    HW113580   1.015   6.233   3.072  0.0119  0.7338  0.7402
 1037SOL    HW213581   0.895   6.292   2.978  0.6313  0.5646 -0.1604
 1038SOL     OW13582   2.847   0.907   0.518 -0.3452  0.5850 -0.0064
 1038SOL    HW113583   2.765   0.866   0.479 -1.4049  3.1544 -0.5499
 1038SOL    HW213584   2.846   0.895   0.617 -1.1308  0.2098 -0.0550
 1039SOL     OW13585   7.908   8.280   0.611  0.2446  0.1695 -0.0103
 1039SOL    HW113586   7.877   8.211   0.546  3.8216 -1.2404 -0.2837
 1039SOL    HW213587   7.905   8.242   0.704 -1.4513  0.9987  0.3058
 1040SOL     OW13588   1.899   5.787   2.457  0.3353  0.0844  0.5850
 1040SOL    HW113589   1.877   5.720   2.528 -1.2932  0.5782  0.5619
 1040SOL    HW213590   1.855   5.874   2.479  0.3577  0.4276 -0.6957
 1041SOL     OW13591   9.400   1.016   2.762 -0.0770  0.3166  0.3588
 1041SOL    HW113592   9.400   0.989   2.665 -0.5037  0.4480  0.3214
 1041SOL    HW213593   9.406   0.934   2.819 -0.6520  0.1922  0.2369
 1042SOL     OW13594   4.035   7.843   1.851  0.0728 -0.1071 -0.2104
 1042SOL    HW113595   4.118   7.819   1.900  0.0868  0.5106  0.0770
 1042SOL    HW213596   4.057   7.911   1.781 -0.2860  0.4694  0.2382
 1043SOL     OW13597   2.195   7.570   1.047  0.1168 -0.0472 -0.0518
 1043SOL    HW113598   2.219   7.502   0.977  1.9308  0.6968 -0.1952
 1043SOL    HW213599   2.176   7.524   1.133 -2.0810 -0.9726 -1.0015
 1044SOL     OW13600   9.370   5.818   1.559  0.0138  0.0525  0.2595
 1044SOL    HW113601   9.414   5.900   1.525 -0.3001 -0.0029 -0.2873
 1044SOL    HW213602   9.439   5.751   1.585  0.2824  0.6791  1.1840
 1045SOL     OW13603   5.104   2.140   1.956 -0.1239 -0.7000  0.2467
 1045SOL    HW113604   5.045   2.216   1.928  2.3214  0.8358 -0.9502
 1045SOL    HW213605   5.102   2.069   1.886 -0.3304 -0.5083  0.0554
 1046SOL     OW13606   4.021   2.083   0.245  0.5605  0.8688 -0.8005
 1046SOL    HW113607   4.022   2.076   0.145 -1.5615 -0.5904 -0.7656
 1046SOL    HW213608   3.996   2.176   0.271  1.6951  1.4097 -1.6137
 1047SOL     OW13609   1.048   5.517   0.798  0.6150  0.4220  0.2036
 1047SOL    HW113610   1.147   5.525   0.813  0.3170 -0.3578  2.8818
 1047SOL    HW213611   1.011   5.606   0.770  2.0942  0.6496 -1.1410
 1048SOL     OW13612   2.645   0.796   2.740  0.4731 -0.2343 -0.3008
 1048SOL    HW113613   2.608   0.738   2.814 -0.3294 -1.0981 -1.3661
 1048SOL    HW213614   2.744   0.791   2.740  0.4127 -1.4480 -0.2447
 1049SOL     OW13615   5.432   6.767   2.546 -0.2842  0.2647 -0.3340
 1049SOL    HW113616   5.428   6.758   2.446 -1.1365  1.3766 -0.4133
 1049SOL    HW213617   5.464   6.859   2.569 -1.1544  0.3880  0.4143
 1050SOL     OW13618   9.050   5.392   2.017  0.5491  0.2055  0.3129
 1050SOL    HW113619   8.982   5.327   1.984  1.1337  0.5948 -1.7397
 1050SOL    HW213620   9.080   5.366   2.108  0.2321 -1.9836 -0.1869
 1051SOL     OW13621   1.668   6.794   2.049 -0.2546 -0.1731  0.5209
 1051SOL    HW113622   1.727   6.744   1.986 -1.8565 -0.4599 -0.7822
 1051SOL    HW213623   1.650   6.737   2.129  1.8644  0.2294  1.3234
 1052SOL     OW13624   5.149   8.124   3.640  0.0129  0.4311  0.1896
 1052SOL    HW113625   5.132   8.093   3.547  0.0473  0.1990  0.2592
 1052SOL    HW213626   5.239   8.167   3.645  0.5198 -0.6107  0.3633
 1053SOL     OW13627   1.351   2.273   3.545 -0.0625 -0.1399 -0.4857
 1053SOL    HW113628   1.311   2.213   3.614 -0.3526  1.1047  0.4436
 1053SOL    HW213629   1.287   2.284   3.469 -0.1145 -0.7936 -0.5371
 1054SOL     OW13630   1.854   0.544   2.883 -0.8234  0.7888  0.5318
 1054SOL    HW113631   1.840   0.476   2.955  0.5835  2.4424  2.4581
 1054SOL    HW213632   1.893   0.500   2.802 -1.1293 -0.8886  1.2756
 1055SOL     OW13633   4.144   8.616   2.182 -0.2153  0.4828 -0.8694
 1055SOL    HW113634   4.106   8.584   2.269 -1.2553 -0.1829 -1.5556
 1055SOL    HW213635   4.214   8.685   2.200 -1.7655  1.7714  0.4236
 1056SOL     OW13636   3.109   5.055   4.390 -0.1227  0.1616 -0.4248
 1056SOL    HW113637   3.069   5.043   4.481 -0.2884  0.0661 -0.5096
 1056SOL    HW213638   3.207   5.069   4.398 -0.1574  0.2843 -0.2212
 1057SOL     OW13639   1.701   0.106   4.654  0.1946 -0.0508  0.1036
 1057SOL    HW113640   1.780   0.122   4.596  0.4343 -0.3389  0.3489
 1057SOL    HW213641   1.696   0.009   4.678 -1.3781 -0.4187 -1.5642
 1058SOL     OW13642   3.363   7.990   0.986 -0.5538  0.2997  0.4144
 1058SOL    HW113643   3.342   7.895   1.006 -1.6444  0.3457 -0.4433
 1058SOL    HW213644   3.328   8.013   0.895  1.9537  0.8059 -0.4570
 1059SOL     OW13645   2.444   2.062   4.489  0.1873 -0.0728 -0.0665
 1059SOL    HW113646   2.516   2.117   4.531  0.6378  0.0466 -0.9729
 1059SOL    HW213647   2.378   2.032   4.559  0.2274  1.1768  0.5110
 1060SOL     OW13648   3.401   3.599   2.260 -0.3266  0.2100 -0.2552
 1060SOL    HW113649   3.430   3.535   2.189  0.5331  1.8179 -1.3832
 1060SOL    HW213650   3.477   3.660   2.283 -1.5669  1.8065 -0.2957
 1061SOL     OW13651   1.314   5.592   3.867  0.0519  0.0616  0.5032
 1061SOL    HW113652   1.220   5.591   3.834  0.4096  0.9106 -0.5794
 1061SOL    HW213653   1.317   5.626   3.961 -0.8580 -1.2479  1.0098
 1062SOL     OW13654   9.045   9.830   2.480 -0.7276 -0.3572  0.0727
 1062SOL    HW113655   9.089   9.778   2.407 -0.7365  0.2963 -0.4119
 1062SOL    HW213656   9.049   9.928   2.457 -1.2786 -0.1979  0.6493
 1063SOL     OW13657   3.131   1.194   2.444  0.4115 -0.0169 -0.0642
 1063SOL    HW113658   3.182   1.259   2.500 -1.0516 -0.0554  1.3565
 1063SOL    HW213659   3.139   1.102   2.484 -1.6192  0.1577  0.7835
 1064SOL     OW13660   1.481   5.167   3.459 -0.2587  0.0957  0.6250
 1064SOL    HW113661   1.539   5.099   3.503 -1.3736 -1.0987  0.2513
 1064SOL    HW213662   1.407   5.122   3.409 -0.6798  1.5457 -0.1024
 1065SOL     OW13663   3.459   8.910   1.888  0.2261 -0.2414 -0.4662
 1065SOL    HW113664   3.526   8.893   1.815 -0.2449  0.7373 -1.1382
 1065SOL    HW213665   3.503   8.959   1.963  0.2418  0.4912 -0.9521
 1066SOL     OW13666   8.999   6.935   4.060  0.2713  0.3912  0.5137
 1066SOL    HW113667   8.935   6.898   3.992 -0.0828 -0.6428  1.3995
 1066SOL    HW213668   8.948   6.977   4.135  0.6253 -0.2370  1.1130
 1067SOL     OW13669   1.018   6.982   3.965  0.0957 -0.0467  0.3699
 1067SOL    HW113670   1.078   6.911   4.002 -0.7035 -0.4087  0.9890
 1067SOL    HW213671   0.936   6.940   3.925 -0.0786  0.4831  0.1561
 1068SOL     OW13672   4.368   0.475   4.163 -0.3440  0.1558 -0.2952
 1068SOL    HW113673   4.400   0.507   4.252 -2.1550 -1.6527  1.0440
 1068SOL    HW213674   4.444   0.430   4.116  0.1127 -0.7328  1.2409
 1069SOL     OW13675   9.838   5.881   2.528  0.2607  0.3684  0.5089
 1069SOL    HW113676   9.812   5.800   2.580  0.1170  1.0782  1.5417
 1069SOL    HW213677   9.878   5.852   2.441 -1.7887 -0.7897 -0.0952
 1070SOL     OW13678   6.546   8.675   3.019 -0.2077 -0.1119 -0.6532
 1070SOL    HW113679   6.537   8.751   2.955 -1.4143  0.1840 -0.1492
 1070SOL    HW213680   6.522   8.589   2.973  0.5163 -0.1173 -1.0376
 1071SOL     OW13681   2.806   0.483   2.088  0.7701  0.0988  0.7526
 1071SOL    HW113682   2.899   0.447   2.087  0.9955  0.5976  2.3061
 1071SOL    HW213683   2.749   0.430   2.025  2.1227 -0.1335 -0.2894
 1072SOL     OW13684   8.284   0.359   0.156  0.0313  0.4923  0.0976
 1072SOL    HW113685   8.326   0.341   0.067 -0.2268  0.6216 -0.0482
 1072SOL    HW213686   8.186   0.337   0.152  0.2195 -0.5206  0.6414
 1073SOL     OW13687   1.926   2.106   3.867 -0.1607  0.9520 -0.5774
 1073SOL    HW113688   1.945   2.056   3.951  0.4843 -0.1793 -1.3828
 1073SOL    HW213689   2.007   2.158   3.840 -0.2341  0.9933 -0.7176
 1074SOL     OW13690   5.962   7.742   2.081 -0.1051 -0.3035  0.0818
 1074SOL    HW113691   5.990   7.747   2.177  1.2999  1.0663 -0.3758
 1074SOL    HW213692   6.017   7.674   2.033 -0.2450 -0.4002  0.0580
 1075SOL     OW13693   2.442   0.277   3.527  0.0112 -0.2042 -0.3114
 1075SOL    HW113694   2.530   0.253   3.568  0.4620 -0.9012 -1.6746
 1075SOL    HW213695   2.412   0.365   3.562  0.7589 -0.4371  0.9416
 1076SOL     OW13696   3.062   3.768   1.089 -0.0628  0.1244 -0.3327
 1076SOL    HW113697   3.093   3.674   1.100 -0.7804 -0.5074 -3.1243
 1076SOL    HW213698   2.962   3.770   1.092  0.0101  1.0711  1.5223
 1077SOL     OW13699   9.483   7.138   1.681 -0.3019 -0.5628  0.4103
 1077SOL    HW113700   9.432   7.069   1.630 -1.8500  0.2595  0.8224
 1077SOL    HW213701   9.516   7.099   1.766  0.8076 -1.4444 -0.4112
 1078SOL     OW13702   3.419   7.618   2.231  0.1220  0.4179 -0.4719
 1078SOL    HW113703   3.320   7.618   2.214  0.2479 -0.3710 -1.2723
 1078SOL    HW213704   3.440   7.677   2.309 -1.0371  0.2019  0.0126
 1079SOL     OW13705   1.296   5.864   2.361  0.0680  0.0555 -0.5359
 1079SOL    HW113706   1.296   5.938   2.428 -1.4104  2.2270 -2.8199
 1079SOL    HW213707   1.298   5.776   2.408  1.0735  1.5188  2.2714
 1080SOL     OW13708   0.571   7.833   2.653  0.4345 -0.1046  0.1634
 1080SOL    HW113709   0.642   7.763   2.664  1.1468  0.6446  0.3532
 1080SOL    HW213710   0.577   7.899   2.728  0.5401  0.8375 -0.6597
 1081SOL     OW13711   4.508   5.155   1.315 -0.4142  0.6344 -0.1289
 1081SOL    HW113712   4.469   5.097   1.387  1.6523  0.5131  0.9309
 1081SOL    HW213713   4.438   5.216   1.279 -1.7408 -0.0734  1.2248
 1082SOL     OW13714   4.208   2.948   1.314 -0.1394  0.0101  0.1572
 1082SOL    HW113715   4.282   2.924   1.377  0.0674 -1.6522 -0.6812
 1082SOL    HW213716   4.246   2.997   1.236 -0.2059  0.9064  0.6884
 1083SOL     OW13717   8.250   9.423   4.714  0.2206  0.0586 -0.2385
 1083SOL    HW113718   8.318   9.478   4.667 -0.1571 -0.9407 -1.9642
 1083SOL    HW213719   8.292   9.377   4.792  1.1989  0.4631 -0.5259
 1084SOL     OW13720   3.807   1.404   4.672  0.1559  0.3891  0.6422
 1084SOL    HW113721   3.753   1.354   4.604  0.1565 -0.1659  1.0430
 1084SOL    HW213722   3.872   1.464   4.625  0.5966 -0.4643  0.1336
 1085SOL     OW13723   9.898   0.018   4.378  0.2484 -1.1247 -0.4751
 1085SOL    HW113724   9.809  -0.001   4.337  0.0499  0.1078 -0.6572
 1085SOL    HW213725   9.887   0.036   4.476  0.2012 -0.3598 -0.6150
 1086SOL     OW13726   0.107   2.859   0.883  0.1345  0.5404  0.0477
 1086SOL    HW113727   0.107   2.824   0.789 -0.6454 -0.4136  0.3952
 1086SOL    HW213728   0.063   2.948   0.885  1.6919  1.3460 -0.7685
 1087SOL     OW13729   3.081   4.374   1.581 -0.4510 -0.6481  0.3360
 1087SOL    HW113730   3.063   4.424   1.666 -0.3266 -1.1845  0.6806
 1087SOL    HW213731   3.179   4.357   1.574 -0.2591  0.8219 -0.7218
 1088SOL     OW13732   2.310   4.205   2.162  0.1833 -0.1357  0.0473
 1088SOL    HW113733   2.404   4.189   2.190 -0.1645 -0.2139  1.1871
 1088SOL    HW213734   2.273   4.283   2.213 -0.1859  0.2598 -0.8168
 1089SOL     OW13735   1.299   1.861   0.309  0.3499  0.8004 -0.0345
 1089SOL    HW113736   1.356   1.937   0.343 -2.6942  3.3596 -0.4248
 1089SOL    HW213737   1.220   1.849   0.368  0.4658 -1.7439 -0.3298
 1090SOL     OW13738   7.473   7.811   1.447  0.0776  0.1345 -0.1140
 1090SOL    HW113739   7.533   7.745   1.491 -0.4856 -0.9880 -0.9747
 1090SOL    HW213740   7.431   7.870   1.516 -1.4012 -2.1006  0.9600
 1091SOL     OW13741   5.020   8.326   2.385 -0.3573 -0.2857 -0.5173
 1091SOL    HW113742   5.026   8.345   2.483 -0.2339 -0.1123 -0.5580
 1091SOL    HW213743   5.057   8.235   2.366  1.1977  0.3564 -0.6291
 1092SOL     OW13744   7.392   8.720   3.326  0.0833 -0.1788  0.0667
 1092SOL    HW113745   7.380   8.728   3.227  0.1326 -0.3318  0.0470
 1092SOL    HW213746   7.358   8.631   3.356  0.2875 -0.2292  0.1519
 1093SOL     OW13747   9.096   9.520   4.415 -0.1616 -0.2167 -0.6249
 1093SOL    HW113748   9.117   9.543   4.510 -1.6823  3.2220 -1.0321
 1093SOL    HW213749   8.997   9.511   4.404  0.1209 -2.5791 -1.5098
 1094SOL     OW13750   0.921   5.819   3.703  0.2811  0.0568 -0.2615
 1094SOL    HW113751   0.880   5.895   3.754 -0.9372  0.1636 -1.3740
 1094SOL    HW213752   0.989   5.855   3.639 -1.5791  0.4496 -2.0889
 1095SOL     OW13753   8.092   8.778   2.340 -0.0395  0.3369 -0.1807
 1095SOL    HW113754   8.134   8.748   2.254  2.8713  2.9777  0.2295
 1095SOL    HW213755   8.148   8.850   2.381 -2.3493  0.3977  3.0471
 1096SOL     OW13756   9.233   7.802   3.223  0.1767 -0.1340 -0.2863
 1096SOL    HW113757   9.250   7.806   3.125  0.1843 -1.3693 -0.3370
 1096SOL    HW213758   9.303   7.855   3.271  0.0326  0.6695 -0.9599
 1097SOL     OW13759   3.943   9.798   0.186  0.2360 -0.3027 -0.6336
 1097SOL    HW113760   3.956   9.887   0.229 -1.2295  0.7909 -2.4169
 1097SOL    HW213761   4.031   9.750   0.182  0.8825  0.6934  1.0830
 1098SOL     OW13762   1.876   7.463   1.902  0.1330 -0.6783 -0.0821
 1098SOL    HW113763   1.882   7.554   1.942 -2.3915 -0.5722  0.1079
 1098SOL    HW213764   1.799   7.413   1.941 -0.9434 -1.4489 -3.0333
 1099SOL     OW13765   3.133   8.985   2.336  0.0766 -0.3082  0.1650
 1099SOL    HW113766   3.054   9.010   2.392 -0.7944 -1.5117 -0.5120
 1099SOL    HW213767   3.124   9.027   2.245 -0.5360 -1.6526 -0.4066
 1100SOL     OW13768   7.094   9.329   3.959  0.4477 -0.2454  0.9956
 1100SOL    HW113769   7.148   9.318   4.043  1.1567 -2.8236  0.2389
 1100SOL    HW213770   7.156   9.341   3.882 -0.1673  0.0320  0.5410
 1101SOL     OW13771   1.146   8.703   1.757  0.0757 -0.5251  0.4583
 1101SOL    HW113772   1.142   8.603   1.751  0.7061 -0.4848 -0.9232
 1101SOL    HW213773   1.238   8.734   1.731 -0.8569  0.5530 -1.6485
 1102SOL     OW13774   3.069   4.819   0.647  0.1224  0.1842  0.6098
 1102SOL    HW113775   3.140   4.883   0.617  0.9242 -0.0229  2.0062
 1102SOL    HW213776   3.088   4.790   0.741 -0.9866 -1.0494  0.4692
 1103SOL     OW13777   0.777   7.208   4.309 -0.0446 -0.4011  0.1258
 1103SOL    HW113778   0.713   7.234   4.382 -0.2823 -1.8073  0.4323
 1103SOL    HW213779   0.754   7.117   4.275 -0.4598  0.5787 -2.3177
 1104SOL     OW13780   2.626   3.234   3.273 -0.0915  0.3109 -0.1335
 1104SOL    HW113781   2.623   3.225   3.173  0.2754 -2.6658  0.0828
 1104SOL    HW213782   2.572   3.161   3.315  0.9971  0.6169  1.8786
 1105SOL     OW13783   3.815   9.302   1.875  0.2251  0.0947  0.1632
 1105SOL    HW113784   3.789   9.363   1.951  0.9718 -0.5110  0.9168
 1105SOL    HW213785   3.913   9.312   1.857  0.1031  0.0303 -0.5479
 1106SOL     OW13786   2.768   3.840   2.666 -0.1405 -0.1552  0.5427
 1106SOL    HW113787   2.793   3.807   2.575 -2.2103 -0.5241  0.0838
 1106SOL    HW213788   2.717   3.770   2.715  0.5785  0.2017  1.8340
 1107SOL     OW13789   9.091   6.347   3.136 -0.2570 -0.5665  0.0639
 1107SOL    HW113790   9.139   6.358   3.049  1.5134 -1.9118  0.8375
 1107SOL    HW213791   8.998   6.385   3.128 -0.1269 -0.6767 -2.3971
 1108SOL     OW13792   3.724   4.197   0.629 -0.3660 -0.3133  0.4790
 1108SOL    HW113793   3.797   4.189   0.561 -0.5475 -0.4469  0.2999
 1108SOL    HW213794   3.638   4.164   0.591 -0.3002 -1.1616  1.0459
 1109SOL     OW13795   6.575   0.733   3.394 -0.0048  0.3914  0.4589
 1109SOL    HW113796   6.628   0.748   3.310  0.0021  0.5349  0.4874
 1109SOL    HW213797   6.538   0.641   3.394 -0.7091  0.6736 -0.0984
 1110SOL     OW13798   2.245   8.684   3.077 -0.1890 -0.1073 -0.7733
 1110SOL    HW113799   2.336   8.643   3.083 -0.2168 -0.2149 -1.0505
 1110SOL    HW213800   2.235   8.730   2.988  0.3810  1.8034  0.1251
 1111SOL     OW13801   0.421   8.498   1.092  0.4363  0.1114 -0.1796
 1111SOL    HW113802   0.364   8.426   1.132  0.2759 -0.0056 -0.6081
 1111SOL    HW213803   0.517   8.473   1.099  0.4666  0.5587  1.0317
 1112SOL     OW13804   0.672   4.332   4.547 -0.2935 -0.1965 -0.1939
 1112SOL    HW113805   0.682   4.384   4.631 -1.1476  0.7290 -0.6630
 1112SOL    HW213806   0.672   4.394   4.469 -0.6684 -0.9485 -0.7985
 1113SOL     OW13807   2.595   3.001   3.718 -0.1160 -0.4212 -0.2364
 1113SOL    HW113808   2.562   2.938   3.788 -2.3901 -0.0550 -0.9358
 1113SOL    HW213809   2.535   3.081   3.713  2.2509  1.4389  0.0681
 1114SOL     OW13810   7.678   9.531   1.593  0.2910 -0.5905  0.1456
 1114SOL    HW113811   7.674   9.491   1.502 -0.4306 -0.8672  0.2921
 1114SOL    HW213812   7.704   9.461   1.659 -0.0765 -0.6148  0.2729
 1115SOL     OW13813   7.738   7.247   1.125  0.2457  0.0011 -0.3911
 1115SOL    HW113814   7.835   7.224   1.128  0.5310  1.3488  2.0580
 1115SOL    HW213815   7.728   7.346   1.136 -1.4132 -0.0860 -0.9999
 1116SOL     OW13816   3.087   1.273   0.454  0.0646  0.2877 -0.4837
 1116SOL    HW113817   2.996   1.259   0.413 -0.4664 -1.8094  1.3710
 1116SOL    HW213818   3.081   1.266   0.553  2.2923  0.0761 -0.3384
 1117SOL     OW13819   0.389   1.402   4.375 -0.4032 -0.0036 -0.1409
 1117SOL    HW113820   0.379   1.307   4.346  0.1449  0.1047 -0.7079
 1117SOL    HW213821   0.319   1.424   4.442 -0.6997 -0.7315 -0.2048
 1118SOL     OW13822   1.163   6.542   2.768  0.1311  0.7229 -0.2137
 1118SOL    HW113823   1.143   6.568   2.863  0.7548  0.6243 -0.0489
 1118SOL    HW213824   1.194   6.447   2.765 -1.6274  0.1534 -0.7495
 1119SOL     OW13825   9.733   8.550   2.831  0.3351  0.5122 -0.1021
 1119SOL    HW113826   9.702   8.644   2.844  1.5108  0.9201 -0.1996
 1119SOL    HW213827   9.832   8.545   2.846  0.2739 -0.7178 -0.0524
 1120SOL     OW13828   2.008   6.635   0.989 -0.1581  0.5515  0.0828
 1120SOL    HW113829   1.924   6.605   0.945  0.2452 -2.2794  1.1324
 1120SOL    HW213830   2.086   6.617   0.929  0.1348 -0.9193  0.9017
 1121SOL     OW13831   8.919   6.026   4.379 -0.1021 -0.0041  0.8356
 1121SOL    HW113832   8.939   6.122   4.397  1.4283 -0.2475  0.4934
 1121SOL    HW213833   8.822   6.015   4.359 -0.3725  1.3959  1.3496
 1122SOL     OW13834   4.888   5.146   1.063 -0.4351 -0.3727  0.3621
 1122SOL    HW113835   4.984   5.173   1.054 -1.1392  1.6808 -1.4070
 1122SOL    HW213836   4.877   5.051   1.031  0.5525  0.2885 -2.0635
 1123SOL     OW13837   2.107   1.347   2.894  0.5349  0.1236  0.1486
 1123SOL    HW113838   2.190   1.300   2.865  2.0866  1.0134  2.8889
 1123SOL    HW213839   2.130   1.441   2.920 -1.0368 -0.0384  2.2743
 1124SOL     OW13840   9.858   4.748   3.666 -0.3767  0.2567  0.6959
 1124SOL    HW113841   9.871   4.836   3.621  1.6080 -0.7174 -0.7062
 1124SOL    HW213842   9.760   4.730   3.676 -0.8131  2.9293  1.6822
 1125SOL     OW13843   1.220   2.915   2.673  0.3671  0.1213  0.6004
 1125SOL    HW113844   1.247   2.954   2.585 -1.6818  2.2763  0.8589
 1125SOL    HW213845   1.281   2.950   2.744 -0.5121  1.7025  0.6056
 1126SOL     OW13846   7.784   7.391   3.817  0.4152  0.1428  0.4252
 1126SOL    HW113847   7.714   7.353   3.757  1.0237  0.1647 -0.3127
 1126SOL    HW213848   7.747   7.469   3.868 -0.6216 -0.9657  1.3935
 1127SOL     OW13849   0.298   9.388   4.476 -0.2088  0.5811 -0.3663
 1127SOL    HW113850   0.232   9.456   4.446 -1.3612 -0.2322  0.2998
 1127SOL    HW213851   0.276   9.299   4.435 -0.1563  0.0806  0.6758
 1128SOL     OW13852   0.184   5.928   1.541 -0.0888  0.0162  0.6718
 1128SOL    HW113853   0.099   5.980   1.538 -0.2946 -0.3584 -0.1717
 1128SOL    HW213854   0.166   5.838   1.581 -0.0820 -0.0459  0.5348
 1129SOL     OW13855   8.805   9.056   2.291  0.2215  0.6201  0.1072
 1129SOL    HW113856   8.897   9.094   2.301 -0.1880  1.4217  0.8774
 1129SOL    HW213857   8.758   9.104   2.217  1.2507 -1.4270 -1.9218
 1130SOL     OW13858   2.358   2.804   4.249 -0.6954  0.2381  0.0682
 1130SOL    HW113859   2.456   2.789   4.265 -1.0406 -0.9381  1.1733
 1130SOL    HW213860   2.313   2.821   4.337 -1.9007 -1.7525 -0.1432
 1131SOL     OW13861   6.849   9.488   2.776  0.0922 -0.1339 -0.2244
 1131SOL    HW113862   6.773   9.435   2.737 -1.3671  2.3018 -0.7890
 1131SOL    HW213863   6.852   9.578   2.733  1.8400  0.6485  1.5008
 1132SOL     OW13864   1.662   5.706   4.461  0.1874 -0.6492  0.0191
 1132SOL    HW113865   1.691   5.790   4.414 -3.2290  0.4703 -0.2579
 1132SOL    HW213866   1.685   5.713   4.558  1.5253 -0.1691 -0.3224
 1133SOL     OW13867   8.149   7.042   0.783  0.5710  0.1146  0.2989
 1133SOL    HW113868   8.113   7.128   0.818 -0.8893 -0.4511  0.2239
 1133SOL    HW213869   8.169   6.980   0.859  2.7783  0.9299  0.4332
 1134SOL     OW13870   1.031   9.660   2.928  0.2011  0.0007 -0.1046
 1134SOL    HW113871   1.131   9.651   2.938  0.0411  0.3211  1.9228
 1134SOL    HW213872   0.994   9.577   2.887  1.0096 -1.0707  1.3337
 1135SOL     OW13873   4.697   9.051   2.440  0.5167 -0.7780 -0.2931
 1135SOL    HW113874   4.650   9.136   2.417  0.9966 -0.0430  1.3630
 1135SOL    HW213875   4.645   9.001   2.509  2.0994  0.0316  1.5415
 1136SOL     OW13876   6.317   9.960   3.706 -0.0310  0.0487  0.4395
 1136SOL    HW113877   6.228   9.914   3.707  0.4175 -0.8539 -0.4158
 1136SOL    HW213878   6.346   9.973   3.611  0.1783  1.4741  0.6833
 1137SOL     OW13879   2.851   4.180   2.519  0.3184 -0.2837  0.1101
 1137SOL    HW113880   2.776   4.115   2.530  1.2591 -1.4974 -0.5224
 1137SOL    HW213881   2.915   4.145   2.451  1.8537  0.3893  1.2007
 1138SOL     OW13882   8.877   5.891   3.518 -0.2862 -0.4072 -0.1388
 1138SOL    HW113883   8.790   5.938   3.526 -0.5003 -0.4857 -1.7320
 1138SOL    HW213884   8.862   5.797   3.485  0.4557 -0.0241 -1.6570
 1139SOL     OW13885   2.171   2.490   0.851  0.0812 -0.5540 -0.4146
 1139SOL    HW113886   2.092   2.503   0.792  0.5859 -0.0465 -0.9907
 1139SOL    HW213887   2.150   2.421   0.920 -1.5173  0.9278  0.6238
 1140SOL     OW13888   6.865   9.963   0.166  0.6101 -0.2472  0.1400
 1140SOL    HW113889   6.829   9.974   0.259  1.3205  2.6881  0.1275
 1140SOL    HW213890   6.794   9.990   0.100  0.8654 -0.1278 -0.0859
 1141SOL     OW13891   2.477   1.049   3.443  0.0476  0.3271  0.3781
 1141SOL    HW113892   2.431   1.117   3.500 -1.5344 -0.5412  0.1466
 1141SOL    HW213893   2.433   0.961   3.454  0.0115  0.0475 -1.8619
 1142SOL     OW13894   8.595   9.347   4.408  0.4634 -0.0437  0.0096
 1142SOL    HW113895   8.625   9.255   4.384 -0.0572 -0.3414  0.4843
 1142SOL    HW213896   8.514   9.371   4.355  1.5275  0.7648 -1.2838
 1143SOL     OW13897   1.018   1.411   2.931  0.4924 -0.4932 -1.0193
 1143SOL    HW113898   1.067   1.435   3.015 -0.8734 -0.1992 -0.2927
 1143SOL    HW213899   1.021   1.312   2.917 -1.4919 -0.8372  0.7893
 1144SOL     OW13900   0.754   3.677   2.806  0.5432  0.2165 -0.5523
 1144SOL    HW113901   0.733   3.581   2.794  1.7772  0.0939 -1.9140
 1144SOL    HW213902   0.671   3.732   2.795  0.0080 -0.6147 -0.6637
 1145SOL     OW13903   4.254   9.966   3.286 -0.5475 -0.2019 -0.3450
 1145SOL    HW113904   4.292  10.058   3.278  2.2178 -1.3180 -0.6751
 1145SOL    HW213905   4.171   9.959   3.231 -0.7654  2.0652 -0.3337
 1146SOL     OW13906   5.908   9.815   4.307 -0.0136  0.2291  0.5471
 1146SOL    HW113907   5.815   9.791   4.280  0.3238  1.3493 -1.6837
 1146SOL    HW213908   5.917   9.806   4.407 -2.3654 -0.3097  0.7355
 1147SOL     OW13909   9.673   5.284   0.556 -0.0487  0.0173 -0.1723
 1147SOL    HW113910   9.573   5.281   0.562 -0.1340  0.0798 -1.3078
 1147SOL    HW213911   9.700   5.360   0.497  0.6961  0.4056  0.6692
 1148SOL     OW13912   2.065   1.329   1.362  0.3892  0.2526  0.1331
 1148SOL    HW113913   1.972   1.295   1.378  0.5047 -0.4900 -0.7564
 1148SOL    HW213914   2.117   1.261   1.311  1.7529  0.2143  1.5364
 1149SOL     OW13915   0.757   8.984   3.688 -0.3508  0.2309  0.3533
 1149SOL    HW113916   0.669   8.945   3.712  0.3683 -0.7610  1.4328
 1149SOL    HW213917   0.745   9.079   3.657 -1.5804  0.6951  2.1967
 1150SOL     OW13918   3.545   7.035   4.213 -0.0817 -0.2404 -0.4085
 1150SOL    HW113919   3.470   7.027   4.147 -0.0016 -0.1906 -0.5057
 1150SOL    HW213920   3.589   6.946   4.224 -0.6367 -0.4409  0.2213
 1151SOL     OW13921   7.367   9.539   1.446  0.1043 -0.1726 -0.3379
 1151SOL    HW113922   7.283   9.486   1.445 -0.1820  0.2291  1.3276
 1151SOL    HW213923   7.349   9.631   1.481  1.2472 -0.1163  0.1554
 1152SOL     OW13924   2.876   9.966   1.435 -0.1688  0.0428  1.0158
 1152SOL    HW113925   2.792  10.017   1.419  0.7714  1.1345 -0.6385
 1152SOL    HW213926   2.942  10.024   1.483  2.2687  1.8372 -4.1301
 1153SOL     OW13927   9.256   8.721   4.138 -0.2196  0.0455 -0.1144
 1153SOL    HW113928   9.170   8.766   4.115  0.1454  0.7748 -0.0492
 1153SOL    HW213929   9.331   8.785   4.127  0.0526  0.1715  2.2833
 1154SOL     OW13930   2.166   5.933   0.898 -0.3912 -0.3923 -0.3818
 1154SOL    HW113931   2.074   5.950   0.934 -0.4948 -0.8906 -0.4097
 1154SOL    HW213932   2.169   5.842   0.856 -0.1878  0.0676 -1.3658
 1155SOL     OW13933   3.174   1.149   2.837  0.0161  0.3512 -0.4535
 1155SOL    HW113934   3.250   1.214   2.843  0.5424 -0.3323  0.3010
 1155SOL    HW213935   3.097   1.184   2.890  0.0584  0.6924 -0.6129
 1156SOL     OW13936   1.155   8.924   0.227  0.6853  0.4118 -0.3209
 1156SOL    HW113937   1.139   9.022   0.217  1.4898  0.4743 -1.0230
 1156SOL    HW213938   1.229   8.909   0.292 -0.2359  0.2229  0.6931
 1157SOL     OW13939   3.674   5.948   1.779  0.3256 -0.0377  0.6043
 1157SOL    HW113940   3.644   5.853   1.768  1.6602 -0.7504  2.9209
 1157SOL    HW213941   3.770   5.956   1.753  0.0530  0.8321 -0.1876
 1158SOL     OW13942   4.363   9.603   1.452 -0.3519 -0.4947 -0.4085
 1158SOL    HW113943   4.294   9.580   1.521  1.3032 -0.6924  1.2196
 1158SOL    HW213944   4.398   9.519   1.411 -2.7412 -0.3072 -2.9551
 1159SOL     OW13945   0.460   1.960   2.575 -0.5141  0.8035 -0.8022
 1159SOL    HW113946   0.426   1.907   2.653 -0.5609  0.2626 -1.1875
 1159SOL    HW213947   0.451   2.058   2.595  0.9019  0.7038  0.5137
 1160SOL     OW13948   7.976   7.057   3.333  0.0867 -0.7864 -0.2286
 1160SOL    HW113949   8.039   7.008   3.394  0.5960 -1.4676 -1.2992
 1160SOL    HW213950   7.983   7.155   3.350  0.1649 -0.9715  0.8747
 1161SOL     OW13951   1.421   7.609   2.707  0.5069 -0.1678  0.6379
 1161SOL    HW113952   1.496   7.674   2.721  0.1214  0.0894  1.5239
 1161SOL    HW213953   1.447   7.544   2.636  0.2503  1.9721 -1.4912
 1162SOL     OW13954   1.520   8.455   0.468 -0.0850  0.3231  0.1688
 1162SOL    HW113955   1.480   8.507   0.392 -1.0306  1.6288  1.5432
 1162SOL    HW213956   1.591   8.511   0.512  0.4895 -0.4490  0.2346
 1163SOL     OW13957   2.173   7.670   3.499  0.0222 -0.3417  0.4419
 1163SOL    HW113958   2.109   7.593   3.497 -0.1680 -0.2806  2.4677
 1163SOL    HW213959   2.214   7.682   3.409 -3.1718 -0.0683 -1.0601
 1164SOL     OW13960   6.948   9.730   0.069  0.2119  0.6648 -0.1344
 1164SOL    HW113961   6.923   9.824   0.091 -0.0750  0.3948  0.6974
 1164SOL    HW213962   6.994   9.688   0.147  0.8560  0.2984 -0.7103
 1165SOL     OW13963   8.775   7.342   0.524  0.6113 -0.4917 -0.2037
 1165SOL    HW113964   8.825   7.297   0.598  1.4557  0.9361  0.1223
 1165SOL    HW213965   8.838   7.364   0.450  0.0426 -0.6312 -0.7355
 1166SOL     OW13966   4.212   1.184   2.942 -0.1876 -0.3443 -0.2775
 1166SOL    HW113967   4.132   1.124   2.937 -0.3135 -0.0323 -2.2025
 1166SOL    HW213968   4.283   1.152   2.880  0.4523  0.4720  0.0167
 1167SOL     OW13969   1.385   9.153   1.705 -0.5316  0.1409  0.0446
 1167SOL    HW113970   1.314   9.127   1.640 -0.0291  1.6470 -1.1305
 1167SOL    HW213971   1.401   9.251   1.698 -1.1483  0.5021  3.1321
 1168SOL     OW13972   1.051   5.914   3.481  0.2657 -0.1726  0.0620
 1168SOL    HW113973   1.137   5.966   3.486  0.5814 -0.8143  1.7759
 1168SOL    HW213974   0.979   5.971   3.443  0.5266  1.6536  2.2065
 1169SOL     OW13975   7.508   0.743   1.183  0.3236 -0.0078 -0.4592
 1169SOL    HW113976   7.505   0.795   1.269 -0.2878  0.7015 -0.9077
 1169SOL    HW213977   7.493   0.805   1.106  0.6261 -0.6870 -1.0643
 1170SOL     OW13978   4.820   1.208   2.181 -0.0089 -0.1341 -0.1892
 1170SOL    HW113979   4.844   1.152   2.102 -1.2738  1.3056 -1.6503
 1170SOL    HW213980   4.874   1.292   2.179 -0.7312  0.3385 -0.0728
 1171SOL     OW13981   1.345   5.695   4.129  0.0184  0.5816 -0.0121
 1171SOL    HW113982   1.389   5.782   4.152  0.0030  0.3735  0.7938
 1171SOL    HW213983   1.312   5.650   4.212 -2.8121  1.3008 -0.6902
 1172SOL     OW13984   3.559   1.273   2.772  0.0907  0.1482 -0.1712
 1172SOL    HW113985   3.508   1.224   2.842 -1.2658  0.9454 -0.5893
 1172SOL    HW213986   3.657   1.257   2.785 -0.2193 -0.8143  1.0665
 1173SOL     OW13987   3.765   3.815   0.970 -1.0564  0.2195  0.4425
 1173SOL    HW113988   3.836   3.829   1.039 -0.7005  0.6054  0.0007
 1173SOL    HW213989   3.712   3.899   0.959 -0.8337  0.2969 -0.0637
 1174SOL     OW13990   7.822   7.601   4.440  0.1981 -0.2254 -0.4264
 1174SOL    HW113991   7.865   7.686   4.469  0.0363  0.3434 -1.8203
 1174SOL    HW213992   7.884   7.525   4.457  0.7866  0.3077 -0.1778
 1175SOL     OW13993   0.919   0.639   4.065  0.4048  0.4247 -0.3049
 1175SOL    HW113994   0.906   0.719   4.006 -0.2956  1.0504  0.6765
 1175SOL    HW213995   0.892   0.556   4.017 -0.2661  0.9392 -0.8210
 1176SOL     OW13996   7.874   6.488   2.462  0.3465 -0.4919 -0.3293
 1176SOL    HW113997   7.872   6.500   2.363 -0.3904 -0.2097 -0.2871
 1176SOL    HW213998   7.863   6.391   2.484  0.8436 -0.5959 -0.5291
 1177SOL     OW13999   2.882   9.178   0.249  0.2441  0.1010  0.5258
 1177SOL    HW114000   2.844   9.239   0.180  2.7862 -0.7397 -1.7298
 1177SOL    HW214001   2.929   9.232   0.319 -1.3931  0.9127  1.0189
 1178SOL     OW14002   1.316   0.144   2.792 -0.5265 -0.2313  0.4776
 1178SOL    HW114003   1.375   0.129   2.713 -0.2856 -0.5273  0.7106
 1178SOL    HW214004   1.275   0.057   2.820 -1.1049 -0.0184  0.2902
 1179SOL     OW14005   1.100   7.429   0.187  0.2458 -0.0719 -0.0013
 1179SOL    HW114006   1.010   7.458   0.219 -0.2375  2.0965 -3.1773
 1179SOL    HW214007   1.169   7.496   0.214  0.6123 -0.6830  0.6167
 1180SOL     OW14008   6.751   0.376   2.616 -0.4173 -0.4267 -0.1495
 1180SOL    HW114009   6.799   0.449   2.567 -1.2873 -0.1338 -0.5666
 1180SOL    HW214010   6.720   0.409   2.705  1.3675 -1.0273  0.7187
 1181SOL     OW14011   9.290   8.162   3.068 -0.5452  0.1219  0.2795
 1181SOL    HW114012   9.303   8.260   3.083 -0.7683 -0.0060  1.3638
 1181SOL    HW214013   9.218   8.148   3.000  1.4070  0.7403 -1.9563
 1182SOL     OW14014   3.153   5.507   4.040  0.3618  0.1193 -0.0932
 1182SOL    HW114015   3.120   5.425   4.088 -0.0628  0.2480 -0.1673
 1182SOL    HW214016   3.212   5.559   4.101 -1.5050  1.1492  0.8554
 1183SOL     OW14017   1.002   4.694   3.479  0.2801 -0.2366  0.4390
 1183SOL    HW114018   0.959   4.770   3.430  0.4874  0.6664  1.6425
 1183SOL    HW214019   0.954   4.678   3.565 -1.1132 -2.8988 -0.7759
 1184SOL     OW14020   2.165   2.625   1.808 -0.7089  0.0866  0.2994
 1184SOL    HW114021   2.226   2.592   1.736 -0.6815  0.6201  0.0705
 1184SOL    HW214022   2.202   2.600   1.897 -1.9058 -2.5433  0.0772
 1185SOL     OW14023   1.820   4.959   2.031 -0.0700  0.2293  0.3134
 1185SOL    HW114024   1.796   5.007   1.946 -0.8035  1.7005  1.3305
 1185SOL    HW214025   1.808   4.861   2.018 -3.3296  0.6532 -0.3087
 1186SOL     OW14026   0.386   2.448   3.887  0.4261 -0.1135  0.7533
 1186SOL    HW114027   0.338   2.461   3.973  0.0277  1.3442  0.3129
 1186SOL    HW214028   0.437   2.530   3.863 -1.4939  0.4573 -1.6482
 1187SOL     OW14029   8.380   9.418   1.732 -0.1451 -0.2267 -0.5025
 1187SOL    HW114030   8.423   9.453   1.649 -0.8337  0.2644 -0.6508
 1187SOL    HW214031   8.332   9.492   1.779  1.0890 -0.2514  0.8811
 1188SOL     OW14032   8.413   7.413   0.333  0.1248  0.3595  0.0454
 1188SOL    HW114033   8.487   7.421   0.266  2.4137  1.6680  2.5992
 1188SOL    HW214034   8.355   7.494   0.330  0.0526  0.2871 -0.5308
 1189SOL     OW14035   3.025   1.326   0.766  0.5101  0.6205  0.1352
 1189SOL    HW114036   2.941   1.381   0.771  1.3677  1.9269  0.4789
 1189SOL    HW214037   3.002   1.229   0.779 -1.1369  0.7750 -1.3884
 1190SOL     OW14038   3.388   0.568   2.662  0.2183  0.2984 -0.0118
 1190SOL    HW114039   3.301   0.597   2.700 -0.6919 -0.9124 -1.1444
 1190SOL    HW214040   3.385   0.573   2.563  1.0894 -0.6745 -0.1021
 1191SOL     OW14041   0.743   9.539   0.293 -0.0602  0.2079  0.3521
 1191SOL    HW114042   0.776   9.629   0.321 -1.0485  0.8960 -0.6365
 1191SOL    HW214043   0.644   9.544   0.277 -0.1781 -1.1500  0.6726
 1192SOL     OW14044   0.043   4.214   0.493  0.0324  0.2642 -0.0716
 1192SOL    HW114045   0.115   4.218   0.563  1.0508  1.5721 -1.1714
 1192SOL    HW214046  -0.045   4.234   0.536  0.3556 -1.0212  1.2266
 1193SOL     OW14047   1.573   6.951   1.351 -0.1847  0.0902  0.3346
 1193SOL    HW114048   1.515   6.896   1.412 -1.0888  0.4607 -0.1848
 1193SOL    HW214049   1.652   6.897   1.323 -0.0869 -0.2919  1.3526
 1194SOL     OW14050   1.779   0.917   2.776 -0.1364 -0.2272 -0.6476
 1194SOL    HW114051   1.734   0.828   2.787  0.1368 -0.3078 -0.1428
 1194SOL    HW214052   1.849   0.927   2.847  0.4774 -0.0030 -1.2821
 1195SOL     OW14053   7.535   7.396   3.692  0.1520 -0.2900 -0.2741
 1195SOL    HW114054   7.461   7.397   3.624 -1.0778  0.2849  1.0518
 1195SOL    HW214055   7.559   7.490   3.716  1.6845 -0.4592 -1.0555
 1196SOL     OW14056   9.846   7.336   4.146  0.2248  0.4008  0.0046
 1196SOL    HW114057   9.933   7.326   4.097 -0.3754 -0.5072 -0.8993
 1196SOL    HW214058   9.800   7.419   4.113  0.9144  1.1029  0.7693
 1197SOL     OW14059   4.291   8.026   1.808  0.2698 -0.0150 -0.3783
 1197SOL    HW114060   4.360   8.032   1.736  0.7390  3.7491  0.3086
 1197SOL    HW214061   4.202   8.051   1.770  0.0015 -0.8541 -0.3055
 1198SOL     OW14062   4.580   1.426   3.392  0.4951  0.2617 -0.1758
 1198SOL    HW114063   4.499   1.484   3.383  0.2446 -0.5773 -4.3258
 1198SOL    HW214064   4.659   1.473   3.352  1.4447 -0.1076  1.2377
 1199SOL     OW14065   2.163   3.477   4.081 -0.5310 -0.4870  0.3256
 1199SOL    HW114066   2.233   3.519   4.023 -0.5321 -1.1858 -0.1712
 1199SOL    HW214067   2.161   3.526   4.169  0.7954 -0.6530  0.4664
 1200SOL     OW14068   5.669   7.041   2.424  0.0495  0.0655 -0.0120
 1200SOL    HW114069   5.601   7.061   2.354 -0.4270 -0.4172  0.3145
 1200SOL    HW214070   5.636   7.073   2.513  1.8470  3.2741 -0.4045
 1201SOL     OW14071   2.130   0.528   2.623  0.3320 -0.0775  0.5903
 1201SOL    HW114072   2.179   0.496   2.704 -0.9632 -1.7854  0.7368
 1201SOL    HW214073   2.062   0.596   2.650  0.5714  0.0811  0.7949
 1202SOL     OW14074   8.911   7.146   3.245  0.1184 -0.0887 -0.6141
 1202SOL    HW114075   9.000   7.166   3.204  0.3048  0.2965 -0.0242
 1202SOL    HW214076   8.885   7.052   3.222  1.6319 -0.9169  0.9366
 1203SOL     OW14077   3.530   1.161   0.031 -0.0361  0.3798 -0.2167
 1203SOL    HW114078   3.519   1.091  -0.040  0.5377  2.0782 -2.0563
 1203SOL    HW214079   3.627   1.174   0.050 -0.1503  0.5142  0.2706
 1204SOL     OW14080   7.870   8.679   0.224 -0.0213 -0.4309  0.1701
 1204SOL    HW114081   7.968   8.691   0.204 -0.2814  1.2414 -0.2382
 1204SOL    HW214082   7.825   8.636   0.146  0.1494  0.0685 -0.2080
 1205SOL     OW14083   0.634   6.708   1.250 -0.4857 -0.0222 -0.6442
 1205SOL    HW114084   0.711   6.646   1.265 -1.5164 -1.3977 -0.9467
 1205SOL    HW214085   0.654   6.797   1.291  1.2745 -0.3464 -0.7608
 1206SOL     OW14086   3.337   0.320   0.229  0.2941  0.1452  0.5336
 1206SOL    HW114087   3.372   0.407   0.194  0.1759  0.1431  0.4086
 1206SOL    HW214088   3.252   0.297   0.182  0.4477 -0.1531  0.3944
 1207SOL     OW14089   9.448   9.643   1.426  0.5756 -0.7089 -0.0479
 1207SOL    HW114090   9.427   9.607   1.335 -0.8534  0.2401 -0.1126
 1207SOL    HW214091   9.535   9.691   1.424  0.2868 -0.2126 -1.0485
 1208SOL     OW14092   0.818   2.244   3.374  0.9156  0.6274  0.0785
 1208SOL    HW114093   0.870   2.179   3.430 -1.2868 -1.1958  0.0758
 1208SOL    HW214094   0.763   2.302   3.434  1.6989  1.4795 -0.0099
 1209SOL     OW14095   2.624   9.557   0.934  0.0282 -0.4377  0.0043
 1209SOL    HW114096   2.668   9.617   1.001  0.1291  1.1808 -1.4840
 1209SOL    HW214097   2.527   9.579   0.927  0.1753 -0.0607 -0.9433
 1210SOL     OW14098   4.028   9.413   3.261 -0.0754 -0.4797 -0.4825
 1210SOL    HW114099   4.117   9.443   3.225 -0.0311  2.3158  1.6849
 1210SOL    HW214100   3.955   9.456   3.209 -0.1388 -1.6083 -1.3324
 1211SOL     OW14101   7.712   0.396   2.237 -0.2193 -0.0558  0.3954
 1211SOL    HW114102   7.732   0.404   2.335  1.7484 -1.6547  0.1544
 1211SOL    HW214103   7.635   0.333   2.224  0.3284 -0.8303  0.8523
 1212SOL     OW14104   3.891   2.763   2.450  0.0626  0.4744  0.5403
 1212SOL    HW114105   3.885   2.677   2.400 -0.9803  0.4285  0.7450
 1212SOL    HW214106   3.882   2.839   2.385 -0.6947  0.4162  0.5685
 1213SOL     OW14107   1.131   3.859   4.285  0.2270  0.4907  0.3798
 1213SOL    HW114108   1.081   3.906   4.212 -0.1559  1.0711  1.0111
 1213SOL    HW214109   1.198   3.922   4.324  1.9129 -0.4544 -0.8713
 1214SOL     OW14110   9.393   6.611   4.510 -0.3045  0.3927  0.2338
 1214SOL    HW114111   9.375   6.515   4.486 -0.2867  0.2732  0.6993
 1214SOL    HW214112   9.335   6.638   4.587 -0.9035  1.0008 -0.4248
 1215SOL     OW14113   0.946   0.735   2.207  0.4480  0.2429 -0.1823
 1215SOL    HW114114   0.968   0.646   2.248  1.5772  0.1558 -0.9436
 1215SOL    HW214115   0.963   0.731   2.109 -1.4121  0.7099 -0.5327
 1216SOL     OW14116   4.857   9.633   3.293  0.1007  0.6673  0.4457
 1216SOL    HW114117   4.772   9.649   3.343  0.4140  1.0317  0.8772
 1216SOL    HW214118   4.854   9.680   3.205  0.6607  2.4252  1.3342
 1217SOL     OW14119   0.435   2.759   2.800 -0.5727 -0.6571  0.2044
 1217SOL    HW114120   0.430   2.806   2.712  0.0449 -1.8819 -0.4983
 1217SOL    HW214121   0.530   2.753   2.830 -0.6491 -1.3777  0.3173
 1218SOL     OW14122   2.887   1.998   3.825  0.1176 -0.2991  0.1101
 1218SOL    HW114123   2.919   2.007   3.919  1.0182 -1.9709 -0.0283
 1218SOL    HW214124   2.946   1.935   3.775 -0.0041  1.0010 -1.7509
 1219SOL     OW14125   2.562   1.270   3.894  0.1394 -0.7129 -0.1896
 1219SOL    HW114126   2.605   1.324   3.822  0.7432 -2.1823 -0.9651
 1219SOL    HW214127   2.628   1.204   3.929  0.0166  0.3553  2.1209
 1220SOL     OW14128   0.320   7.377   4.454 -0.1878 -0.3430 -0.2255
 1220SOL    HW114129   0.290   7.468   4.425  1.1167  0.0271 -0.4425
 1220SOL    HW214130   0.268   7.308   4.403 -1.0612  0.2689 -0.1881
 1221SOL     OW14131   2.748   9.587   4.268 -0.8748  0.4671 -0.5873
 1221SOL    HW114132   2.669   9.569   4.209 -1.0253  1.2009 -0.6143
 1221SOL    HW214133   2.814   9.642   4.218 -0.7764  0.6650 -0.2385
 1222SOL     OW14134   0.938   7.531   1.414  0.1245  0.2072 -0.0625
 1222SOL    HW114135   0.990   7.446   1.424 -0.0892 -0.0323 -0.9821
 1222SOL    HW214136   0.847   7.518   1.455  0.5829  0.4508  1.0508
 1223SOL     OW14137   1.880   7.398   3.662 -0.2950 -0.7233  0.3097
 1223SOL    HW114138   1.840   7.307   3.654 -0.2072 -0.6314 -1.2424
 1223SOL    HW214139   1.953   7.409   3.594  1.1465 -0.2444  1.8867
 1224SOL     OW14140   5.390   8.681   2.882 -0.2110  0.0569 -0.1398
 1224SOL    HW114141   5.408   8.769   2.838 -1.3278  0.7095  0.6833
 1224SOL    HW214142   5.451   8.670   2.961 -2.6510  1.8462  2.0777
 1225SOL     OW14143   0.816   2.814   1.924 -0.7538 -0.2284 -0.1058
 1225SOL    HW114144   0.731   2.800   1.874 -0.7321 -2.9530  0.5163
 1225SOL    HW214145   0.798   2.807   2.022  0.2820 -1.7625  0.0072
 1226SOL     OW14146   8.456   7.088   3.537 -0.0218  0.1267 -0.2528
 1226SOL    HW114147   8.443   7.105   3.440 -0.9478  0.2002 -0.1190
 1226SOL    HW214148   8.433   6.993   3.558  2.2287 -0.5081 -0.4650
 1227SOL     OW14149   3.307   0.304   1.242  0.3408  0.4819 -0.0939
 1227SOL    HW114150   3.342   0.347   1.159  2.0297 -0.6906 -0.0158
 1227SOL    HW214151   3.288   0.207   1.223  1.6202 -0.0126  1.1259
 1228SOL     OW14152   0.856   5.075   0.335  0.1448  0.5260 -0.2255
 1228SOL    HW114153   0.945   5.045   0.302 -1.1042 -3.3656 -0.3213
 1228SOL    HW214154   0.784   5.034   0.278 -1.7853  1.0852  1.7438
 1229SOL     OW14155   8.749   6.125   1.018 -0.2402  0.1500 -0.0990
 1229SOL    HW114156   8.779   6.115   1.113  0.7862 -0.0536 -0.4274
 1229SOL    HW214157   8.763   6.038   0.970 -2.3864 -0.2615 -0.0005
 1230SOL     OW14158   3.795   3.046   3.554 -0.0860 -0.7477  0.7259
 1230SOL    HW114159   3.770   3.133   3.597  0.6580 -0.2411  0.1446
 1230SOL    HW214160   3.869   3.003   3.606  1.7827  0.5414 -0.8141
 1231SOL     OW14161   4.283   3.425   1.928  0.2209  0.0876  0.0196
 1231SOL    HW114162   4.370   3.422   1.977  0.2986  1.1237 -0.0430
 1231SOL    HW214163   4.221   3.357   1.967  0.3239  0.8114  1.4711
 1232SOL     OW14164   1.130   7.986   2.422  1.0017 -0.7258 -0.5113
 1232SOL    HW114165   1.170   7.962   2.333 -0.2183  1.0685 -1.5849
 1232SOL    HW214166   1.034   7.955   2.424 -0.1766  2.6461 -1.3858
 1233SOL     OW14167   2.784   5.480   2.595  0.6785 -0.2061  0.0443
 1233SOL    HW114168   2.793   5.471   2.496  2.0662 -0.5797  0.1993
 1233SOL    HW214169   2.689   5.459   2.621 -0.0148  1.1599 -1.3225
 1234SOL     OW14170   2.444   9.812   4.745 -0.2765 -0.4760  0.5347
 1234SOL    HW114171   2.534   9.772   4.725 -0.2666  0.2867 -1.0615
 1234SOL    HW214172   2.385   9.801   4.664 -0.7264  1.4796  0.5909
 1235SOL     OW14173   1.004   1.934   1.612  0.0507  0.1010  0.4884
 1235SOL    HW114174   0.909   1.911   1.631  0.2751  0.9571  2.8503
 1235SOL    HW214175   1.010   1.980   1.523 -1.9160  1.1126  0.8543
 1236SOL     OW14176   2.091   4.958   2.449 -0.3747 -0.3656  0.5245
 1236SOL    HW114177   2.031   5.036   2.465 -1.6363 -1.6979  2.3846
 1236SOL    HW214178   2.037   4.882   2.412  1.0483 -0.0347 -2.4176
 1237SOL     OW14179   7.121   0.454   3.461  0.6460  0.0808  0.0200
 1237SOL    HW114180   7.077   0.400   3.533 -0.3536  1.0195  0.1256
 1237SOL    HW214181   7.118   0.551   3.484  0.5034  0.3728 -1.1735
 1238SOL     OW14182   8.480   4.902   2.429 -0.6049  0.0630 -0.0242
 1238SOL    HW114183   8.442   4.871   2.516 -0.6733  1.1391  0.3281
 1238SOL    HW214184   8.406   4.923   2.366 -0.5773  0.5155  0.0906
 1239SOL     OW14185   8.911   7.947   1.150 -0.6095  0.3470 -0.2435
 1239SOL    HW114186   8.892   8.022   1.086  0.8732  0.9370 -0.0138
 1239SOL    HW214187   8.959   7.874   1.102  0.6257  0.8478  0.1878
 1240SOL     OW14188   3.646   8.487   3.901  0.2322  0.0671  0.1574
 1240SOL    HW114189   3.734   8.536   3.905  1.0888 -1.4599  0.3381
 1240SOL    HW214190   3.578   8.536   3.954  0.8167  1.5982 -0.4765
 1241SOL     OW14191   3.887   0.742   2.619  0.7272 -0.5220  0.0120
 1241SOL    HW114192   3.954   0.766   2.689 -1.2222 -0.4675  1.9187
 1241SOL    HW214193   3.826   0.819   2.604 -1.1812 -1.8195  0.9895
 1242SOL     OW14194   8.921   5.917   1.858  0.2533  0.3163 -0.4201
 1242SOL    HW114195   8.967   5.839   1.901  0.8209  0.8054 -0.1238
 1242SOL    HW214196   8.834   5.888   1.819 -1.5789  0.3648  3.3687
 1243SOL     OW14197   6.191   0.681   3.134 -0.1773 -0.0655 -0.5748
 1243SOL    HW114198   6.092   0.695   3.137  0.0244  2.0832 -2.5638
 1243SOL    HW214199   6.232   0.719   3.217 -0.9484 -0.5421  0.0389
 1244SOL     OW14200   3.931   6.947   3.456  0.3347  0.1614 -0.7271
 1244SOL    HW114201   3.852   6.999   3.424 -0.7935 -0.3683  1.1000
 1244SOL    HW214202   4.000   7.009   3.493 -0.1399  0.4949 -0.4009
 1245SOL     OW14203   5.764   9.719   2.317  0.2189 -0.1555 -0.4777
 1245SOL    HW114204   5.780   9.809   2.276  2.7180  0.1604  1.0945
 1245SOL    HW214205   5.826   9.653   2.274  1.2691 -0.2737  1.1893
 1246SOL     OW14206   1.417   5.443   2.918  0.4638  0.3527  0.4006
 1246SOL    HW114207   1.402   5.344   2.916  0.7623  0.3357 -1.2722
 1246SOL    HW214208   1.515   5.462   2.915  0.3609  0.7239 -0.7755
 1247SOL     OW14209   1.419   8.837   0.093 -1.2455 -0.3076  0.7055
 1247SOL    HW114210   1.451   8.834  -0.002 -1.2951  0.8690  0.6414
 1247SOL    HW214211   1.357   8.915   0.105 -1.0113 -0.2720  1.7776
 1248SOL     OW14212   7.716   9.397   4.359 -0.0059 -0.6575  0.1464
 1248SOL    HW114213   7.700   9.494   4.378 -0.1820 -0.6880  0.1561
 1248SOL    HW214214   7.809   9.373   4.386 -0.1908 -0.6530  0.7947
 1249SOL     OW14215   0.635   1.916   3.329 -0.0663  0.4204  0.6522
 1249SOL    HW114216   0.651   1.940   3.233  0.2931 -1.1410  0.3033
 1249SOL    HW214217   0.596   1.995   3.377 -0.2173  1.2305 -0.7606
 1250SOL     OW14218   8.858   6.184   0.248 -0.3357  0.1472  0.1722
 1250SOL    HW114219   8.847   6.214   0.153 -1.5295  0.4647  0.4001
 1250SOL    HW214220   8.768   6.175   0.291  0.1323 -1.2664  0.8872
 1251SOL     OW14221   0.977   2.798   4.145 -0.6390  0.6460 -0.4758
 1251SOL    HW114222   1.004   2.868   4.211 -0.1677 -0.1740  0.2161
 1251SOL    HW214223   1.059   2.757   4.105 -0.8998  0.1986 -0.5579
 1252SOL     OW14224   2.094   0.638   4.336  0.0756  0.4403 -0.2607
 1252SOL    HW114225   2.003   0.643   4.377  0.1743  0.4183 -0.0424
 1252SOL    HW214226   2.084   0.619   4.238 -0.1376 -0.3647 -0.0918
 1253SOL     OW14227   4.247   1.389   3.698 -0.6046  0.0394  0.0530
 1253SOL    HW114228   4.205   1.420   3.613  0.0164  2.5898  0.6441
 1253SOL    HW214229   4.222   1.450   3.773  0.9255 -0.6896  1.2004
 1254SOL     OW14230   4.089   4.294   4.499 -0.1232 -0.0014 -0.0102
 1254SOL    HW114231   4.171   4.269   4.550 -0.5847 -0.4924  0.4851
 1254SOL    HW214232   4.026   4.342   4.560  0.2046  1.2449 -0.6268
 1255SOL     OW14233   2.520   9.316   3.610 -0.8190  0.0113  0.7139
 1255SOL    HW114234   2.511   9.230   3.661 -0.2267  0.6415  1.9319
 1255SOL    HW214235   2.617   9.339   3.601 -0.8511 -0.6839 -1.7757
 1256SOL     OW14236   8.688   7.553   3.291  0.0427 -0.6748  0.0455
 1256SOL    HW114237   8.727   7.579   3.203  0.3442 -2.6374 -0.4258
 1256SOL    HW214238   8.728   7.610   3.363  1.8205 -0.8458 -0.7595
 1257SOL     OW14239   8.718   9.950   3.176 -0.4983  0.1212 -0.0994
 1257SOL    HW114240   8.717  10.034   3.121  0.7470  0.6251  0.6258
 1257SOL    HW214241   8.698   9.872   3.117 -0.1713  0.7627 -1.0839
 1258SOL     OW14242   9.891   0.524   0.805 -0.2076 -0.1924 -0.5043
 1258SOL    HW114243   9.835   0.506   0.724 -1.2306 -0.0618  0.1643
 1258SOL    HW214244   9.837   0.574   0.872  1.1378  1.1326 -0.3964
 1259SOL     OW14245   0.473   2.878   2.568  0.1032 -0.7724 -0.3303
 1259SOL    HW114246   0.531   2.959   2.567  0.6668 -1.1680 -1.3911
 1259SOL    HW214247   0.468   2.840   2.475 -0.7568 -1.5170  0.0110
 1260SOL     OW14248   0.957   9.285   3.990  0.1211  0.2445  0.3303
 1260SOL    HW114249   1.049   9.277   3.951 -0.3636 -0.9707 -0.5947
 1260SOL    HW214250   0.963   9.294   4.090  1.2653  0.8239  0.2123
 1261SOL     OW14251   1.564   9.620   1.990  0.2858  0.0266 -0.3507
 1261SOL    HW114252   1.466   9.601   1.979  0.2806 -0.3636  0.3396
 1261SOL    HW214253   1.612   9.598   1.906 -0.2456  0.3832 -0.7538
 1262SOL     OW14254   6.446   9.584   0.000  0.8026 -0.4991 -0.4473
 1262SOL    HW114255   6.531   9.637   0.001  1.4834 -1.5929  0.1059
 1262SOL    HW214256   6.460   9.500  -0.052 -0.2383 -0.2023 -1.2126
 1263SOL     OW14257   8.588   6.477   2.216  0.4645  0.0978 -0.0088
 1263SOL    HW114258   8.617   6.398   2.163  1.4316  0.9493 -0.7945
 1263SOL    HW214259   8.607   6.462   2.313  0.9961 -0.4681 -0.2015
 1264SOL     OW14260   2.377   3.178   1.401  0.0859  0.0460 -0.1192
 1264SOL    HW114261   2.295   3.211   1.448  0.5405 -0.1145  0.7781
 1264SOL    HW214262   2.349   3.125   1.320 -0.6983 -0.0469  0.2080
 1265SOL     OW14263   1.762   6.686   0.113 -0.7423  0.2565 -0.4549
 1265SOL    HW114264   1.778   6.739   0.196 -0.7166  1.7364 -1.3961
 1265SOL    HW214265   1.804   6.732   0.035 -1.4029 -0.7376 -1.4102
 1266SOL     OW14266   2.254   7.970   2.454 -0.5076  0.2482 -0.2836
 1266SOL    HW114267   2.174   7.986   2.512  0.1601  0.4388  0.6075
 1266SOL    HW214268   2.312   8.051   2.454  0.1415 -0.2110 -0.1828
 1267SOL     OW14269   6.679   0.739   2.573 -0.3809 -0.1560  0.2250
 1267SOL    HW114270   6.664   0.702   2.481  2.6444 -0.8077 -0.0585
 1267SOL    HW214271   6.610   0.808   2.592 -1.4950 -0.5123 -2.2660
 1268SOL     OW14272   3.984   8.514   1.798  0.3993 -0.2181  0.3429
 1268SOL    HW114273   3.977   8.491   1.701 -0.1815 -0.0243  0.3361
 1268SOL    HW214274   3.966   8.433   1.853 -0.9577  0.0453  0.3091
 1269SOL     OW14275   0.678   4.270   2.218  0.0616 -0.1557 -0.3927
 1269SOL    HW114276   0.633   4.256   2.130  0.0146 -0.8118 -0.2675
 1269SOL    HW214277   0.681   4.184   2.268 -0.6122  0.3730  0.5841
 1270SOL     OW14278   2.338   9.514   2.400  0.2862  0.5723 -0.2083
 1270SOL    HW114279   2.394   9.488   2.321 -0.6187  0.7711 -0.9258
 1270SOL    HW214280   2.386   9.583   2.454  0.5540  1.0520 -1.0469
 1271SOL     OW14281   0.699   7.114   3.999  0.3996 -0.3269 -0.2073
 1271SOL    HW114282   0.601   7.133   3.998  0.4550  0.0273  0.4109
 1271SOL    HW214283   0.739   7.135   3.910  0.0872  0.4774 -0.1595
 1272SOL     OW14284   7.856   0.555   0.929  0.3048 -0.2148  0.3594
 1272SOL    HW114285   7.822   0.502   1.006  1.5379 -1.5719 -0.0179
 1272SOL    HW214286   7.911   0.632   0.963  1.3380 -1.1470  0.8355
 1273SOL     OW14287   3.678   7.978   3.259  0.2491  0.1054  0.0205
 1273SOL    HW114288   3.692   7.897   3.315 -0.0540  0.0524  0.0180
 1273SOL    HW214289   3.731   8.055   3.296 -0.2123  0.1581  0.5630
 1274SOL     OW14290   8.658   6.297   3.243 -0.2561  0.4037  0.1009
 1274SOL    HW114291   8.642   6.226   3.174 -1.3644 -1.5962  2.3272
 1274SOL    HW214292   8.748   6.338   3.229  0.6510 -1.8387 -0.9382
 1275SOL     OW14293   2.281   6.714   0.303  0.7129  0.6118 -0.1267
 1275SOL    HW114294   2.257   6.659   0.223 -0.5828  0.3371  0.4340
 1275SOL    HW214295   2.359   6.673   0.350  0.1871 -0.3588 -0.0977
 1276SOL     OW14296   3.704   4.093   1.609  0.1697 -0.2988  0.2964
 1276SOL    HW114297   3.692   4.067   1.513 -0.2192 -0.6701  0.4409
 1276SOL    HW214298   3.620   4.137   1.642  0.5195  0.3730  0.2968
 1277SOL     OW14299   1.298   6.767   4.449  0.2103 -0.8888  0.2709
 1277SOL    HW114300   1.281   6.840   4.383 -0.6247 -0.6891  0.6969
 1277SOL    HW214301   1.396   6.748   4.454  0.3812 -0.1369 -0.2077
 1278SOL     OW14302   2.835   9.970   4.704  0.0152  0.3056 -0.5155
 1278SOL    HW114303   2.908   9.997   4.641 -0.1924 -1.2854 -1.4867
 1278SOL    HW214304   2.823  10.040   4.774  2.1830  0.7934 -0.5886
 1279SOL     OW14305   3.522   2.360   1.004 -0.1178 -0.3773 -0.4819
 1279SOL    HW114306   3.512   2.452   0.966 -0.9579 -0.3917 -0.3219
 1279SOL    HW214307   3.467   2.353   1.088 -1.8999 -1.6977 -1.7034
 1280SOL     OW14308   7.738   6.681   3.077  0.2034  0.2423  0.3392
 1280SOL    HW114309   7.803   6.608   3.055  0.4471  0.1081  1.4504
 1280SOL    HW214310   7.680   6.699   2.998  1.6324  0.4092 -0.6838
 1281SOL     OW14311   8.772   9.219   1.593 -0.2719  0.3296  0.6919
 1281SOL    HW114312   8.731   9.132   1.618 -0.6443  0.4372  0.4587
 1281SOL    HW214313   8.739   9.247   1.503  0.1807  0.4998  0.5764
 1282SOL     OW14314   1.208   8.422   0.173 -0.1168 -0.1471  0.3591
 1282SOL    HW114315   1.249   8.335   0.145 -1.7303 -0.9372  0.4409
 1282SOL    HW214316   1.204   8.484   0.095 -0.3146 -0.6622 -0.0408
 1283SOL     OW14317   0.500   6.922   2.193 -0.2448  0.1535  0.5224
 1283SOL    HW114318   0.489   6.823   2.198  1.4723 -0.0062  1.5293
 1283SOL    HW214319   0.555   6.954   2.270 -0.0769  1.7797 -0.2396
 1284SOL     OW14320   2.164   4.478   1.118 -0.0803 -0.7461  0.4045
 1284SOL    HW114321   2.231   4.405   1.133  0.0379 -0.6423  0.3772
 1284SOL    HW214322   2.078   4.438   1.085 -0.4775 -1.0307  1.7420
 1285SOL     OW14323   0.535   3.499   3.528 -0.2573  0.2418 -0.1432
 1285SOL    HW114324   0.437   3.518   3.535 -0.3354  0.2192 -1.0212
 1285SOL    HW214325   0.564   3.441   3.603 -1.1162 -0.5228 -0.4032
 1286SOL     OW14326   1.768   8.419   4.421 -0.2520 -0.2097 -0.1805
 1286SOL    HW114327   1.839   8.444   4.487  1.6667 -1.5102 -1.7165
 1286SOL    HW214328   1.739   8.501   4.371  2.5975 -0.1765 -1.8839
 1287SOL     OW14329   2.635   5.438   0.156  0.5265 -0.3725 -0.0342
 1287SOL    HW114330   2.663   5.429   0.252 -0.4372 -0.4300  0.2505
 1287SOL    HW214331   2.599   5.529   0.140  0.0563 -0.5811 -0.1727
 1288SOL     OW14332   3.938   2.925   0.137 -0.0803  0.2988 -0.6392
 1288SOL    HW114333   4.016   2.978   0.104  0.3601  0.7429  1.0770
 1288SOL    HW214334   3.971   2.842   0.182 -0.4935  1.3948  1.7315
 1289SOL     OW14335   4.739   0.970   1.728  0.1840  0.3754 -0.1320
 1289SOL    HW114336   4.743   0.870   1.739 -1.8774  0.3354  0.5730
 1289SOL    HW214337   4.726   0.992   1.632  0.7835 -0.0449 -0.3071
 1290SOL     OW14338   4.335   8.364   4.427  0.2967 -0.7019 -0.1094
 1290SOL    HW114339   4.401   8.321   4.488  0.3999 -0.5075 -0.0810
 1290SOL    HW214340   4.377   8.444   4.383  0.3136 -1.0081 -0.6550
 1291SOL     OW14341   8.659   8.150   1.345 -0.0443 -0.0683  0.1737
 1291SOL    HW114342   8.731   8.190   1.287 -0.4561  0.2952 -0.0865
 1291SOL    HW214343   8.699   8.124   1.433  0.8105 -1.5281 -0.6196
 1292SOL     OW14344   1.592   7.132   2.733  0.2924 -0.5367  0.1905
 1292SOL    HW114345   1.646   7.168   2.657  2.3092 -0.2234  1.7348
 1292SOL    HW214346   1.515   7.079   2.697  0.7952  0.2001 -2.0612
 1293SOL     OW14347   3.810   7.796   4.174  0.0759  0.2254  0.2040
 1293SOL    HW114348   3.844   7.880   4.216 -1.1823  1.5924 -1.4458
 1293SOL    HW214349   3.866   7.772   4.095 -2.5791  2.4598 -2.4970
 1294SOL     OW14350   9.965   5.547   0.168 -0.3807 -0.0483 -0.0588
 1294SOL    HW114351   9.879   5.587   0.137 -1.1063 -0.9097  0.8117
 1294SOL    HW214352   9.951   5.451   0.190  0.6527 -0.0334  0.7010
 1295SOL     OW14353   2.885   6.865   3.771 -0.2077 -0.1265  0.2755
 1295SOL    HW114354   2.941   6.783   3.773  0.7216  0.5230  1.1366
 1295SOL    HW214355   2.924   6.932   3.708  1.5598  1.4099  2.9158
 1296SOL     OW14356   4.416   9.523   4.277 -0.4749 -0.5491 -0.2977
 1296SOL    HW114357   4.434   9.567   4.189 -0.4057  2.3077  1.0548
 1296SOL    HW214358   4.319   9.535   4.301  0.4557  3.0240  2.1538
 1297SOL     OW14359   9.062   9.092   1.271 -0.1830 -0.3032  0.0047
 1297SOL    HW114360   9.084   8.995   1.284 -0.9087 -0.6431 -1.1885
 1297SOL    HW214361   9.118   9.129   1.196 -2.1074 -0.6413 -1.6502
 1298SOL     OW14362   4.679   2.821   1.671  0.0295 -0.1396 -0.1560
 1298SOL    HW114363   4.721   2.891   1.729 -0.4728 -1.9438  2.4991
 1298SOL    HW214364   4.580   2.821   1.686 -0.2548  0.1733 -1.9576
 1299SOL     OW14365   3.412   0.222   2.322 -0.2047 -0.2670 -0.1373
 1299SOL    HW114366   3.506   0.254   2.338 -0.4147 -0.1639  0.9770
 1299SOL    HW214367   3.360   0.294   2.275 -0.5254  0.8773  1.8826
 1300SOL     OW14368   3.008   8.452   3.337  0.0894  0.0613  0.3477
 1300SOL    HW114369   3.020   8.543   3.377 -1.0307 -0.2086  1.3340
 1300SOL    HW214370   3.001   8.459   3.238  1.5156  0.8951  0.2934
 1301SOL     OW14371   4.412   0.872   1.745  0.6174  0.0311 -0.0335
 1301SOL    HW114372   4.411   0.879   1.845  0.1105  0.0595 -0.0356
 1301SOL    HW214373   4.321   0.845   1.713  0.9016 -0.4356 -0.4584
 1302SOL     OW14374   6.791   8.109   2.152 -0.6442  0.2829  0.2744
 1302SOL    HW114375   6.811   8.018   2.190 -2.4401  0.0008  0.5848
 1302SOL    HW214376   6.876   8.162   2.149  0.8087 -2.0014 -1.6120
 1303SOL     OW14377   3.747   1.299   4.390  0.0522 -0.1027 -0.0460
 1303SOL    HW114378   3.677   1.228   4.382  0.4545 -0.4794 -0.2343
 1303SOL    HW214379   3.837   1.260   4.371  0.4543  0.1026  1.4174
 1304SOL     OW14380   2.596   4.722   0.060  0.1583 -0.3139 -0.2030
 1304SOL    HW114381   2.657   4.731   0.140 -1.0773  1.7186  0.5558
 1304SOL    HW214382   2.636   4.770  -0.018 -0.0512  0.2905  0.0564
 1305SOL     OW14383   0.493   3.927   3.276 -0.2999 -0.3068 -0.1494
 1305SOL    HW114384   0.470   3.883   3.362 -2.6876 -0.7027 -0.9528
 1305SOL    HW214385   0.561   3.998   3.292  0.6501 -1.6159  1.7581
 1306SOL     OW14386   9.823   6.517   2.553 -0.0531  0.1680 -0.0817
 1306SOL    HW114387   9.888   6.540   2.626 -1.2088 -0.1206  1.0696
 1306SOL    HW214388   9.800   6.599   2.501  1.5415  0.1921 -0.7511
 1307SOL     OW14389   0.617   9.205   2.452 -0.6978  0.2567 -0.2062
 1307SOL    HW114390   0.648   9.280   2.510 -1.7333 -0.0363  0.7546
 1307SOL    HW214391   0.587   9.129   2.510  1.2013 -1.2599 -1.1659
 1308SOL     OW14392   1.549   2.676   0.611  0.1212  0.0659 -0.0059
 1308SOL    HW114393   1.477   2.668   0.542  0.9590 -1.4910 -0.7515
 1308SOL    HW214394   1.513   2.720   0.693 -1.9175 -1.4442 -0.0509
 1309SOL     OW14395   2.798   3.821   1.078  0.5006  0.4883 -0.6905
 1309SOL    HW114396   2.720   3.789   1.025  1.4693 -0.2460 -1.6875
 1309SOL    HW214397   2.787   3.918   1.097  0.1266  0.7582 -2.2177
 1310SOL     OW14398   3.599   2.363   4.046 -0.8652 -0.5333 -0.6028
 1310SOL    HW114399   3.664   2.438   4.055 -0.1032 -1.2014 -0.4809
 1310SOL    HW214400   3.555   2.347   4.134 -0.8499 -0.3895 -0.5694
 1311SOL     OW14401   1.050   2.989   4.327 -0.2359 -0.3067 -0.2263
 1311SOL    HW114402   1.068   3.088   4.324 -0.0820 -0.2628  1.4699
 1311SOL    HW214403   1.108   2.947   4.397 -2.9458 -0.9933  1.6757
 1312SOL     OW14404   2.463   5.400   1.109 -0.1379 -0.3785  0.0108
 1312SOL    HW114405   2.466   5.500   1.100  0.3778 -0.4803 -1.0395
 1312SOL    HW214406   2.410   5.375   1.190  0.6187  0.7791  0.8713
 1313SOL     OW14407   2.883   9.800   2.876  0.6294 -0.3868 -0.3323
 1313SOL    HW114408   2.807   9.790   2.940  0.2578  0.5968 -0.6241
 1313SOL    HW214409   2.871   9.737   2.799  0.0786 -0.1856 -0.4109
 1314SOL     OW14410   0.112   1.573   1.374 -0.2240 -0.4184 -0.5945
 1314SOL    HW114411   0.058   1.491   1.390 -1.9268  0.4128 -2.0056
 1314SOL    HW214412   0.086   1.644   1.439  0.6750 -0.7177  0.0988
 1315SOL     OW14413   0.250   8.841   4.033 -0.0835 -0.0158 -0.4051
 1315SOL    HW114414   0.305   8.785   3.971 -0.7752 -0.0934 -0.9553
 1315SOL    HW214415   0.230   8.789   4.116  0.1032 -0.2277 -0.4929
 1316SOL     OW14416   6.994   8.304   2.881  0.1580  0.2538 -0.0616
 1316SOL    HW114417   6.921   8.269   2.822  1.4445 -3.0821  0.1989
 1316SOL    HW214418   6.954   8.335   2.967 -1.0190 -1.3923  0.0287
 1317SOL     OW14419   7.048   9.007   3.666  0.2106  0.3010  0.0953
 1317SOL    HW114420   7.061   9.103   3.690 -0.6976  0.3606  0.3806
 1317SOL    HW214421   7.100   8.949   3.730 -1.6979  0.4888  1.8590
 1318SOL     OW14422   3.477   8.267   1.664  0.2973 -0.4872  0.3044
 1318SOL    HW114423   3.563   8.290   1.617 -0.9167  1.9269 -0.8347
 1318SOL    HW214424   3.402   8.265   1.598 -0.6105 -2.1431  1.3657
 1319SOL     OW14425   9.450   6.521   0.483 -0.2497  0.6085  0.1209
 1319SOL    HW114426   9.369   6.469   0.513  0.2046 -0.8927 -1.1723
 1319SOL    HW214427   9.525   6.506   0.547 -0.6810  1.1802  0.7651
 1320SOL     OW14428   6.697   9.682   1.870 -0.1537  0.2189  0.4802
 1320SOL    HW114429   6.711   9.625   1.951 -0.7367 -1.1988 -0.3958
 1320SOL    HW214430   6.599   9.692   1.852 -0.0501  1.2244  0.4158
 1321SOL     OW14431   1.778   5.275   2.079  0.0082  0.0256 -0.2948
 1321SOL    HW114432   1.742   5.250   1.990 -1.5631  0.0362  0.3178
 1321SOL    HW214433   1.738   5.216   2.149  0.8097  0.3728  0.4709
 1322SOL     OW14434   0.890   7.083   0.038  0.7391 -0.1042 -0.5372
 1322SOL    HW114435   0.924   7.035  -0.043  0.3837  0.5695 -1.0853
 1322SOL    HW214436   0.967   7.117   0.092  0.9547  0.7689 -1.3869
 1323SOL     OW14437   4.532   3.385   3.099 -0.0260 -0.6692 -0.1036
 1323SOL    HW114438   4.486   3.437   3.171  0.4186 -0.6787  0.1938
 1323SOL    HW214439   4.606   3.440   3.061  0.0448 -0.8470 -0.2220
 1324SOL     OW14440   9.479   8.516   0.183  0.3336  0.0799 -0.0192
 1324SOL    HW114441   9.576   8.495   0.182  0.4230  0.5137 -0.2835
 1324SOL    HW214442   9.465   8.613   0.168 -0.1000  0.1848  0.9850
 1325SOL     OW14443   4.565   0.810   1.322 -0.5900  0.7867  0.3515
 1325SOL    HW114444   4.508   0.847   1.248 -1.0412 -0.2912  0.1552
 1325SOL    HW214445   4.617   0.731   1.289 -1.1414  0.0135  1.3071
 1326SOL     OW14446   1.709   6.156   3.296  0.7249  0.2834  0.2805
 1326SOL    HW114447   1.682   6.156   3.199  1.0076 -2.0420  0.1787
 1326SOL    HW214448   1.635   6.196   3.350  0.4264  1.3123 -0.8549
 1327SOL     OW14449   2.327   5.808   4.378 -0.0316  0.6814  0.0394
 1327SOL    HW114450   2.422   5.833   4.363  0.0230  0.4275 -0.0422
 1327SOL    HW214451   2.275   5.824   4.294  0.0652  0.2365 -0.1067
 1328SOL     OW14452   2.619   7.027   1.473  0.0826  0.0765  0.7386
 1328SOL    HW114453   2.574   7.105   1.515 -2.1890 -1.0094  0.3840
 1328SOL    HW214454   2.700   7.058   1.422 -1.2931  2.3058 -0.1616
 1329SOL     OW14455   1.976   0.182   3.629  0.0298 -0.5571  0.6862
 1329SOL    HW114456   1.940   0.092   3.654  0.1859 -1.2469 -1.5213
 1329SOL    HW214457   2.075   0.178   3.623 -0.1284 -1.0500 -2.3709
 1330SOL     OW14458   2.957   0.734   1.894  0.9102 -0.7093 -0.0210
 1330SOL    HW114459   2.881   0.704   1.837  2.0430 -0.3520 -1.7337
 1330SOL    HW214460   2.923   0.757   1.986 -1.9296  4.1102 -2.0662
 1331SOL     OW14461   0.345   6.337   0.657  0.5390 -0.4710 -0.5785
 1331SOL    HW114462   0.268   6.380   0.704  1.0717  1.2647 -1.2598
 1331SOL    HW214463   0.337   6.238   0.665 -0.8186 -0.2713  0.8587
 1332SOL     OW14464   2.900   8.161   4.301  0.0107  0.0307  0.1059
 1332SOL    HW114465   2.837   8.106   4.356 -0.2959  1.0181  0.7512
 1332SOL    HW214466   2.852   8.242   4.268  0.4125 -0.1770 -0.9915
 1333SOL     OW14467   8.665   8.289   0.422 -0.2511 -0.6134  0.3071
 1333SOL    HW114468   8.637   8.361   0.486  2.3187 -0.1992  1.0223
 1333SOL    HW214469   8.748   8.318   0.375  0.1400 -2.6389 -0.2580
 1334SOL     OW14470   2.951   9.950   3.559 -0.0084  0.6846 -0.0351
 1334SOL    HW114471   2.979   9.928   3.652 -1.2600 -0.1095  0.1636
 1334SOL    HW214472   3.013  10.019   3.521  0.1980  1.4019  1.5654
 1335SOL     OW14473   1.262   0.940   4.202 -0.1107  0.4228  0.0127
 1335SOL    HW114474   1.304   1.009   4.143  0.1106 -0.3605 -0.7510
 1335SOL    HW214475   1.323   0.920   4.279  0.3224  0.2676 -0.3701
 1336SOL     OW14476   2.201   0.179   0.751  0.4595 -0.1539  0.1577
 1336SOL    HW114477   2.177   0.093   0.797 -0.2319  1.4981  3.0574
 1336SOL    HW214478   2.288   0.213   0.787 -0.0140  1.1049  0.1426
 1337SOL     OW14479   2.587   7.391   0.132 -0.0152 -0.1696  0.4998
 1337SOL    HW114480   2.490   7.403   0.108 -0.1720  0.6905  1.5260
 1337SOL    HW214481   2.595   7.370   0.229  0.9351  1.5842  0.8255
 1338SOL     OW14482   8.535   6.572   3.188  0.3881 -0.4265 -0.0265
 1338SOL    HW114483   8.604   6.511   3.150  0.4079  0.0372 -0.7586
 1338SOL    HW214484   8.451   6.567   3.133 -0.5907 -1.8671  1.5462
 1339SOL     OW14485   3.066   0.782   4.130 -0.2558  0.7197 -0.1382
 1339SOL    HW114486   2.976   0.804   4.168 -0.7590 -0.6670 -0.5204
 1339SOL    HW214487   3.055   0.743   4.038  0.4440 -3.4419  1.4719
 1340SOL     OW14488   4.938   8.075   3.071 -0.5927 -0.1689 -0.5823
 1340SOL    HW114489   4.866   8.104   3.134 -1.3105 -1.7411 -0.6656
 1340SOL    HW214490   5.025   8.070   3.121 -0.9644 -0.4251  0.0384
 1341SOL     OW14491   3.521   8.338   0.866  0.2832 -0.0672 -0.3910
 1341SOL    HW114492   3.486   8.261   0.919 -1.7180  1.1650  0.1006
 1341SOL    HW214493   3.466   8.349   0.783  0.2138  1.1929 -0.1763
 1342SOL     OW14494   5.843   8.577   3.214 -0.3793  0.7986 -0.1183
 1342SOL    HW114495   5.781   8.609   3.287  0.9457  1.5792  0.6954
 1342SOL    HW214496   5.912   8.647   3.197  2.6102 -1.5676  1.6999
 1343SOL     OW14497   1.566   3.914   3.620  0.7264 -0.2544 -0.1954
 1343SOL    HW114498   1.605   3.867   3.699  0.3038 -0.2592  0.0158
 1343SOL    HW214499   1.603   3.875   3.536  1.9966  0.4755  0.0200
 1344SOL     OW14500   9.667   6.658   1.429 -0.4060 -0.4823  0.9051
 1344SOL    HW114501   9.584   6.617   1.390 -1.2505  1.2845  0.8077
 1344SOL    HW214502   9.643   6.716   1.506  0.7243  0.2236  0.7405
 1345SOL     OW14503   0.312   6.674   0.487  0.1316  0.1314 -0.4008
 1345SOL    HW114504   0.338   6.584   0.453 -0.8881  0.1079 -1.1620
 1345SOL    HW214505   0.226   6.667   0.537  0.9242  0.4040  1.0256
 1346SOL     OW14506   3.879   7.252   3.792 -0.4663  0.0312 -0.2053
 1346SOL    HW114507   3.817   7.328   3.769 -0.4677  0.0789 -0.0436
 1346SOL    HW214508   3.941   7.282   3.864  0.2025  0.2109 -0.8538
 1347SOL     OW14509   3.559   3.877   2.822  0.0710 -0.3960  0.2483
 1347SOL    HW114510   3.501   3.929   2.885  0.2321  0.1219 -0.0221
 1347SOL    HW214511   3.648   3.862   2.864 -0.2199 -1.0809  0.6143
 1348SOL     OW14512   1.227   1.020   0.305  0.0206 -0.0359  0.1277
 1348SOL    HW114513   1.216   1.081   0.384 -0.2591  0.8401 -0.5850
 1348SOL    HW214514   1.281   1.066   0.235  0.3514 -0.8546 -0.1642
 1349SOL     OW14515   2.770   0.728   0.992  0.2439  0.5276 -0.1522
 1349SOL    HW114516   2.790   0.637   1.030 -0.6132  0.7812  0.9238
 1349SOL    HW214517   2.699   0.772   1.046  1.9055  2.5957  0.4248
 1350SOL     OW14518   1.759   8.142   4.330  0.0969 -0.8897  0.7268
 1350SOL    HW114519   1.759   8.233   4.371 -1.0095 -0.3727 -0.3752
 1350SOL    HW214520   1.675   8.094   4.354  0.1169 -1.1504  0.2835
 1351SOL     OW14521   2.568   0.370   3.191 -0.7520  0.4456 -0.2552
 1351SOL    HW114522   2.646   0.339   3.245 -1.1004 -0.5912 -0.3454
 1351SOL    HW214523   2.487   0.315   3.215 -1.2319  0.8919 -0.8432
 1352SOL     OW14524   9.080   6.637   3.589 -0.0456  0.5766 -0.2891
 1352SOL    HW114525   9.154   6.704   3.583 -0.6068  1.4575  2.2059
 1352SOL    HW214526   8.994   6.684   3.609 -0.5843 -0.8323  0.7329
 1353SOL     OW14527   2.117   2.229   0.163 -1.4737 -0.4956  0.0611
 1353SOL    HW114528   2.109   2.188   0.254 -2.9308  1.4806  0.8725
 1353SOL    HW214529   2.041   2.200   0.106 -0.9932 -1.1070 -0.2706
 1354SOL     OW14530   1.048   5.204   1.950  0.0466 -0.3605  0.2203
 1354SOL    HW114531   1.014   5.260   1.875 -1.2520  0.1434  1.1535
 1354SOL    HW214532   0.981   5.204   2.024  0.8294 -1.7158  0.9494
 1355SOL     OW14533   3.198   1.300   3.303  0.2259 -0.2778  0.6376
 1355SOL    HW114534   3.121   1.352   3.266 -0.8299 -1.3722  1.2613
 1355SOL    HW214535   3.283   1.341   3.272 -0.6189  0.1162 -1.2297
 1356SOL     OW14536   0.867   6.070   2.626 -0.9936 -0.3757  0.9034
 1356SOL    HW114537   0.964   6.084   2.606 -0.9285  0.0708  1.5196
 1356SOL    HW214538   0.812   6.116   2.557 -0.7735  1.3820  1.8681
 1357SOL     OW14539   3.494   7.463   2.534 -0.7741  0.3492 -0.4578
 1357SOL    HW114540   3.564   7.533   2.519  1.2673 -1.3589  0.7820
 1357SOL    HW214541   3.463   7.427   2.446 -0.4057  1.4152 -1.0345
 1358SOL     OW14542   2.800   0.171   2.173  0.1312 -0.1042  0.1012
 1358SOL    HW114543   2.709   0.146   2.138 -1.3493  1.8131  2.3725
 1358SOL    HW214544   2.844   0.233   2.108 -0.7651  0.0427 -0.3841
 1359SOL     OW14545   3.482   4.431   0.236 -0.3078  0.1499  0.8737
 1359SOL    HW114546   3.465   4.483   0.320 -3.0264  0.8464 -0.0335
 1359SOL    HW214547   3.438   4.341   0.244 -0.0928  0.0051  0.4164
 1360SOL     OW14548   9.633   0.664   2.380 -0.0998 -0.3963 -1.4181
 1360SOL    HW114549   9.554   0.703   2.427  0.2693 -0.9292 -0.3261
 1360SOL    HW214550   9.715   0.717   2.404  0.3111 -1.5048 -0.3692
 1361SOL     OW14551   8.869   0.559   0.475 -0.5794  0.1137 -0.3203
 1361SOL    HW114552   8.900   0.482   0.420 -0.0033 -0.1310  0.3399
 1361SOL    HW214553   8.771   0.570   0.465 -0.6195 -0.5191 -0.6461
 1362SOL     OW14554   3.839   4.026   2.759  0.5501 -0.3792 -0.3075
 1362SOL    HW114555   3.867   3.949   2.817 -1.0999 -0.3789  0.5376
 1362SOL    HW214556   3.760   4.071   2.800  0.6615  0.9370 -1.5008
 1363SOL     OW14557   1.737   4.712   0.487 -0.2277 -0.1853  0.1203
 1363SOL    HW114558   1.686   4.645   0.433  2.9741 -2.9133  0.3208
 1363SOL    HW214559   1.678   4.748   0.559 -2.8146 -0.7858 -1.6271
 1364SOL     OW14560   8.763   7.110   3.517 -0.0634 -0.0388 -0.1335
 1364SOL    HW114561   8.697   7.181   3.494  1.7311  2.1258  1.1942
 1364SOL    HW214562   8.822   7.092   3.439 -1.3229 -0.9881 -0.8766
 1365SOL     OW14563   8.667   9.446   2.963  0.4863  0.4749  0.0840
 1365SOL    HW114564   8.576   9.419   2.995  0.4381  0.8310  0.2494
 1365SOL    HW214565   8.723   9.364   2.951 -0.7541 -0.0097 -2.8098
 1366SOL     OW14566   8.797   9.854   0.613 -0.1175  0.6815  0.1057
 1366SOL    HW114567   8.882   9.898   0.585 -0.1496  0.0147 -1.0841
 1366SOL    HW214568   8.719   9.903   0.574 -0.2113  0.4678  0.0187
 1367SOL     OW14569   0.596   2.416   3.454  0.2704  0.3535 -0.3702
 1367SOL    HW114570   0.520   2.448   3.510 -0.4810 -1.3866 -0.3709
 1367SOL    HW214571   0.626   2.489   3.393  0.7395  2.0926  1.8920
 1368SOL     OW14572   3.907   4.203   1.135 -0.0487  0.6365  0.2044
 1368SOL    HW114573   3.891   4.234   1.041  2.2916 -0.1633 -0.4901
 1368SOL    HW214574   3.923   4.104   1.135 -0.1740  0.6117  1.4625
 1369SOL     OW14575   1.660   4.904   0.907 -0.2788  0.2928 -0.9725
 1369SOL    HW114576   1.587   4.967   0.933 -0.0453 -0.2555  1.1275
 1369SOL    HW214577   1.699   4.863   0.989  3.6435  1.9289 -1.8840
 1370SOL     OW14578   3.149   7.118   3.910 -1.0208  0.0100 -0.1138
 1370SOL    HW114579   3.162   7.144   3.814 -0.8206 -2.0697 -0.6866
 1370SOL    HW214580   3.056   7.141   3.938 -0.7836  1.5159 -0.4945
 1371SOL     OW14581   3.349   9.902   2.943  0.2372 -0.3526  0.1585
 1371SOL    HW114582   3.260   9.862   2.961  1.0468 -2.1721  0.2299
 1371SOL    HW214583   3.346   9.956   2.859 -1.0875  0.1559  0.5234
 1372SOL     OW14584   1.162   8.921   2.352  0.2853 -0.4817 -0.2159
 1372SOL    HW114585   1.254   8.960   2.348  0.2769 -0.4674 -0.2692
 1372SOL    HW214586   1.105   8.964   2.283 -0.2867  0.8713  1.0776
 1373SOL     OW14587   2.806   6.274   4.338  0.1820  0.1964  0.1900
 1373SOL    HW114588   2.847   6.222   4.413 -0.3295  0.6337  0.7682
 1373SOL    HW214589   2.835   6.369   4.344 -1.0973  0.5535  0.7270
 1374SOL     OW14590   5.596   1.173   2.949 -0.1769 -0.2686 -0.4870
 1374SOL    HW114591   5.586   1.105   3.021  0.8764 -0.1556 -0.2305
 1374SOL    HW214592   5.522   1.162   2.882 -1.3103 -0.1905  0.7390
 1375SOL     OW14593   8.388   8.793   0.615  0.1209  0.8621  0.3722
 1375SOL    HW114594   8.328   8.742   0.676  0.5089 -1.0366 -0.7965
 1375SOL    HW214595   8.386   8.752   0.524  2.6780  1.1685  0.1443
 1376SOL     OW14596   1.665   4.312   0.724  0.1917 -0.1206  0.6801
 1376SOL    HW114597   1.569   4.336   0.738  0.4004  1.2822 -0.1955
 1376SOL    HW214598   1.720   4.396   0.720  1.6931 -0.9818  2.8377
 1377SOL     OW14599   3.424   4.474   3.007  0.1151  0.0362 -0.2221
 1377SOL    HW114600   3.417   4.519   2.918  0.3185  1.3201  0.3957
 1377SOL    HW214601   3.338   4.427   3.027 -0.9519  2.0454  0.0933
 1378SOL     OW14602   1.039   1.673   4.740  0.3060  0.3536  0.3768
 1378SOL    HW114603   1.137   1.688   4.747  0.5493 -0.9116 -0.1468
 1378SOL    HW214604   1.021   1.578   4.713 -0.9755  1.2740 -2.2057
 1379SOL     OW14605   7.113   8.470   0.857 -0.1740 -0.5118  0.5568
 1379SOL    HW114606   7.150   8.481   0.765 -1.3471 -0.5492  0.0652
 1379SOL    HW214607   7.093   8.373   0.874 -0.0375 -0.4936  0.8235
 1380SOL     OW14608   0.450   4.966   4.115 -0.8719 -0.3859 -0.4209
 1380SOL    HW114609   0.456   5.013   4.203 -0.5133  0.1075 -0.7070
 1380SOL    HW214610   0.392   4.884   4.124 -1.0014 -0.2217  0.2187
 1381SOL     OW14611   1.850   9.829   0.776 -0.0566 -0.5672  0.0212
 1381SOL    HW114612   1.901   9.782   0.849  0.1039 -0.0994  0.2095
 1381SOL    HW214613   1.915   9.877   0.717 -0.3507  0.8321  0.8247
 1382SOL     OW14614   3.544   8.218   3.923  0.2773 -0.1563 -0.6758
 1382SOL    HW114615   3.603   8.297   3.908  0.3809 -0.1442 -0.2034
 1382SOL    HW214616   3.599   8.135   3.925  0.5502  0.0613  1.9373
 1383SOL     OW14617   8.001   9.443   3.230  0.0988 -0.0579 -0.2504
 1383SOL    HW114618   8.096   9.466   3.212 -0.5562  1.4973 -1.8886
 1383SOL    HW214619   7.978   9.356   3.186  1.0199 -0.9802  1.0446
 1384SOL     OW14620   8.319   6.416   4.580  0.2188 -0.5042  0.5924
 1384SOL    HW114621   8.384   6.341   4.566  1.2479  0.4687  0.0709
 1384SOL    HW214622   8.363   6.503   4.556 -0.4017  0.4538  2.8076
 1385SOL     OW14623   0.347   0.611   4.136  0.8124 -0.5457  0.0524
 1385SOL    HW114624   0.326   0.671   4.059 -0.2529 -0.9486  0.0148
 1385SOL    HW214625   0.262   0.584   4.181  1.3461 -1.2514  0.6553
 1386SOL     OW14626   2.565   8.510   1.019  0.4890  0.3045  0.3412
 1386SOL    HW114627   2.525   8.431   1.066 -0.6384  0.7449  0.1453
 1386SOL    HW214628   2.663   8.498   1.010  0.5192 -0.4300  1.5754
 1387SOL     OW14629   8.984   7.492   3.503  0.0461  0.3694 -0.1249
 1387SOL    HW114630   8.998   7.575   3.449  0.4842  1.3462  1.4706
 1387SOL    HW214631   9.040   7.418   3.464  1.7175  1.5215  0.0332
 1388SOL     OW14632   6.074   0.102   2.784  0.0601 -0.6531 -0.9515
 1388SOL    HW114633   6.138   0.027   2.801 -0.3593 -0.9712 -0.7409
 1388SOL    HW214634   6.104   0.155   2.705  1.2936  0.0002 -0.0689
 1389SOL     OW14635   9.799   7.311   0.649 -0.2759  0.2506  0.1766
 1389SOL    HW114636   9.868   7.248   0.612  0.5165  1.4400 -0.3822
 1389SOL    HW214637   9.753   7.358   0.574 -0.5190  0.6946  0.6053
 1390SOL     OW14638   8.182   0.742   1.361 -0.4358 -0.0697  0.2785
 1390SOL    HW114639   8.146   0.709   1.274 -2.4977  3.7935 -0.4733
 1390SOL    HW214640   8.271   0.786   1.346 -0.3909 -0.1561  0.2861
 1391SOL     OW14641   3.942   9.915   3.245 -0.2150 -0.0418 -0.3884
 1391SOL    HW114642   3.981   9.918   3.337 -1.8453 -0.5557  0.3398
 1391SOL    HW214643   3.843   9.902   3.252 -0.3178 -0.2795 -2.2287
 1392SOL     OW14644   4.881   0.926   2.626  0.0087  0.1933  0.2304
 1392SOL    HW114645   4.899   0.936   2.724  0.7616 -1.6955  0.2969
 1392SOL    HW214646   4.784   0.903   2.613 -0.3092  1.3468  0.4534
 1393SOL     OW14647   0.514   5.507   3.838 -0.1377 -0.4815  0.3219
 1393SOL    HW114648   0.508   5.552   3.749 -1.8367 -0.9939  0.1503
 1393SOL    HW214649   0.606   5.470   3.850  0.3610  0.3288 -0.8537
 1394SOL     OW14650   1.006   3.081   0.608 -0.0489 -0.7636  0.2687
 1394SOL    HW114651   0.993   2.982   0.608  4.2272 -1.4208  0.1222
 1394SOL    HW214652   1.017   3.114   0.514 -1.4933 -0.1232  0.3125
 1395SOL     OW14653   0.022   0.977   0.929  0.5041  0.7276  0.7411
 1395SOL    HW114654   0.009   0.886   0.968 -1.1460  0.6522  0.0582
 1395SOL    HW214655   0.022   0.970   0.829 -2.2019  1.7577  0.6221
 1396SOL     OW14656   8.783   8.493   3.208  0.4243 -0.7064 -0.3138
 1396SOL    HW114657   8.854   8.435   3.166 -1.0480 -1.7694 -1.4001
 1396SOL    HW214658   8.694   8.447   3.200 -0.8808  1.9886 -1.7431
 1397SOL     OW14659   0.102   4.672   3.880 -0.0464 -0.1352  0.2114
 1397SOL    HW114660   0.116   4.573   3.876  1.4573  0.1094 -1.1253
 1397SOL    HW214661   0.040   4.700   3.807  0.4650  0.0563 -0.1504
 1398SOL     OW14662   2.454   7.993   0.195  0.0177  0.3479 -0.2885
 1398SOL    HW114663   2.447   8.092   0.186 -0.8663  0.2680 -0.4368
 1398SOL    HW214664   2.365   7.954   0.215 -0.0181 -0.6282 -2.2340
 1399SOL     OW14665   7.633   8.895   0.357  0.5767 -0.1590  0.2483
 1399SOL    HW114666   7.617   8.846   0.272  1.3744  0.1687 -0.0994
 1399SOL    HW214667   7.617   8.834   0.435  1.0131 -0.8025 -0.1673
 1400SOL     OW14668   9.437   8.536   2.346  0.1488 -0.1757 -0.0412
 1400SOL    HW114669   9.485   8.590   2.276 -0.8629  0.4539 -0.2550
 1400SOL    HW214670   9.435   8.588   2.432  0.6478 -0.5919  0.2241
 1401SOL     OW14671   1.782   0.530   3.416 -0.3069 -0.4926 -0.0406
 1401SOL    HW114672   1.784   0.450   3.477 -1.9848 -0.5564 -0.0503
 1401SOL    HW214673   1.707   0.520   3.350  0.5198  0.3172 -1.1150
 1402SOL     OW14674   2.667   2.717   4.677  0.0634  0.0194 -0.4951
 1402SOL    HW114675   2.624   2.777   4.610 -0.5206 -0.1020 -0.2378
 1402SOL    HW214676   2.603   2.643   4.701  1.0118 -1.0962 -1.3075
 1403SOL     OW14677   9.478   7.351   3.561  0.2111  0.2857  0.2801
 1403SOL    HW114678   9.427   7.436   3.545 -2.3385 -1.3287 -0.3983
 1403SOL    HW214679   9.522   7.322   3.476  2.1000  1.5343  0.8007
 1404SOL     OW14680   5.244   7.475   2.740  0.3716  0.2390  0.5671
 1404SOL    HW114681   5.162   7.484   2.797  0.6118 -1.2451  1.1621
 1404SOL    HW214682   5.244   7.385   2.696  1.9407  0.0081  1.0074
 1405SOL     OW14683   2.353   6.738   1.045 -0.0329 -0.8712 -0.1636
 1405SOL    HW114684   2.298   6.723   0.963  0.5585  0.4036 -0.8138
 1405SOL    HW214685   2.450   6.740   1.021  0.1581 -0.6621  0.5909
 1406SOL     OW14686   5.534   0.492   3.463 -0.9643 -0.3939  0.3422
 1406SOL    HW114687   5.600   0.560   3.493  0.2158 -1.3028 -0.1821
 1406SOL    HW214688   5.507   0.435   3.540 -1.6522  0.3938  0.6960
 1407SOL     OW14689   2.983   3.160   3.652 -0.3561  0.5164  0.0666
 1407SOL    HW114690   2.954   3.239   3.599  0.6176  1.3076  0.6814
 1407SOL    HW214691   2.926   3.152   3.734 -2.1267 -0.9485 -1.2752
 1408SOL     OW14692   9.472   7.992   4.483  0.6434  0.2265  0.6373
 1408SOL    HW114693   9.407   8.028   4.415 -0.5788  0.3459  1.8409
 1408SOL    HW214694   9.502   7.901   4.454  0.3605  0.3896 -0.2107
 1409SOL     OW14695   6.770   9.237   3.109 -0.6774  0.1824  0.0020
 1409SOL    HW114696   6.771   9.337   3.120  2.6302  0.4635 -2.1753
 1409SOL    HW214697   6.793   9.194   3.196  2.0230  1.4998 -0.0135
 1410SOL     OW14698   0.474   9.773   0.127 -0.1844 -0.0162  0.4507
 1410SOL    HW114699   0.480   9.685   0.174  2.2682  0.4053  1.0074
 1410SOL    HW214700   0.420   9.763   0.043  0.5314 -2.2007  0.2215
 1411SOL     OW14701   4.055   7.374   2.240  0.2166  0.3318 -0.5018
 1411SOL    HW114702   4.152   7.362   2.263  0.5563  1.1207 -1.4821
 1411SOL    HW214703   4.035   7.472   2.232 -0.5257  0.1473 -0.8972
 1412SOL     OW14704   0.365   0.266   2.701  0.1405 -0.2092 -0.3846
 1412SOL    HW114705   0.396   0.171   2.701 -0.9850 -0.5844 -1.0924
 1412SOL    HW214706   0.375   0.304   2.609  3.3810  1.3117  0.4993
 1413SOL     OW14707   4.661   2.282   1.259 -0.5263  0.6193  0.2226
 1413SOL    HW114708   4.690   2.188   1.281 -0.3735  0.4423 -0.7305
 1413SOL    HW214709   4.727   2.346   1.298 -1.1368  0.3772  1.6941
 1414SOL     OW14710   3.383   2.313   1.231  0.1881 -0.1945  0.1760
 1414SOL    HW114711   3.398   2.386   1.298  0.0675 -1.1846  1.3048
 1414SOL    HW214712   3.343   2.234   1.277  1.1937 -1.3086 -0.8465
 1415SOL     OW14713   2.061   0.583   1.859 -0.2599  0.2102 -0.0813
 1415SOL    HW114714   2.156   0.608   1.876  0.6763 -1.3993 -2.7272
 1415SOL    HW214715   2.015   0.657   1.810 -0.2420  0.7911  0.7770
 1416SOL     OW14716   9.756   4.847   2.099 -0.7268  0.3303 -0.3228
 1416SOL    HW114717   9.763   4.748   2.089 -1.7667  0.3093 -0.8922
 1416SOL    HW214718   9.720   4.868   2.190  0.0630  0.2144  0.0243
 1417SOL     OW14719   9.793   5.501   4.698  0.0786 -0.1794 -0.2729
 1417SOL    HW114720   9.741   5.565   4.641 -0.8340 -0.1980  0.5262
 1417SOL    HW214721   9.730   5.448   4.755  0.8142 -1.8697 -0.9847
 1418SOL     OW14722   1.355   0.936   2.683  0.3979 -0.1241  0.2020
 1418SOL    HW114723   1.422   0.932   2.757  1.4440 -0.1543 -0.7455
 1418SOL    HW214724   1.346   1.030   2.650  0.4144 -0.2202 -0.0782
 1419SOL     OW14725   3.907   4.175   0.437 -0.0121 -0.5341  0.2085
 1419SOL    HW114726   3.982   4.242   0.445 -0.4063 -0.0654  0.0091
 1419SOL    HW214727   3.936   4.101   0.376  0.2980 -0.3579  0.1375
 1420SOL     OW14728   9.431   5.800   0.907  0.8759  0.1158  0.3422
 1420SOL    HW114729   9.379   5.794   0.992 -0.8038  0.4961 -0.6454
 1420SOL    HW214730   9.432   5.711   0.862  1.3683  0.0306  0.5144
 1421SOL     OW14731   8.255   9.307   3.799 -0.4899 -0.7466  0.2934
 1421SOL    HW114732   8.298   9.361   3.727  0.5331 -0.7295  0.9044
 1421SOL    HW214733   8.291   9.336   3.888 -0.1377 -2.2186  0.6427
 1422SOL     OW14734   1.138   1.324   1.805 -0.3104  0.3679 -0.1113
 1422SOL    HW114735   1.130   1.231   1.842 -2.1108  0.6173  0.1351
 1422SOL    HW214736   1.180   1.319   1.714  0.0895 -0.6427  0.1143
 1423SOL     OW14737   4.404   3.683   0.347  0.2412  0.0096  0.4447
 1423SOL    HW114738   4.351   3.606   0.311 -1.4911  1.0441  0.6993
 1423SOL    HW214739   4.441   3.659   0.437 -3.1070  0.5634  2.0673
 1424SOL     OW14740   6.601   9.108   1.704 -0.0393  0.4833 -0.1743
 1424SOL    HW114741   6.580   9.203   1.728 -0.7473  0.2077  0.3148
 1424SOL    HW214742   6.529   9.073   1.644  0.5568  0.4600 -0.8759
 1425SOL     OW14743   1.668   3.311   3.175 -0.3159 -0.0205  0.7795
 1425SOL    HW114744   1.688   3.403   3.209  0.6475  0.2843 -0.5846
 1425SOL    HW214745   1.574   3.306   3.142  0.5797  1.3937 -2.0996
 1426SOL     OW14746   9.018   8.628   4.297  0.3280 -0.6127 -0.0766
 1426SOL    HW114747   9.004   8.530   4.309  0.8631 -0.6853 -0.0006
 1426SOL    HW214748   9.097   8.643   4.237  1.1980 -0.2248  1.1392
 1427SOL     OW14749   1.185   9.450   0.172  0.6105 -0.3412  0.2536
 1427SOL    HW114750   1.280   9.476   0.156 -0.1239  2.1311 -0.3178
 1427SOL    HW214751   1.134   9.528   0.207 -1.1532 -1.7271  0.8740
 1428SOL     OW14752   9.937   7.289   3.530 -0.5111 -0.5197  0.5034
 1428SOL    HW114753   9.877   7.214   3.503 -1.8371  0.4283  0.7859
 1428SOL    HW214754   9.904   7.329   3.615 -0.1144  0.7153  0.0860
 1429SOL     OW14755   2.285   1.221   2.102  0.4236 -0.2167 -0.1796
 1429SOL    HW114756   2.380   1.190   2.093  0.4406 -0.6866  1.4801
 1429SOL    HW214757   2.263   1.232   2.199 -0.2631  2.9204 -0.6420
 1430SOL     OW14758   5.014   0.745   3.009  0.2823  0.5862  0.2861
 1430SOL    HW114759   5.090   0.773   3.068  0.1672 -0.3495  0.8967
 1430SOL    HW214760   5.029   0.651   2.979 -0.6412  0.3930  0.4258
 1431SOL     OW14761   9.762   7.930   1.382  0.2096 -0.1190 -0.1462
 1431SOL    HW114762   9.852   7.885   1.376 -0.2356 -1.1769  1.0883
 1431SOL    HW214763   9.759   8.005   1.316  2.1550  0.1914  0.0790
 1432SOL     OW14764   1.122   5.123   2.557  0.5798  0.2530  0.0522
 1432SOL    HW114765   1.119   5.095   2.461  0.2977  0.3978  0.0153
 1432SOL    HW214766   1.038   5.093   2.603  0.0685  1.3952 -0.0987
 1433SOL     OW14767   5.922   8.216   2.582 -0.0406  0.2462 -0.1182
 1433SOL    HW114768   5.986   8.177   2.648 -0.5784  1.9170  1.4368
 1433SOL    HW214769   5.916   8.315   2.596 -1.7893  0.3303 -1.2695
 1434SOL     OW14770   1.047   9.341   1.451 -0.1473  0.2869 -0.6203
 1434SOL    HW114771   1.060   9.423   1.507  0.7065  0.4535 -1.0558
 1434SOL    HW214772   1.049   9.366   1.354 -1.0531 -0.0807 -0.7419
 1435SOL     OW14773   0.927   8.540   2.438  0.7604  0.3931  0.1836
 1435SOL    HW114774   0.940   8.491   2.524 -3.4537 -0.5439  0.4389
 1435SOL    HW214775   0.854   8.607   2.450  3.4600  3.7311 -1.3942
 1436SOL     OW14776   9.097   6.693   2.613  0.1140  0.2036  0.3524
 1436SOL    HW114777   9.123   6.609   2.565  0.5002  1.0650 -0.9716
 1436SOL    HW214778   9.070   6.763   2.547  0.5663  1.3842  1.3878
 1437SOL     OW14779   2.241   8.644   1.284  0.1602  0.2953 -0.6058
 1437SOL    HW114780   2.274   8.590   1.362  0.9503  0.2629 -0.9542
 1437SOL    HW214781   2.199   8.582   1.218 -1.4038  0.4431  0.2414
 1438SOL     OW14782   2.832   8.401   1.471  0.1506  0.0604 -0.1219
 1438SOL    HW114783   2.913   8.344   1.477  1.0911  1.2563 -1.1590
 1438SOL    HW214784   2.834   8.453   1.386 -1.9045 -0.1863 -0.3522
 1439SOL     OW14785   7.284   9.511   2.282 -0.0984 -0.2920  0.0838
 1439SOL    HW114786   7.327   9.597   2.305 -1.7339 -0.0094  2.3123
 1439SOL    HW214787   7.352   9.437   2.283  1.3312  0.9502 -1.9985
 1440SOL     OW14788   1.758   9.992   2.499  0.3590 -0.0315 -0.4833
 1440SOL    HW114789   1.782  10.048   2.419 -0.9881  0.2014 -0.7366
 1440SOL    HW214790   1.797  10.034   2.581  3.3716 -1.2901 -1.2096
 1441SOL     OW14791   2.928   6.442   3.960  0.0258  0.5191 -0.0996
 1441SOL    HW114792   2.837   6.450   3.919  0.0169  1.9359  0.1741
 1441SOL    HW214793   2.929   6.366   4.025 -0.9561  0.4917 -0.1162
 1442SOL     OW14794   3.087   4.598   3.125  0.2345 -0.1591  0.2228
 1442SOL    HW114795   3.111   4.505   3.095  2.7131 -0.3397  2.5678
 1442SOL    HW214796   3.158   4.662   3.095  0.4897  0.3464  1.8500
 1443SOL     OW14797   6.084   9.821   3.724  0.2200 -0.3522  0.6081
 1443SOL    HW114798   6.039   9.792   3.809 -0.8327  0.8363  0.4698
 1443SOL    HW214799   6.121   9.741   3.677 -1.5823 -1.3529  0.8483
 1444SOL     OW14800   2.983   9.183   3.356  0.3835  0.9863  0.5651
 1444SOL    HW114801   3.059   9.206   3.297 -0.2226  0.6155 -0.3794
 1444SOL    HW214802   2.909   9.249   3.343 -1.1070 -1.0276 -1.6885
 1445SOL     OW14803   2.662   9.046   0.397  0.0137  0.4165  0.1197
 1445SOL    HW114804   2.691   9.061   0.492 -0.3028 -1.8026  0.5821
 1445SOL    HW214805   2.740   9.053   0.336  0.6477 -0.5232  0.8124
 1446SOL     OW14806   7.447   8.247   2.367  1.0769  0.5927 -0.7489
 1446SOL    HW114807   7.495   8.204   2.290  4.6409  1.3277  0.9310
 1446SOL    HW214808   7.514   8.278   2.434 -1.9213  0.5684  2.3690
 1447SOL     OW14809   2.288   0.758   0.266  0.8117 -0.1145  0.5390
 1447SOL    HW114810   2.333   0.846   0.253 -1.3775  1.1781  1.4796
 1447SOL    HW214811   2.271   0.743   0.363 -2.4191  0.3191  0.1060
 1448SOL     OW14812   2.123   8.658   0.702  0.0759 -0.0129  0.1051
 1448SOL    HW114813   2.147   8.691   0.611  2.1366 -1.1539  0.2035
 1448SOL    HW214814   2.040   8.603   0.696 -0.0279  0.2433 -1.0185
 1449SOL     OW14815   6.479   9.106   4.316 -0.5639  0.1328  0.0595
 1449SOL    HW114816   6.490   9.034   4.246 -0.7998 -1.1945  1.3709
 1449SOL    HW214817   6.425   9.181   4.278 -1.1204 -0.7984 -1.0191
 1450SOL     OW14818   1.232   2.523   0.815 -0.5479 -0.5573 -0.4512
 1450SOL    HW114819   1.279   2.470   0.885 -0.1508  0.2544 -0.0987
 1450SOL    HW214820   1.224   2.469   0.731  1.9561 -0.3346 -0.8547
 1451SOL     OW14821   2.633   8.214   1.846  0.5012 -0.1073 -0.5650
 1451SOL    HW114822   2.649   8.300   1.894  0.7298 -0.9615  0.9241
 1451SOL    HW214823   2.706   8.199   1.779  0.2019  1.0795 -1.1678
 1452SOL     OW14824   1.441   5.971   2.983 -0.5614 -0.0565 -0.1262
 1452SOL    HW114825   1.476   5.888   3.027 -0.0899  1.2652  2.0542
 1452SOL    HW214826   1.346   5.957   2.957 -0.4577 -1.3111  0.1532
 1453SOL     OW14827   3.853   1.794   1.793 -0.2312  0.0494 -0.1296
 1453SOL    HW114828   3.839   1.765   1.698  0.6368 -0.1827 -0.1861
 1453SOL    HW214829   3.796   1.738   1.853 -1.4024  0.7314 -0.5740
 1454SOL     OW14830   1.051   4.179   2.981 -0.0003 -0.1765  0.1076
 1454SOL    HW114831   1.034   4.080   2.980  0.0559 -0.1940  0.6598
 1454SOL    HW214832   1.022   4.219   2.895 -1.3765 -0.4514  0.4410
 1455SOL     OW14833   3.186   5.483   3.755  0.1114  0.1427  0.1225
 1455SOL    HW114834   3.200   5.481   3.854  1.4314 -0.2218 -0.0567
 1455SOL    HW214835   3.223   5.399   3.715 -1.3138 -0.1642 -0.5784
 1456SOL     OW14836   2.387   8.749   3.848  0.3535 -0.0670 -0.0656
 1456SOL    HW114837   2.339   8.827   3.809 -0.0273  0.3661  1.2766
 1456SOL    HW214838   2.466   8.781   3.900 -0.2513 -0.5331  1.1398
 1457SOL     OW14839   5.194   7.368   3.178 -0.0853 -0.3926 -0.3927
 1457SOL    HW114840   5.101   7.404   3.189  0.2632  0.4303 -0.1414
 1457SOL    HW214841   5.206   7.336   3.084 -0.8415 -1.1278 -0.2428
 1458SOL     OW14842   5.687   8.156   2.428  0.2748 -0.0812 -0.1725
 1458SOL    HW114843   5.649   8.098   2.500  0.7446 -2.0314 -1.4640
 1458SOL    HW214844   5.756   8.217   2.468 -0.4868 -0.1063  1.2565
 1459SOL     OW14845   3.640   4.309   3.758  0.5030  0.7413 -0.1498
 1459SOL    HW114846   3.686   4.225   3.730 -1.0327 -1.2871  3.1430
 1459SOL    HW214847   3.707   4.373   3.796  1.0470 -0.9470  1.7793
 1460SOL     OW14848   8.960   7.608   3.833 -0.0803  0.8753  0.2148
 1460SOL    HW114849   8.877   7.553   3.824  0.3847 -0.1211  1.7780
 1460SOL    HW214850   8.937   7.705   3.834 -1.3460  0.5669  1.8402
 1461SOL     OW14851   4.179   3.268   3.068  0.1296 -0.0504 -0.1907
 1461SOL    HW114852   4.271   3.246   3.102  1.0865  2.6575 -0.9185
 1461SOL    HW214853   4.182   3.280   2.969 -1.0184  0.1278 -0.2100
 1462SOL     OW14854   0.187   0.959   0.006 -0.0269  0.8878 -0.2527
 1462SOL    HW114855   0.093   0.988   0.026 -0.0418  1.7895 -1.5449
 1462SOL    HW214856   0.185   0.880  -0.054  0.0342  2.0239 -1.7728
 1463SOL     OW14857   2.717   3.693   3.953 -0.2032 -0.4892  0.4383
 1463SOL    HW114858   2.644   3.700   3.885  0.3928  0.1748 -0.1338
 1463SOL    HW214859   2.787   3.631   3.919  1.0562  1.3791 -0.4399
 1464SOL     OW14860   3.790   7.493   3.290 -0.0078  0.0924  0.0722
 1464SOL    HW114861   3.830   7.452   3.372  0.0560 -1.3389 -0.6619
 1464SOL    HW214862   3.690   7.493   3.299  0.0493  1.3386  0.8033
 1465SOL     OW14863   5.374   0.186   3.371 -0.1145  0.0016  0.3730
 1465SOL    HW114864   5.359   0.276   3.332  0.7094 -0.2024 -0.4551
 1465SOL    HW214865   5.314   0.119   3.327  0.2315 -0.0825  0.0195
 1466SOL     OW14866   8.942   0.044   1.083  0.1827 -0.4038 -0.3137
 1466SOL    HW114867   8.960   0.023   1.180 -3.4128  0.7542  0.6627
 1466SOL    HW214868   8.917  -0.040   1.035 -0.0931 -0.6548  0.2554
 1467SOL     OW14869   1.559   3.634   2.390 -0.5549 -0.5454  0.4057
 1467SOL    HW114870   1.507   3.716   2.415 -1.2212 -0.2344 -1.8114
 1467SOL    HW214871   1.657   3.654   2.394 -0.7120  0.3182  0.1034
 1468SOL     OW14872   0.813   1.582   1.444 -0.2983 -0.1032 -1.0253
 1468SOL    HW114873   0.745   1.610   1.512 -0.5020 -0.9877 -0.8565
 1468SOL    HW214874   0.862   1.663   1.410 -1.7728  0.5875 -1.5320
 1469SOL     OW14875   7.124   0.671   2.467 -0.8208 -0.2992 -0.1571
 1469SOL    HW114876   7.127   0.711   2.375  0.0196  1.1544  0.4785
 1469SOL    HW214877   7.158   0.577   2.464 -1.3969 -0.4725 -1.4344
 1470SOL     OW14878   0.427   4.464   0.864 -0.1576 -0.4537 -0.1683
 1470SOL    HW114879   0.473   4.535   0.809  1.2712 -1.1044  0.1729
 1470SOL    HW214880   0.460   4.374   0.836 -2.1027 -1.0308 -0.7171
 1471SOL     OW14881   0.824   7.368   4.617 -0.7273  0.0131 -0.3513
 1471SOL    HW114882   0.755   7.313   4.569 -1.5937 -0.2615  1.1878
 1471SOL    HW214883   0.904   7.377   4.559 -1.4980 -0.8797 -1.5967
 1472SOL     OW14884   6.909   9.278   0.855  0.4728  0.2316 -0.2884
 1472SOL    HW114885   6.892   9.191   0.902 -0.2139  0.8369  0.5939
 1472SOL    HW214886   6.852   9.284   0.774 -0.8281  0.6451  0.6435
 1473SOL     OW14887   4.427   2.738   1.686  0.0225 -0.6116  0.3352
 1473SOL    HW114888   4.443   2.677   1.764 -0.8546 -1.4386 -0.1116
 1473SOL    HW214889   4.329   2.757   1.678  0.2095  0.2193 -0.0089
 1474SOL     OW14890   0.503   7.719   1.332 -0.0138 -0.1049 -0.6283
 1474SOL    HW114891   0.485   7.622   1.344 -3.9499  0.7485  1.2825
 1474SOL    HW214892   0.594   7.741   1.367  0.2498 -2.7986  0.5010
 1475SOL     OW14893   3.194   4.945   3.953 -0.3944  0.4853  0.3777
 1475SOL    HW114894   3.144   4.868   3.915 -0.2693 -0.1732  1.5262
 1475SOL    HW214895   3.255   4.913   4.026 -0.8639  1.7605  1.3489
 1476SOL     OW14896   1.708   1.833   3.185 -0.3602 -0.3862 -0.1583
 1476SOL    HW114897   1.659   1.913   3.221 -0.1789 -0.1903 -0.3535
 1476SOL    HW214898   1.777   1.804   3.251 -1.8118 -1.6297  0.8391
 1477SOL     OW14899   8.548   9.098   2.354 -0.1382 -0.0353 -0.0143
 1477SOL    HW114900   8.517   9.064   2.265  0.8042  0.5472 -0.5777
 1477SOL    HW214901   8.644   9.074   2.367  0.3554  1.8001 -0.1287
 1478SOL     OW14902   2.348   4.501   3.089 -0.1534  0.1326  0.1940
 1478SOL    HW114903   2.392   4.551   3.163 -0.1541 -1.3393  1.1991
 1478SOL    HW214904   2.379   4.406   3.090  0.6508  0.3131 -2.3244
 1479SOL     OW14905   4.628   9.743   1.955 -1.0839 -0.2693  0.0809
 1479SOL    HW114906   4.598   9.663   2.006 -0.0650 -0.2187  0.7831
 1479SOL    HW214907   4.653   9.817   2.018  0.4288 -0.2934 -0.4494
 1480SOL     OW14908   3.286   3.144   3.224 -0.5286  0.2852  0.2974
 1480SOL    HW114909   3.380   3.111   3.225 -0.0233  1.6727  1.2050
 1480SOL    HW214910   3.279   3.225   3.283 -1.6227  2.0086 -2.0861
 1481SOL     OW14911   1.774   1.045   3.138 -0.3662  0.4105  0.1822
 1481SOL    HW114912   1.805   1.102   3.214 -1.9319  0.2984  0.9192
 1481SOL    HW214913   1.823   1.072   3.054  0.0899  1.7338  0.8541
 1482SOL     OW14914   9.567   6.851   1.581  0.9916 -0.3332  0.1082
 1482SOL    HW114915   9.612   6.936   1.555 -1.7233  1.3897  0.9407
 1482SOL    HW214916   9.469   6.865   1.589  0.5997 -3.2896  1.3023
 1483SOL     OW14917   0.491   5.302   2.206 -0.0066  0.1799 -0.3649
 1483SOL    HW114918   0.480   5.212   2.165 -0.8617  0.3483 -0.5216
 1483SOL    HW214919   0.569   5.301   2.268 -0.3177 -0.8051  0.0172
 1484SOL     OW14920   8.814   5.275   1.941 -0.3264  0.7977 -0.6600
 1484SOL    HW114921   8.834   5.181   1.966 -0.9487  0.9171  0.3150
 1484SOL    HW214922   8.727   5.279   1.891  0.7036  0.6131 -2.4876
 1485SOL     OW14923   0.290   7.399   0.685 -0.1801  0.2816 -0.1422
 1485SOL    HW114924   0.213   7.458   0.706  0.5321  1.6622 -1.3041
 1485SOL    HW214925   0.373   7.454   0.673  0.8545 -1.1056  0.4157
 1486SOL     OW14926   5.254   9.786   2.373  0.0531 -0.2044 -0.2103
 1486SOL    HW114927   5.171   9.829   2.338  0.1208  0.3076  0.2596
 1486SOL    HW214928   5.229   9.701   2.421 -0.1585 -0.2482 -0.3956
 1487SOL     OW14929   3.084   8.698   2.344 -0.1932  0.3015 -0.4300
 1487SOL    HW114930   3.121   8.791   2.339 -1.3878  0.8551  0.8173
 1487SOL    HW214931   2.986   8.702   2.363 -0.1638 -1.2261  0.0947
 1488SOL     OW14932   3.395   4.734   4.353 -0.0767 -0.6253  0.8987
 1488SOL    HW114933   3.485   4.721   4.393 -0.8599  0.2298  3.0136
 1488SOL    HW214934   3.348   4.646   4.350  0.2614 -0.8216  1.2278
 1489SOL     OW14935   3.997   1.622   0.709 -0.4278 -0.1077  0.5626
 1489SOL    HW114936   3.946   1.558   0.766 -1.0393  0.4076  0.6002
 1489SOL    HW214937   3.981   1.601   0.613  0.1547 -0.6248  0.5771
 1490SOL     OW14938   1.540   4.595   4.378  0.0843  0.4002 -0.7913
 1490SOL    HW114939   1.489   4.666   4.329  0.5920  0.7588 -0.8011
 1490SOL    HW214940   1.503   4.583   4.469  0.9621  1.7488 -0.2445
 1491SOL     OW14941   1.177   0.665   3.135 -0.2653  0.1323  0.1237
 1491SOL    HW114942   1.105   0.693   3.199  2.3005 -0.2473  3.2703
 1491SOL    HW214943   1.176   0.566   3.125 -0.7434  0.2004 -0.5786
 1492SOL     OW14944   3.739   3.579   0.462 -0.3212  0.0688 -0.3791
 1492SOL    HW114945   3.727   3.558   0.558 -2.9773  0.4957 -0.5919
 1492SOL    HW214946   3.730   3.496   0.407  1.9577 -0.3082 -0.2337
 1493SOL     OW14947   2.665   5.781   2.689 -0.2352 -0.2998  0.6509
 1493SOL    HW114948   2.693   5.685   2.697 -2.0875 -0.7521  2.2119
 1493SOL    HW214949   2.642   5.802   2.594 -0.4882 -1.5848  0.4256
 1494SOL     OW14950   9.653   6.230   3.259 -0.1325 -0.2320 -0.4076
 1494SOL    HW114951   9.642   6.133   3.280  0.2045 -0.0374  0.6727
 1494SOL    HW214952   9.573   6.263   3.209  0.5974 -1.5205 -2.4799
 1495SOL     OW14953   1.280   5.576   2.741  0.3219 -0.9794 -0.3454
 1495SOL    HW114954   1.199   5.520   2.725 -0.5118 -0.4222  1.7731
 1495SOL    HW214955   1.337   5.533   2.812  0.0537  0.4301  0.7590
 1496SOL     OW14956   3.769   7.912   0.650  0.2030 -0.6561  0.7575
 1496SOL    HW114957   3.839   7.983   0.655 -0.0801 -0.2094 -1.2030
 1496SOL    HW214958   3.728   7.899   0.740 -1.0955  3.0562  0.7904
 1497SOL     OW14959   0.298   3.982   1.900 -0.3977  0.4331  0.1612
 1497SOL    HW114960   0.266   4.077   1.901 -0.1195  0.5353 -0.6952
 1497SOL    HW214961   0.338   3.960   1.989 -0.5032  1.1068  0.3772
 1498SOL     OW14962   0.083   9.530   4.374 -0.3204  0.2475  0.3716
 1498SOL    HW114963   0.039   9.482   4.299 -1.2896  0.4122  0.8219
 1498SOL    HW214964   0.082   9.629   4.356  1.0470  0.1624 -0.2273
 1499SOL     OW14965   3.465   9.174   2.834  0.0532 -0.0122  0.5876
 1499SOL    HW114966   3.492   9.227   2.914 -0.9199  0.8805  0.3343
 1499SOL    HW214967   3.547   9.133   2.792  0.8841  1.6544  0.5210
 1500SOL     OW14968   5.216   9.342   2.959 -0.4202 -0.3078  0.2083
 1500SOL    HW114969   5.143   9.331   3.026 -1.2193 -0.2097 -0.6432
 1500SOL    HW214970   5.203   9.279   2.883  1.3807 -1.5620  0.9028
 1501SOL     OW14971   3.285   0.975   0.380  0.6976 -0.8237  0.1852
 1501SOL    HW114972   3.185   0.977   0.374  0.5726 -0.0213  2.1404
 1501SOL    HW214973   3.323   1.042   0.317 -0.0586 -0.1581  0.4272
 1502SOL     OW14974   2.422   3.627   0.257 -1.0637 -0.3389  0.6408
 1502SOL    HW114975   2.351   3.562   0.282 -0.6612 -0.1466  2.3350
 1502SOL    HW214976   2.500   3.578   0.216 -0.7643 -0.9264  1.8990
 1503SOL     OW14977   1.343   0.479   1.564  0.6444  0.2332  0.3795
 1503SOL    HW114978   1.426   0.534   1.572  0.2476  0.9497 -0.4370
 1503SOL    HW214979   1.288   0.490   1.647  2.4218 -2.0163  1.9234
 1504SOL     OW14980   3.285   4.429   4.737 -0.0789 -0.2991  0.5050
 1504SOL    HW114981   3.203   4.470   4.777 -0.5114 -0.7283  0.0604
 1504SOL    HW214982   3.302   4.341   4.782  1.0404  0.5021  1.6931
 1505SOL     OW14983   6.259   7.260   3.110  0.3934 -0.0712 -0.1475
 1505SOL    HW114984   6.340   7.251   3.052  0.3992  0.2313 -0.1896
 1505SOL    HW214985   6.279   7.225   3.202  1.3321  2.1973  0.5470
 1506SOL     OW14986   1.884   2.960   1.507  0.8069 -0.3328 -0.4991
 1506SOL    HW114987   1.842   3.023   1.573  1.3105 -0.1285 -0.3710
 1506SOL    HW214988   1.902   2.873   1.553 -0.2915 -0.7269 -0.7922
 1507SOL     OW14989   1.489   3.207   0.562 -0.7625  0.1628 -0.0368
 1507SOL    HW114990   1.432   3.157   0.628  3.5880 -0.8260  3.2149
 1507SOL    HW214991   1.500   3.302   0.592  1.4472 -0.3549  0.9104
 1508SOL     OW14992   2.579   3.745   3.728  0.4090 -0.1811  0.4213
 1508SOL    HW114993   2.483   3.772   3.725 -0.0576 -1.6707  1.2753
 1508SOL    HW214994   2.621   3.760   3.639 -0.7617 -0.0461 -0.1092
 1509SOL     OW14995   3.703   2.622   4.637  0.0674  0.2585 -0.6777
 1509SOL    HW114996   3.686   2.717   4.664 -1.2775 -0.2833  0.4660
 1509SOL    HW214997   3.760   2.578   4.706  0.2153  0.0764 -0.9169
 1510SOL     OW14998   1.314   6.458   4.185  0.4730 -0.3078 -0.2930
 1510SOL    HW114999   1.250   6.425   4.254 -0.7408 -0.5111 -1.4983
 1510SOL    HW215000   1.309   6.399   4.105  0.4397  1.0658 -1.3150
 1511SOL     OW15001   0.748   4.995   4.079 -0.1933 -0.3101 -0.0027
 1511SOL    HW115002   0.650   4.978   4.077 -0.0601 -0.9427 -1.8544
 1511SOL    HW215003   0.768   5.081   4.033  0.3037 -1.1864 -1.4577
 1512SOL     OW15004   0.804   6.888   0.602 -0.2066 -0.5247 -0.7094
 1512SOL    HW115005   0.704   6.887   0.614 -0.1050 -0.2768  0.1707
 1512SOL    HW215006   0.846   6.940   0.676  0.5274 -0.0103 -1.4743
 1513SOL     OW15007   9.017   7.607   4.564 -0.3960 -0.2192 -0.0337
 1513SOL    HW115008   9.116   7.606   4.550 -0.4065  0.6669 -0.2300
 1513SOL    HW215009   8.996   7.589   4.660 -0.0184  0.1340  0.1164
 1514SOL     OW15010   0.255   7.485   2.936  0.0367  0.1704 -0.0057
 1514SOL    HW115011   0.216   7.576   2.947  1.4350  0.7729 -0.0559
 1514SOL    HW215012   0.307   7.461   3.018 -0.6648 -0.7574  0.1822
 1515SOL     OW15013   7.286   8.649   3.643  0.2936  0.2577  0.2521
 1515SOL    HW115014   7.367   8.697   3.608  0.8934 -1.7625 -1.2169
 1515SOL    HW215015   7.225   8.715   3.687  2.2187  1.9857  0.4328
 1516SOL     OW15016   2.769   5.651   2.323  0.2355  0.5793  0.2631
 1516SOL    HW115017   2.865   5.623   2.321  0.4670  1.0561  2.7197
 1516SOL    HW215018   2.763   5.751   2.315 -0.1337  0.4532 -1.0909
 1517SOL     OW15019   2.451   4.681   1.065 -0.3148  0.0994  0.5226
 1517SOL    HW115020   2.388   4.694   1.142  0.2331  1.2312  0.7899
 1517SOL    HW215021   2.531   4.740   1.077  0.2838 -0.5139 -0.3764
 1518SOL     OW15022   4.207   3.709   1.042 -0.0014 -0.1605 -0.4029
 1518SOL    HW115023   4.266   3.777   1.086 -0.2245 -0.8137  0.9355
 1518SOL    HW215024   4.115   3.715   1.081  0.1489 -1.6658  0.2004
 1519SOL     OW15025   9.738   6.186   4.023 -0.5549 -0.5919 -0.7020
 1519SOL    HW115026   9.811   6.210   4.087 -1.5739  0.9110 -0.0734
 1519SOL    HW215027   9.650   6.187   4.071 -1.1730 -0.8976 -1.7993
 1520SOL     OW15028   2.507   1.023   0.854 -0.3037 -0.4884  0.1122
 1520SOL    HW115029   2.482   1.107   0.806  0.6059 -0.9780 -1.2497
 1520SOL    HW215030   2.428   0.990   0.906 -1.0169  0.5828 -0.2775
 1521SOL     OW15031   4.593   9.599   1.732  0.4197 -0.1812  0.2219
 1521SOL    HW115032   4.563   9.646   1.648  1.3732 -2.6231 -1.5452
 1521SOL    HW215033   4.607   9.666   1.805 -0.0511  2.0422 -1.6759
 1522SOL     OW15034   7.580   0.271   3.416  0.4657 -0.0094 -0.3669
 1522SOL    HW115035   7.481   0.276   3.399  0.5337  2.0662 -0.2747
 1522SOL    HW215036   7.630   0.287   3.331  0.7551 -1.8049 -0.5695
 1523SOL     OW15037   2.959   3.981   2.820  0.2052  0.5291  0.0273
 1523SOL    HW115038   2.933   4.076   2.836  0.0391  0.5768 -0.5056
 1523SOL    HW215039   2.883   3.932   2.777  1.3105  0.9246 -2.4698
 1524SOL     OW15040   2.552   5.882   2.442 -0.4428 -0.6645  0.6961
 1524SOL    HW115041   2.477   5.819   2.421 -2.3832  1.6748  0.3250
 1524SOL    HW215042   2.524   5.943   2.516  1.3311 -0.1195  0.9303
 1525SOL     OW15043   5.785   7.873   2.348 -0.6805  0.4295  0.4068
 1525SOL    HW115044   5.722   7.883   2.272 -1.1050  0.7569  0.7994
 1525SOL    HW215045   5.855   7.945   2.342 -1.9118  1.7489  1.4717
 1526SOL     OW15046   7.770   8.329   2.384  0.7137 -0.5282  0.4853
 1526SOL    HW115047   7.701   8.323   2.456 -0.3527  0.3526 -0.4578
 1526SOL    HW215048   7.787   8.424   2.361  0.2109 -0.8361 -1.2209
 1527SOL     OW15049   0.726   3.145   0.353  0.1369  0.0714  0.0956
 1527SOL    HW115050   0.644   3.189   0.317 -0.6136 -1.4291 -0.0668
 1527SOL    HW215051   0.745   3.181   0.445 -1.0428 -0.0000  0.3745
 1528SOL     OW15052   2.972   5.921   2.870 -0.1447 -0.0688  0.0285
 1528SOL    HW115053   3.038   5.846   2.876  2.4032  2.0332 -0.7970
 1528SOL    HW215054   2.885   5.892   2.909  0.8515 -3.3666 -0.0762
 1529SOL     OW15055   2.744   5.579   3.393 -0.3504  0.0159 -0.1600
 1529SOL    HW115056   2.738   5.486   3.430 -1.3455  0.0263 -0.2904
 1529SOL    HW215057   2.838   5.612   3.402 -0.2259 -0.5994  0.8586
 1530SOL     OW15058   8.463   7.153   2.766  0.2680  0.2341 -0.3504
 1530SOL    HW115059   8.442   7.081   2.700  0.4016 -0.5419  0.4552
 1530SOL    HW215060   8.410   7.140   2.849  1.2179  0.3402  0.2863
 1531SOL     OW15061   0.606   9.178   4.232 -0.1286  0.0859 -0.3144
 1531SOL    HW115062   0.580   9.274   4.229 -0.1495  0.0399 -1.6359
 1531SOL    HW215063   0.644   9.150   4.144  0.5973 -0.9187  0.2946
 1532SOL     OW15064   2.735   6.469   2.916  0.0812 -0.0594 -0.0329
 1532SOL    HW115065   2.777   6.558   2.935  0.3690 -0.0075 -0.8795
 1532SOL    HW215066   2.770   6.435   2.829  0.2862 -1.1940  0.4921
 1533SOL     OW15067   2.130   3.764   2.134 -0.3239  0.0485 -0.3237
 1533SOL    HW115068   2.049   3.710   2.111 -0.3187  1.3439 -3.6170
 1533SOL    HW215069   2.120   3.857   2.099  1.6343  0.8814  1.2290
 1534SOL     OW15070   7.082   0.239   1.244  0.0415 -0.5237  0.2995
 1534SOL    HW115071   7.012   0.181   1.286  0.0924 -0.2566  0.7502
 1534SOL    HW215072   7.171   0.220   1.286  0.2919 -1.0591 -0.4614
 1535SOL     OW15073   9.955   7.029   3.812  0.4320 -0.1748 -0.4874
 1535SOL    HW115074   9.891   6.989   3.878  0.9956 -1.7530 -0.8656
 1535SOL    HW215075   9.912   7.106   3.766 -0.1136  0.7120  1.4409
 1536SOL     OW15076   9.902   5.050   2.189 -0.3577  0.1048  0.7916
 1536SOL    HW115077   9.921   5.050   2.090 -0.0819  1.3124  0.8383
 1536SOL    HW215078   9.816   5.003   2.206 -1.5080  1.7535 -0.2623
 1537SOL     OW15079   1.208   0.328   2.574 -0.1529  0.3201  0.4019
 1537SOL    HW115080   1.114   0.347   2.604 -0.0289  2.4628 -0.4851
 1537SOL    HW215081   1.241   0.404   2.518  1.8717 -0.7440  0.1107
 1538SOL     OW15082   0.322   0.383   4.506 -0.0711 -0.3746  0.3682
 1538SOL    HW115083   0.379   0.366   4.586  0.0731  0.1814  0.3873
 1538SOL    HW215084   0.370   0.443   4.443  0.4213 -1.9924 -0.8380
 1539SOL     OW15085   6.690   8.806   2.319 -0.7070 -0.2650  0.2546
 1539SOL    HW115086   6.754   8.861   2.371 -1.0016 -1.1483  1.5858
 1539SOL    HW215087   6.650   8.736   2.379 -1.4513 -0.9561 -1.0289
 1540SOL     OW15088   8.307   9.499   2.570 -0.4372  0.2352  0.0098
 1540SOL    HW115089   8.316   9.408   2.530 -0.4798  0.1674  0.1532
 1540SOL    HW215090   8.384   9.516   2.631 -0.0850  0.5560 -0.5182
 1541SOL     OW15091   2.507   0.695   3.978 -0.6683  0.2700 -0.3033
 1541SOL    HW115092   2.478   0.599   3.980 -1.1758  0.4187 -0.5419
 1541SOL    HW215093   2.534   0.724   4.070  1.1649 -0.6170 -0.5349
 1542SOL     OW15094   9.241   5.869   3.089 -0.1779 -0.0480  0.4535
 1542SOL    HW115095   9.292   5.788   3.117 -1.1955 -1.5788 -1.9747
 1542SOL    HW215096   9.194   5.909   3.168 -0.3686 -2.3370  1.5120
 1543SOL     OW15097   4.375   3.153   1.125  0.2264 -0.3706  0.3593
 1543SOL    HW115098   4.418   3.242   1.114  1.0981 -0.6640  1.2441
 1543SOL    HW215099   4.333   3.125   1.039  0.4033  0.6555 -0.0682
 1544SOL     OW15100   9.203   6.054   4.092  0.5027 -0.0554 -0.2298
 1544SOL    HW115101   9.295   6.093   4.097  0.5985 -0.4338  1.2424
 1544SOL    HW215102   9.141   6.108   4.148 -0.0825 -0.0485 -0.8845
 1545SOL     OW15103   1.182   4.601   2.269  0.4830  0.3114 -0.0582
 1545SOL    HW115104   1.106   4.551   2.228 -0.6513  1.8428  0.1409
 1545SOL    HW215105   1.260   4.539   2.282 -0.6305 -1.2051 -0.5028
 1546SOL     OW15106   0.130   9.280   4.047  0.4340  0.0274  0.6367
 1546SOL    HW115107   0.061   9.335   4.094  0.7805 -1.2996  2.7517
 1546SOL    HW215108   0.085   9.209   3.994  0.0243  1.7428 -1.3707
 1547SOL     OW15109   1.808   5.803   2.181 -0.4069 -0.5724 -0.0832
 1547SOL    HW115110   1.812   5.810   2.280 -0.9332 -2.0565  0.0510
 1547SOL    HW215111   1.798   5.707   2.154 -0.5322 -0.1628 -1.5552
 1548SOL     OW15112   2.638   6.929   4.259  0.4089 -0.0189  0.0118
 1548SOL    HW115113   2.704   6.915   4.185  0.6763  1.7883 -0.1300
 1548SOL    HW215114   2.639   7.026   4.285 -2.2587  0.0409 -0.0448
 1549SOL     OW15115   0.333   9.531   0.728 -0.5712 -0.4617 -0.2334
 1549SOL    HW115116   0.397   9.458   0.703  0.0511  0.2697 -0.8540
 1549SOL    HW215117   0.241   9.494   0.734 -0.2768 -1.2868 -0.6201
 1550SOL     OW15118   0.805   3.736   1.317 -0.5758 -0.2943 -0.1081
 1550SOL    HW115119   0.738   3.790   1.369 -1.3008 -0.9104 -0.4023
 1550SOL    HW215120   0.856   3.796   1.256 -3.3582 -0.3470 -2.5609
 1551SOL     OW15121   1.940   6.749   2.274 -0.2861  0.3081  0.2316
 1551SOL    HW115122   2.021   6.764   2.330 -0.4561 -0.6591  0.7494
 1551SOL    HW215123   1.898   6.661   2.298 -0.9571  0.3652 -0.6775
 1552SOL     OW15124   1.721   6.322   0.528  0.6154 -0.7528  0.3890
 1552SOL    HW115125   1.818   6.326   0.503  0.4024  2.6761 -0.1355
 1552SOL    HW215126   1.709   6.355   0.621 -0.1419 -0.4224  0.1784
 1553SOL     OW15127   2.777   9.011   3.286  0.2861 -0.3375  0.6208
 1553SOL    HW115128   2.718   9.088   3.313  0.2209 -0.1347 -0.1006
 1553SOL    HW215129   2.873   9.034   3.304  0.1346 -0.8694  2.3013
 1554SOL     OW15130   7.739   9.183   4.079 -0.6233 -0.7077 -0.5465
 1554SOL    HW115131   7.823   9.144   4.117 -1.0300 -1.5371 -0.4855
 1554SOL    HW215132   7.716   9.267   4.129 -0.2869 -0.9325 -0.0092
 1555SOL     OW15133   5.499   9.912   3.078 -0.0602 -0.0930 -0.3881
 1555SOL    HW115134   5.499   9.812   3.070 -0.4446 -0.0591 -0.8497
 1555SOL    HW215135   5.532   9.938   3.168 -0.8490 -0.6650  0.0735
 1556SOL     OW15136   2.065   3.100   0.861  0.3079 -0.4393 -0.3701
 1556SOL    HW115137   2.091   3.011   0.824 -1.4214 -1.2440  0.2788
 1556SOL    HW215138   1.978   3.128   0.821 -0.1318  0.0293  0.8884
 1557SOL     OW15139   3.901   8.919   4.473 -0.2388  0.2583  0.1067
 1557SOL    HW115140   3.840   8.844   4.499 -0.2623  0.1660 -0.2204
 1557SOL    HW215141   3.990   8.882   4.446 -0.4150  0.3159 -0.5478
 1558SOL     OW15142   3.470   9.515   2.803  0.9201  0.8167 -0.1039
 1558SOL    HW115143   3.531   9.592   2.819  0.9855  0.6285  0.5817
 1558SOL    HW215144   3.516   9.430   2.831 -0.9597  1.0163  3.9118
 1559SOL     OW15145   2.185   6.971   4.732 -0.1402 -0.3263  0.4204
 1559SOL    HW115146   2.262   6.912   4.757 -0.7480 -1.0904  0.4928
 1559SOL    HW215147   2.099   6.922   4.747 -0.5844 -0.2212 -1.6390
 1560SOL     OW15148   2.979   4.502   3.860  0.3001  0.1466 -0.2355
 1560SOL    HW115149   3.041   4.437   3.905  0.6304  0.1345 -0.7103
 1560SOL    HW215150   2.912   4.535   3.927  1.6648  1.2043  0.6457
 1561SOL     OW15151   0.411   7.050   3.476 -0.0125  0.0463  0.4618
 1561SOL    HW115152   0.319   7.027   3.510 -0.0041  0.8579  1.0530
 1561SOL    HW215153   0.430   7.146   3.494  1.3842 -0.3755  1.2949
 1562SOL     OW15154   1.137   5.984   0.375  0.0341  0.2604  0.2876
 1562SOL    HW115155   1.089   5.905   0.413 -1.9322  0.2142 -2.2100
 1562SOL    HW215156   1.236   5.966   0.376 -0.1321 -0.7902  2.8700
 1563SOL     OW15157   9.184   0.424   1.113  0.5661 -0.2106 -0.6495
 1563SOL    HW115158   9.175   0.521   1.135 -1.3737 -1.0618  2.5544
 1563SOL    HW215159   9.094   0.386   1.092  1.3107 -1.3535 -1.8164
 1564SOL     OW15160   9.846   5.056   0.567  0.2829 -1.0033  0.1442
 1564SOL    HW115161   9.782   4.980   0.578  2.0503 -2.2582  2.0286
 1564SOL    HW215162   9.799   5.143   0.585 -1.1252 -1.8292  0.4860
 1565SOL     OW15163   8.364   6.217   2.162 -0.6559 -0.3129 -0.4224
 1565SOL    HW115164   8.438   6.189   2.101 -0.5965  0.2574 -0.6171
 1565SOL    HW215165   8.284   6.159   2.147 -0.6980 -0.0732 -1.1629
 1566SOL     OW15166   8.475   7.189   4.314 -0.2638  0.4603  0.0886
 1566SOL    HW115167   8.490   7.277   4.269  0.1417  0.7164  0.7138
 1566SOL    HW215168   8.516   7.117   4.260  1.3528  0.9146  0.6820
 1567SOL     OW15169   1.718   5.394   4.418  0.0855  0.5211 -0.4347
 1567SOL    HW115170   1.618   5.403   4.413  0.0090  1.4820  2.1363
 1567SOL    HW215171   1.760   5.471   4.370 -0.3961  0.4557 -0.9764
 1568SOL     OW15172   0.653   2.029   3.079 -0.5068 -0.6673  0.3410
 1568SOL    HW115173   0.688   2.055   2.989  1.4869  0.3165  1.3590
 1568SOL    HW215174   0.593   2.100   3.114  2.2459  1.1140  1.6561
 1569SOL     OW15175   4.424   1.256   3.181  0.1039 -0.1437 -0.0962
 1569SOL    HW115176   4.491   1.306   3.126 -1.2337  1.0371 -0.6872
 1569SOL    HW215177   4.356   1.215   3.121 -2.4725  2.7868  0.7188
 1570SOL     OW15178   7.679   8.552   3.658 -0.7113  0.0310 -0.3350
 1570SOL    HW115179   7.757   8.490   3.656 -0.9606 -0.3097  0.3151
 1570SOL    HW215180   7.636   8.556   3.568  0.2810  0.5121 -0.7951
 1571SOL     OW15181   4.186   2.800   2.954  0.6620 -0.0979 -0.1999
 1571SOL    HW115182   4.144   2.709   2.955  0.8113 -0.1734 -0.7731
 1571SOL    HW215183   4.114   2.870   2.950  0.6052 -0.2650 -3.0316
 1572SOL     OW15184   8.490   8.728   4.034  0.2866  0.0222 -0.1698
 1572SOL    HW115185   8.426   8.691   4.101  0.4411  1.5200  0.8413
 1572SOL    HW215186   8.499   8.827   4.048  3.0107 -0.2038 -0.1277
 1573SOL     OW15187   4.948   9.368   3.345 -0.0695  0.1568  0.7758
 1573SOL    HW115188   4.923   9.464   3.347  1.9856  0.6788  2.3223
 1573SOL    HW215189   4.972   9.342   3.251 -0.3243  1.2199  0.4082
 1574SOL     OW15190   1.477   0.915   1.333  0.0811 -0.1231  0.3553
 1574SOL    HW115191   1.520   0.911   1.423  1.3999  0.8042 -0.2239
 1574SOL    HW215192   1.514   0.842   1.275 -0.7014 -0.6628  0.5171
 1575SOL     OW15193   0.974   7.632   4.369  0.2934  0.1432 -0.8286
 1575SOL    HW115194   1.016   7.542   4.381  1.1517  0.7918  1.2399
 1575SOL    HW215195   0.874   7.623   4.372  0.3652 -0.8105 -1.1971
 1576SOL     OW15196   0.745   4.101   4.265 -0.0027  0.6224 -0.2245
 1576SOL    HW115197   0.685   4.160   4.211  0.0990  0.2254 -0.7771
 1576SOL    HW215198   0.703   4.011   4.276  0.1131  0.6066  0.1071
 1577SOL     OW15199   2.887   7.794   4.333  0.1822  0.3646  0.4632
 1577SOL    HW115200   2.847   7.867   4.277  2.0195 -0.2942 -1.7971
 1577SOL    HW215201   2.961   7.832   4.389 -0.7928  0.7746  1.4900
 1578SOL     OW15202   2.232   2.289   2.067 -0.1799 -0.4780 -0.0825
 1578SOL    HW115203   2.261   2.382   2.048  1.3867 -0.8544  0.3764
 1578SOL    HW215204   2.179   2.254   1.990 -1.8345  1.1983  0.2638
 1579SOL     OW15205   9.290   9.407   2.413 -0.1516 -0.2669 -0.3245
 1579SOL    HW115206   9.341   9.422   2.499 -0.3694 -0.5570 -0.1448
 1579SOL    HW215207   9.218   9.476   2.406 -0.5834 -0.6730  0.0697
 1580SOL     OW15208   6.771   9.352   1.187  0.0552 -0.0615 -0.0364
 1580SOL    HW115209   6.800   9.257   1.187  0.0200 -0.0762 -1.0484
 1580SOL    HW215210   6.762   9.384   1.281 -1.4978 -1.5227  0.3319
 1581SOL     OW15211   2.355   5.766   0.443 -0.4697  0.1374 -0.0792
 1581SOL    HW115212   2.332   5.862   0.455  0.9531  0.7640 -2.1421
 1581SOL    HW215213   2.454   5.754   0.446 -0.6679 -1.4206  1.1088
 1582SOL     OW15214   0.903   0.072   0.762  0.2815 -0.0891  0.6057
 1582SOL    HW115215   0.857   0.107   0.681  0.5102  0.3785  0.6789
 1582SOL    HW215216   0.888  -0.027   0.769  0.7444 -0.2256 -0.3141
 1583SOL     OW15217   1.478   9.816   0.160 -0.2125 -0.0134 -0.2906
 1583SOL    HW115218   1.475   9.847   0.256 -1.3175  2.3980 -1.0466
 1583SOL    HW215219   1.569   9.835   0.122  0.2765 -1.1145  0.3210
 1584SOL     OW15220   8.039   8.707   1.652  0.0700 -0.0264  0.3509
 1584SOL    HW115221   7.987   8.655   1.584  0.8114 -0.2855 -0.0172
 1584SOL    HW215222   7.977   8.768   1.702 -0.4666  0.1796 -0.5642
 1585SOL     OW15223   1.007   3.308   1.186 -0.0097  0.3333  0.0460
 1585SOL    HW115224   0.998   3.275   1.280  1.6090  0.7513  0.3657
 1585SOL    HW215225   1.035   3.232   1.127 -0.6812  0.1471 -0.0291
 1586SOL     OW15226   2.744   7.633   0.323 -0.1842  0.5488  0.8239
 1586SOL    HW115227   2.823   7.572   0.326  0.3682  1.1267 -1.4143
 1586SOL    HW215228   2.741   7.687   0.407  0.4737 -1.0956  1.9292
 1587SOL     OW15229   0.393   3.156   3.175 -0.1598  0.3081 -0.4160
 1587SOL    HW115230   0.489   3.143   3.201  0.0017  0.6008 -0.8719
 1587SOL    HW215231   0.341   3.074   3.200  0.4633 -0.3937 -1.3902
 1588SOL     OW15232   7.586   0.791   1.975 -0.4713  0.1322 -0.2343
 1588SOL    HW115233   7.685   0.778   1.977 -0.6275 -1.0046  0.4531
 1588SOL    HW215234   7.546   0.733   1.903 -1.2185 -3.7816  3.1124
 1589SOL     OW15235   9.781   6.957   4.025 -0.1647 -0.0981  0.3911
 1589SOL    HW115236   9.761   7.003   4.111  0.8816 -0.0741  0.6320
 1589SOL    HW215237   9.823   6.868   4.044  0.0107 -0.1185 -0.0911
 1590SOL     OW15238   4.489   1.134   3.841  0.2517 -0.6039 -0.1316
 1590SOL    HW115239   4.543   1.112   3.923  0.4112  2.4813  0.6584
 1590SOL    HW215240   4.540   1.198   3.784 -0.5330 -1.5137 -1.9029
 1591SOL     OW15241   3.554   2.476   2.539 -0.5101 -0.4821  0.1656
 1591SOL    HW115242   3.537   2.513   2.630 -1.8704 -1.7807  0.4531
 1591SOL    HW215243   3.517   2.539   2.470  0.9425  0.7365  0.4580
 1592SOL     OW15244   4.323   4.994   1.806 -0.1173  0.5536  0.1170
 1592SOL    HW115245   4.328   5.058   1.729 -0.5607  0.8912  0.3686
 1592SOL    HW215246   4.321   5.045   1.892  2.6173  0.1409  0.4906
 1593SOL     OW15247   5.433   0.210   3.874 -0.0842  0.5278 -0.8247
 1593SOL    HW115248   5.366   0.146   3.910 -0.0722 -0.8065 -3.0804
 1593SOL    HW215249   5.389   0.270   3.807  0.6670  0.5659 -1.2876
 1594SOL     OW15250   3.088   0.147   3.419 -0.2929 -0.2489  0.1656
 1594SOL    HW115251   3.165   0.128   3.480  0.7415 -1.0540 -1.3560
 1594SOL    HW215252   3.096   0.240   3.383  1.0302 -0.9698 -1.4642
 1595SOL     OW15253   3.969   0.104   1.980  0.1662 -0.4593 -0.0334
 1595SOL    HW115254   4.042   0.172   1.987 -1.2863  1.1359 -0.1428
 1595SOL    HW215255   3.973   0.060   1.891  0.1950  0.5736 -0.5507
 1596SOL     OW15256   8.451   9.292   3.114 -0.3866  0.2669 -0.1752
 1596SOL    HW115257   8.426   9.228   3.041 -4.0951 -1.6428  2.5546
 1596SOL    HW215258   8.519   9.249   3.173  0.1065  0.4438 -0.6171
 1597SOL     OW15259   9.666   8.823   2.574  0.4547  0.0117  0.9596
 1597SOL    HW115260   9.577   8.852   2.539  0.4164 -0.5574  0.5813
 1597SOL    HW215261   9.662   8.816   2.674 -0.2542 -1.1085  0.8592
 1598SOL     OW15262   1.398   5.355   0.972  0.2837  0.1543  0.8308
 1598SOL    HW115263   1.383   5.433   0.911  1.6002 -0.8559 -0.8105
 1598SOL    HW215264   1.493   5.356   1.005 -0.3472  0.5644  2.7271
 1599SOL     OW15265   8.532   7.830   3.360  0.4147 -0.2593  0.1152
 1599SOL    HW115266   8.528   7.815   3.261  0.4048 -2.3293  0.4139
 1599SOL    HW215267   8.442   7.812   3.400  1.1397 -2.2371  0.8700
 1600SOL     OW15268   0.560   2.322   0.256 -0.3678  0.1153  0.4747
 1600SOL    HW115269   0.660   2.322   0.261 -0.3803  1.7184  0.9800
 1600SOL    HW215270   0.529   2.411   0.221 -1.5329 -1.1141 -1.7419
 1601SOL     OW15271   8.625   7.899   4.010  0.6621 -0.7495 -0.2310
 1601SOL    HW115272   8.675   7.952   4.079 -0.9906  0.6130 -0.0178
 1601SOL    HW215273   8.682   7.886   3.929  0.6613  2.5719 -0.8246
 1602SOL     OW15274   2.540   1.250   2.268 -0.1251 -0.3327 -0.7696
 1602SOL    HW115275   2.638   1.269   2.278 -0.2089  0.6313 -1.7279
 1602SOL    HW215276   2.528   1.168   2.212  0.1273 -0.1427 -1.1064
 1603SOL     OW15277   2.089   5.468   3.214 -0.6003  0.4423 -0.0421
 1603SOL    HW115278   2.046   5.403   3.151  1.1671 -0.3241 -0.4975
 1603SOL    HW215279   2.041   5.556   3.209 -0.9427  0.1771 -1.9095
 1604SOL     OW15280   2.754   4.600   3.587 -0.2842 -0.4403  0.2623
 1604SOL    HW115281   2.722   4.616   3.493  2.4408 -1.2749 -0.8519
 1604SOL    HW215282   2.780   4.688   3.628 -1.5045 -0.0694  0.2491
 1605SOL     OW15283   6.294   0.003   2.474 -0.2649  0.0296 -0.4301
 1605SOL    HW115284   6.220   0.035   2.415 -0.0603  0.2648 -0.5631
 1605SOL    HW215285   6.327   0.079   2.530  1.7229  0.6525 -2.3424
 1606SOL     OW15286   3.624   4.313   4.152 -0.0787  0.4206  0.0156
 1606SOL    HW115287   3.584   4.243   4.092 -0.2953  1.6295 -1.2611
 1606SOL    HW215288   3.704   4.274   4.198 -0.5923 -0.8866 -0.1535
 1607SOL     OW15289   9.708   0.239   0.507  0.6006 -0.2539  0.0597
 1607SOL    HW115290   9.689   0.196   0.596 -2.5338  0.8970 -0.0009
 1607SOL    HW215291   9.741   0.332   0.522 -1.7783  0.6325  0.0443
 1608SOL     OW15292   3.293   1.185   4.252 -0.1295  0.1487 -0.0840
 1608SOL    HW115293   3.260   1.177   4.158 -0.6879  0.5178  0.0796
 1608SOL    HW215294   3.218   1.212   4.311  0.1862 -0.2395  0.4997
 1609SOL     OW15295   5.683   9.105   3.237  0.5327  0.1072  0.0839
 1609SOL    HW115296   5.729   9.059   3.314  0.0065  1.9076  1.5155
 1609SOL    HW215297   5.682   9.203   3.253 -0.6826  0.3971 -1.6634
 1610SOL     OW15298   1.574   4.922   0.126  0.6780  0.4682 -0.1269
 1610SOL    HW115299   1.565   5.019   0.146 -0.3985  0.5038 -0.7702
 1610SOL    HW215300   1.670   4.900   0.108  0.9848  1.3210  0.4342
 1611SOL     OW15301   0.946   5.595   1.065  0.7148  0.3448 -0.3288
 1611SOL    HW115302   0.887   5.676   1.061  0.9741  0.5567  0.0530
 1611SOL    HW215303   0.912   5.525   1.003  0.2957  0.6233 -0.4120
 1612SOL     OW15304   3.509   7.736   4.203 -0.1494  0.7279 -0.6417
 1612SOL    HW115305   3.605   7.762   4.214 -0.0908  0.2058  0.2003
 1612SOL    HW215306   3.499   7.678   4.122  0.2687  0.6893 -0.6678
 1613SOL     OW15307   4.429   8.914   1.275 -0.1720  0.1963  0.2882
 1613SOL    HW115308   4.391   8.852   1.344 -1.5517 -0.5137 -1.0687
 1613SOL    HW215309   4.357   8.943   1.213  1.1561  0.2726 -1.2658
 1614SOL     OW15310   0.903   7.112   0.788 -0.2726  0.2048 -0.7281
 1614SOL    HW115311   0.855   7.181   0.733  0.4896  1.8540  0.6366
 1614SOL    HW215312   0.891   7.132   0.885  1.2163 -0.6963 -0.3409
 1615SOL     OW15313   2.656   5.959   1.190  0.2867 -0.4487  0.2799
 1615SOL    HW115314   2.574   5.949   1.246  0.1443  0.1549  0.1717
 1615SOL    HW215315   2.655   5.890   1.118  0.3153 -1.0261  0.8269
 1616SOL     OW15316   8.393   9.741   0.276  0.2205  0.0176 -0.5459
 1616SOL    HW115317   8.468   9.807   0.278 -0.1108  0.3815  0.5703
 1616SOL    HW215318   8.312   9.784   0.235 -0.0782  0.4129  0.4346
 1617SOL     OW15319   2.973   0.805   0.804  0.1097  0.1268  0.4725
 1617SOL    HW115320   2.923   0.752   0.871 -0.3046  0.2576  0.2681
 1617SOL    HW215321   3.021   0.744   0.741 -1.8100 -0.0441 -0.8648
 1618SOL     OW15322   0.955   3.860   1.783 -0.4069 -0.6767  0.2387
 1618SOL    HW115323   0.897   3.929   1.738  0.2046  0.6119  1.3788
 1618SOL    HW215324   0.920   3.769   1.762 -1.3107 -0.0254 -1.2033
 1619SOL     OW15325   6.009   8.962   2.804 -0.1874  0.1770 -0.1611
 1619SOL    HW115326   5.932   8.909   2.840 -0.5023 -0.0466 -1.1368
 1619SOL    HW215327   5.989   9.059   2.811 -0.1433  0.1425  0.4782
 1620SOL     OW15328   3.070   9.463   4.216 -0.2225 -0.1570  0.1434
 1620SOL    HW115329   3.091   9.501   4.306  2.2454  0.0085 -0.4699
 1620SOL    HW215330   3.061   9.537   4.150  1.1580 -0.4403 -0.3686
 1621SOL     OW15331   4.383   2.190   0.698 -0.4577 -0.2116  0.5427
 1621SOL    HW115332   4.463   2.195   0.638 -1.2887  1.4617 -0.4705
 1621SOL    HW215333   4.353   2.095   0.707  2.1498 -0.9622  1.6512
 1622SOL     OW15334   6.817   0.140   2.944  0.2825 -0.0987  0.9745
 1622SOL    HW115335   6.886   0.158   3.014  0.7452 -1.5370  0.9151
 1622SOL    HW215336   6.809   0.041   2.930  0.0593  0.1577 -0.8681
 1623SOL     OW15337   1.288   5.404   4.203  0.7676 -0.1400 -0.0828
 1623SOL    HW115338   1.193   5.435   4.216  0.0343 -2.0314 -0.6723
 1623SOL    HW215339   1.306   5.394   4.105  1.7914  0.8357  0.0044
 1624SOL     OW15340   6.592   9.356   4.636 -0.0807  0.2207 -0.3196
 1624SOL    HW115341   6.621   9.390   4.547 -0.7835  0.4411 -0.4691
 1624SOL    HW215342   6.552   9.265   4.625  0.4855 -0.0568 -0.1235
 1625SOL     OW15343   2.125   6.312   4.539 -0.1678 -0.1458  0.0782
 1625SOL    HW115344   2.137   6.337   4.443  0.9549  0.8590  0.4652
 1625SOL    HW215345   2.196   6.248   4.566  0.9175  1.3412  0.8324
 1626SOL     OW15346   5.422   0.141   1.615  0.5134  0.6034  0.0274
 1626SOL    HW115347   5.359   0.113   1.543  0.1059  0.5631  0.3997
 1626SOL    HW215348   5.504   0.083   1.612  0.4968  0.5989 -0.3965
 1627SOL     OW15349   4.256   5.030   1.170 -0.8246 -0.2562  0.1011
 1627SOL    HW115350   4.242   5.002   1.265  0.0252 -0.6630  0.1032
 1627SOL    HW215351   4.240   5.129   1.162 -2.5520 -0.4902  0.3344
 1628SOL     OW15352   2.796   5.220   1.847  0.6527  0.0293 -0.6516
 1628SOL    HW115353   2.759   5.256   1.762 -1.9804 -1.3411 -0.1391
 1628SOL    HW215354   2.817   5.295   1.910  1.2799  0.9586 -1.9463
 1629SOL     OW15355   0.032   0.405   0.329 -0.1574 -0.0652 -0.2502
 1629SOL    HW115356   0.022   0.332   0.261  1.2335 -1.1012  0.6292
 1629SOL    HW215357   0.122   0.398   0.372 -0.6989  1.0978  1.1002
 1630SOL     OW15358   2.894   6.376   2.700  0.4602 -0.3697  0.3354
 1630SOL    HW115359   2.922   6.280   2.692  1.0857 -0.0517 -1.4243
 1630SOL    HW215360   2.975   6.433   2.716 -0.0346 -0.2364  2.5897
 1631SOL     OW15361   2.163   6.081   3.051 -0.1394 -0.2398  0.2828
 1631SOL    HW115362   2.252   6.123   3.069 -0.0317  0.6167 -2.1493
 1631SOL    HW215363   2.091   6.150   3.064 -0.1437  0.0858 -1.4198
 1632SOL     OW15364   0.793   4.314   0.328  0.0116  0.4467 -0.1807
 1632SOL    HW115365   0.876   4.365   0.350 -0.1565  0.8021 -0.3640
 1632SOL    HW215366   0.800   4.278   0.235  0.1851  0.0223 -0.0054
 1633SOL     OW15367   6.278   7.645   3.316 -0.4254 -0.8170  0.1650
 1633SOL    HW115368   6.365   7.607   3.347  0.2741 -0.5212 -1.3597
 1633SOL    HW215369   6.285   7.745   3.314 -1.1036 -0.7578  0.9123
 1634SOL     OW15370   4.330   2.710   2.072  0.2470 -0.6271 -0.1730
 1634SOL    HW115371   4.320   2.806   2.098  0.1648 -0.1548 -1.8654
 1634SOL    HW215372   4.391   2.664   2.137  2.2069  1.1523 -0.6917
 1635SOL     OW15373   6.778   7.740   2.977 -0.3211  0.3491 -0.3006
 1635SOL    HW115374   6.699   7.763   3.033 -0.6176  2.1006 -1.3982
 1635SOL    HW215375   6.748   7.697   2.892 -0.1305  1.2799 -0.8470
 1636SOL     OW15376   0.716   7.509   0.024 -0.1807 -0.1246 -0.1108
 1636SOL    HW115377   0.704   7.601  -0.012  0.3705 -0.2763 -0.6962
 1636SOL    HW215378   0.740   7.447  -0.051 -0.9059 -0.8127  0.2213
 1637SOL     OW15379   2.728   7.206   4.370  0.5197  0.1580 -0.3376
 1637SOL    HW115380   2.689   7.270   4.436 -0.2315 -0.7170  0.0812
 1637SOL    HW215381   2.671   7.204   4.288  0.6581  0.1841 -0.4345
 1638SOL     OW15382   1.662   8.429   2.910 -0.1584 -0.0922  0.2451
 1638SOL    HW115383   1.741   8.392   2.959  0.7279  3.2118  1.3979
 1638SOL    HW215384   1.581   8.427   2.969 -0.5012 -1.6013 -0.2472
 1639SOL     OW15385   0.748   8.524   0.216  0.4333  0.0602  0.3475
 1639SOL    HW115386   0.838   8.481   0.217  0.4358  0.0032 -1.2214
 1639SOL    HW215387   0.679   8.457   0.245  0.4930 -0.9004 -1.6395
 1640SOL     OW15388   0.348   7.003   1.318  0.8186  0.1856  0.4087
 1640SOL    HW115389   0.359   6.970   1.224  2.0448 -0.0682  0.6351
 1640SOL    HW215390   0.259   7.049   1.327  0.0807 -1.0496 -0.4948
 1641SOL     OW15391   2.646   3.693   1.942 -0.4285 -0.1601  0.1180
 1641SOL    HW115392   2.561   3.666   1.987 -1.2347  0.6826 -0.8715
 1641SOL    HW215393   2.643   3.667   1.846  0.2141  0.3442 -0.0438
 1642SOL     OW15394   1.786   1.218   4.546 -0.3891 -0.2269  0.9473
 1642SOL    HW115395   1.874   1.195   4.589  0.6842  1.3467 -0.3487
 1642SOL    HW215396   1.777   1.317   4.539 -1.4042 -0.4173 -0.7040
 1643SOL     OW15397   1.469   8.949   3.815 -0.0096 -0.0301 -0.1208
 1643SOL    HW115398   1.377   8.981   3.838  0.4640  0.6335  0.9061
 1643SOL    HW215399   1.503   8.890   3.888 -0.0311 -1.1388 -0.9994
 1644SOL     OW15400   3.234   9.217   0.238  0.6987  0.2389 -0.6203
 1644SOL    HW115401   3.156   9.264   0.196  0.4313 -0.4303 -0.8805
 1644SOL    HW215402   3.220   9.118   0.232  1.7990  0.1065 -1.0854
 1645SOL     OW15403   9.048   7.131   1.809 -0.2689  0.2011  0.3480
 1645SOL    HW115404   9.016   7.136   1.903 -1.5059  0.8615 -0.0911
 1645SOL    HW215405   9.140   7.171   1.803  0.3276 -0.9836  1.4852
 1646SOL     OW15406   9.402   4.135   1.768 -0.2125 -0.1111 -0.0869
 1646SOL    HW115407   9.316   4.177   1.796  0.1981  0.4984  0.2581
 1646SOL    HW215408   9.463   4.128   1.846  0.0125 -0.6653 -0.3027
 1647SOL     OW15409   3.731   5.006   4.397 -0.4017 -0.0467  0.0487
 1647SOL    HW115410   3.691   5.014   4.306 -0.7874 -0.2764  0.1979
 1647SOL    HW215411   3.766   5.095   4.426 -2.0463  0.4731  0.4922
 1648SOL     OW15412   5.885   8.214   3.162 -0.0051  0.0490  0.1663
 1648SOL    HW115413   5.839   8.242   3.246 -0.1342  0.4805 -0.0466
 1648SOL    HW215414   5.901   8.294   3.105  0.7967 -0.1293  0.1316
 1649SOL     OW15415   2.286   1.726   3.021 -0.2473 -0.5739 -0.2020
 1649SOL    HW115416   2.202   1.693   2.979 -0.3695 -0.9086  0.2942
 1649SOL    HW215417   2.263   1.780   3.102  0.0306 -1.0043  0.1656
 1650SOL     OW15418   0.929   1.254   3.747  0.3037  0.4905 -0.2104
 1650SOL    HW115419   0.870   1.298   3.815 -0.7538  2.5052 -2.3616
 1650SOL    HW215420   0.877   1.187   3.696  0.3857  0.8761 -0.8052
 1651SOL     OW15421   8.870   6.784   0.410  0.3738 -0.0589  0.1516
 1651SOL    HW115422   8.773   6.763   0.426 -0.1930  2.6482  0.4493
 1651SOL    HW215423   8.878   6.865   0.352  2.4583  0.2530  0.8213
 1652SOL     OW15424   3.731   0.050   2.901 -0.4302  0.6089  0.8121
 1652SOL    HW115425   3.697  -0.021   2.963 -1.3124  0.4084  0.1081
 1652SOL    HW215426   3.720   0.139   2.945 -0.6736  0.4327  1.1140
 1653SOL     OW15427   0.564   2.693   1.906 -0.0721 -0.2210 -0.0830
 1653SOL    HW115428   0.501   2.615   1.899 -1.3519  0.9137 -1.5918
 1653SOL    HW215429   0.522   2.764   1.962  0.5181 -0.0747  0.1707
 1654SOL     OW15430   1.134   2.947   2.277 -0.4844 -0.1423  0.2674
 1654SOL    HW115431   1.066   2.885   2.316 -0.0634 -0.1148  1.0586
 1654SOL    HW215432   1.108   2.971   2.183 -0.3471 -1.9480 -0.2420
 1655SOL     OW15433   2.622   8.446   3.836  0.2529 -0.6056  0.3613
 1655SOL    HW115434   2.717   8.436   3.804  0.1963 -1.5253  0.4537
 1655SOL    HW215435   2.571   8.504   3.772  0.5844 -1.0415 -0.3038
 1656SOL     OW15436   2.070   8.072   0.637  0.3256  0.0349  0.2152
 1656SOL    HW115437   2.135   8.116   0.699  1.2429 -2.1482  0.8763
 1656SOL    HW215438   1.979   8.109   0.652  1.1240  1.9082  0.5099
 1657SOL     OW15439   4.631   5.203   1.075 -0.0360 -0.6880  0.3257
 1657SOL    HW115440   4.603   5.163   1.162 -1.2269 -2.2837 -0.7456
 1657SOL    HW215441   4.730   5.195   1.065  0.2300  0.3768  1.9353
 1658SOL     OW15442   2.410   6.919   2.470 -0.2178 -0.2740  0.1077
 1658SOL    HW115443   2.499   6.881   2.445  0.1455  0.1298  0.7879
 1658SOL    HW215444   2.422   7.004   2.520 -1.0345  1.0908 -1.9262
 1659SOL     OW15445   3.278   1.360   0.762 -0.5078  0.4486  0.2847
 1659SOL    HW115446   3.179   1.345   0.763 -0.7991  2.0706  3.4660
 1659SOL    HW215447   3.296   1.456   0.738  0.2013  0.5164  1.0761
 1660SOL     OW15448   1.367   6.761   1.986  0.3222 -0.0114  0.0982
 1660SOL    HW115449   1.282   6.769   2.039 -0.2450 -0.9817 -0.6539
 1660SOL    HW215450   1.444   6.753   2.050 -0.4111 -1.7552  0.8092
 1661SOL     OW15451   2.801   0.901   4.165 -0.1746  0.5982 -0.1695
 1661SOL    HW115452   2.805   0.973   4.096 -0.9132  0.6579 -0.1537
 1661SOL    HW215453   2.740   0.829   4.134 -0.7666  0.7826  0.5680
 1662SOL     OW15454   3.397   6.012   2.669 -0.4639 -0.5381  0.3216
 1662SOL    HW115455   3.408   6.083   2.600 -1.2485  0.0853  0.8232
 1662SOL    HW215456   3.474   6.013   2.732 -1.8977  1.8672  2.1064
 1663SOL     OW15457   2.875   3.407   0.830  0.3628 -0.2945 -0.0228
 1663SOL    HW115458   2.956   3.457   0.800  0.6570  0.2830  1.7045
 1663SOL    HW215459   2.793   3.459   0.806  0.5572 -0.2306 -0.5533
 1664SOL     OW15460   9.143   7.349   2.522 -0.0969  0.2466  0.5531
 1664SOL    HW115461   9.175   7.289   2.596  1.0794 -3.0249 -2.4677
 1664SOL    HW215462   9.219   7.405   2.490 -0.7652  2.1449  2.1740
 1665SOL     OW15463   8.197   7.882   0.117  0.0600  0.0596 -0.3053
 1665SOL    HW115464   8.257   7.961   0.108 -1.0168  0.8210 -0.8758
 1665SOL    HW215465   8.113   7.897   0.064 -0.4481 -1.1714  0.1283
 1666SOL     OW15466   4.188   8.412   2.913  0.1593  0.1564  0.2464
 1666SOL    HW115467   4.267   8.433   2.971  0.5604 -0.2418 -0.1619
 1666SOL    HW215468   4.218   8.368   2.829 -0.4849  0.1322  0.0229
 1667SOL     OW15469   2.380   5.749   2.100  0.6018  0.4577  0.0492
 1667SOL    HW115470   2.389   5.674   2.166 -2.5130  1.7768  2.1027
 1667SOL    HW215471   2.435   5.827   2.130 -2.2980  1.7607  2.3134
 1668SOL     OW15472   1.956   5.711   3.141 -0.1477 -0.9020  0.5215
 1668SOL    HW115473   1.932   5.805   3.116 -1.0260 -0.9005  1.3413
 1668SOL    HW215474   1.877   5.667   3.184  0.2520 -2.0304  0.0977
 1669SOL     OW15475   9.770   7.443   2.701  0.3339 -0.5449  0.1090
 1669SOL    HW115476   9.722   7.531   2.697  0.9924 -0.1659  0.5098
 1669SOL    HW215477   9.800   7.417   2.610 -0.6284 -0.7849 -0.1500
 1670SOL     OW15478   3.627   1.670   2.338  0.2806 -0.3930 -0.5000
 1670SOL    HW115479   3.566   1.678   2.417 -0.5337 -1.3817 -1.0151
 1670SOL    HW215480   3.583   1.708   2.257  0.4478 -0.8763 -0.8216
 1671SOL     OW15481   2.083   3.941   4.296 -0.0142  0.2046 -0.1057
 1671SOL    HW115482   2.011   3.990   4.246  0.7736 -0.0578 -1.5091
 1671SOL    HW215483   2.172   3.962   4.256  0.3858 -1.9439 -0.3655
 1672SOL     OW15484   0.209   7.844   3.934 -0.5054 -0.0522 -0.4976
 1672SOL    HW115485   0.212   7.941   3.910 -0.3067 -0.5049 -2.4028
 1672SOL    HW215486   0.119   7.807   3.913 -0.5719 -0.3056  0.2038
 1673SOL     OW15487   1.619   2.438   4.778  0.4721  0.0060 -0.2118
 1673SOL    HW115488   1.574   2.473   4.695  1.4022 -0.2061 -0.8222
 1673SOL    HW215489   1.561   2.455   4.857  0.4801  2.1465 -0.6186
 1674SOL     OW15490   2.439   5.268   2.851 -0.1461 -0.0143 -0.6294
 1674SOL    HW115491   2.477   5.251   2.942 -0.3973 -0.1364 -0.5443
 1674SOL    HW215492   2.350   5.222   2.843  0.8978 -1.8827 -1.7319
 1675SOL     OW15493   3.268   1.407   3.824 -0.2162  0.1336 -0.3550
 1675SOL    HW115494   3.313   1.463   3.894  0.0209 -0.6393  0.1144
 1675SOL    HW215495   3.195   1.460   3.781  1.3593  1.5424 -1.3689
 1676SOL     OW15496   8.327   8.502   3.310 -0.4193 -0.2390  0.6008
 1676SOL    HW115497   8.272   8.581   3.282 -0.6884 -0.1363  1.4103
 1676SOL    HW215498   8.267   8.422   3.320 -0.3878 -0.1809  1.2730
 1677SOL     OW15499   1.115   1.124   3.945  0.0705 -0.0984 -0.0963
 1677SOL    HW115500   1.213   1.131   3.927  0.2523  1.6882  1.5673
 1677SOL    HW215501   1.065   1.181   3.880  0.2301  0.1949  0.0392
 1678SOL     OW15502   1.875   0.622   0.153 -0.1290 -0.0752 -0.2252
 1678SOL    HW115503   1.780   0.627   0.181  0.1219 -1.1406  0.8541
 1678SOL    HW215504   1.926   0.564   0.217  1.3700  0.9870 -0.4380
 1679SOL     OW15505   1.081   1.000   2.177  0.8074  0.3632 -0.4217
 1679SOL    HW115506   1.045   0.907   2.182 -2.1947  1.4951 -0.2162
 1679SOL    HW215507   1.153   1.011   2.246  0.4711 -1.4861  0.2630
 1680SOL     OW15508   0.444   1.754   2.360 -0.1044 -0.3909  0.4149
 1680SOL    HW115509   0.517   1.768   2.293 -0.0533 -1.6363  0.2094
 1680SOL    HW215510   0.458   1.817   2.437 -0.0607  0.9163 -0.6351
 1681SOL     OW15511   2.499   4.804   1.709 -0.1867  0.7886 -0.0224
 1681SOL    HW115512   2.416   4.814   1.655 -1.1641 -1.7735  0.9189
 1681SOL    HW215513   2.545   4.718   1.684  1.5550  1.5930  0.3039
 1682SOL     OW15514   2.255   9.711   4.549  0.2538 -0.1460 -0.3647
 1682SOL    HW115515   2.276   9.695   4.453  1.0246 -0.3637 -0.1671
 1682SOL    HW215516   2.156   9.714   4.562  0.1094 -1.9231 -0.8816
 1683SOL     OW15517   0.943   9.380   0.861 -0.4270 -0.1627  0.6129
 1683SOL    HW115518   0.880   9.322   0.913 -1.6562 -0.6783 -1.4120
 1683SOL    HW215519   0.921   9.374   0.764  2.0177  0.5821 -0.0045
 1684SOL     OW15520   1.856   1.778   4.686  0.1186 -0.1028  0.0979
 1684SOL    HW115521   1.770   1.820   4.656 -0.6418 -1.0597  0.8821
 1684SOL    HW215522   1.927   1.848   4.693 -0.0871  0.3841 -2.4229
 1685SOL     OW15523   0.518   3.296   0.244 -0.2284  0.2347  0.7049
 1685SOL    HW115524   0.540   3.376   0.299  0.0761 -0.8506  2.1763
 1685SOL    HW215525   0.534   3.317   0.147 -0.6478  2.1045  1.0228
 1686SOL     OW15526   1.396   7.109   4.446 -0.1295 -0.4745  0.3564
 1686SOL    HW115527   1.349   7.061   4.373 -1.4924 -0.2587  1.0789
 1686SOL    HW215528   1.341   7.187   4.476  1.4355  0.7514  0.1174
 1687SOL     OW15529   1.803   0.606   4.633 -0.3326 -0.4813  0.0012
 1687SOL    HW115530   1.798   0.628   4.730  2.0184 -1.1720  0.3219
 1687SOL    HW215531   1.712   0.613   4.592 -1.1191  1.1444  1.9422
 1688SOL     OW15532   3.895   7.929   1.095 -0.6416  0.0989  0.4350
 1688SOL    HW115533   3.882   8.020   1.134  0.3573  1.6499 -2.6387
 1688SOL    HW215534   3.808   7.897   1.056 -0.5360  0.6941 -0.3231
 1689SOL     OW15535   0.081   8.592   2.733  0.5154  0.1889  0.6656
 1689SOL    HW115536   0.141   8.600   2.653  1.4491  1.2480  1.4552
 1689SOL    HW215537   0.134   8.567   2.813 -0.1974  0.4700  1.2363
 1690SOL     OW15538   7.915   9.695   3.214 -0.0397 -0.1644 -0.2701
 1690SOL    HW115539   7.819   9.714   3.236 -0.6077 -1.7166 -1.3505
 1690SOL    HW215540   7.931   9.597   3.216  1.1911 -0.0060 -1.4473
 1691SOL     OW15541   0.012   1.119   2.238 -0.2793  0.2573  0.1799
 1691SOL    HW115542  -0.064   1.079   2.188  0.4946 -0.9703 -0.0157
 1691SOL    HW215543   0.026   1.069   2.324  0.6814  0.0993 -0.0641
 1692SOL     OW15544   4.226   9.021   1.138 -0.2252 -0.4302  0.1407
 1692SOL    HW115545   4.143   8.968   1.123 -1.0427  1.0896 -0.7700
 1692SOL    HW215546   4.223   9.104   1.084  1.5040  0.0706  0.7824
 1693SOL     OW15547   0.158   0.312   1.645 -0.5011  0.0155 -0.8899
 1693SOL    HW115548   0.222   0.235   1.634 -0.9166 -0.3078 -1.0433
 1693SOL    HW215549   0.114   0.306   1.734  0.6223  0.9532 -0.2531
 1694SOL     OW15550   2.497   4.573   4.354  0.0351 -0.0923  0.0875
 1694SOL    HW115551   2.502   4.542   4.259 -0.1173 -0.4071  0.1817
 1694SOL    HW215552   2.562   4.648   4.368 -1.2016  1.1439 -0.7078
 1695SOL     OW15553   1.447   1.470   1.213 -0.7167 -0.4965  0.4807
 1695SOL    HW115554   1.534   1.506   1.178 -0.0880  0.5725  3.0353
 1695SOL    HW215555   1.383   1.545   1.228 -2.3072 -1.3249 -1.8320
 1696SOL     OW15556   1.046   8.237   4.531 -0.1689 -0.2289  0.5105
 1696SOL    HW115557   1.111   8.202   4.598  0.2538  1.4528  1.0014
 1696SOL    HW215558   1.060   8.191   4.443 -0.8802 -2.6165  1.6083
 1697SOL     OW15559   3.394   4.577   2.163 -0.4833  0.0067 -0.6985
 1697SOL    HW115560   3.349   4.488   2.171 -0.2243  0.0616  1.8806
 1697SOL    HW215561   3.365   4.636   2.238  1.7037  1.0260 -0.6153
 1698SOL     OW15562   2.183   7.489   3.129  0.5370  0.0902  0.0753
 1698SOL    HW115563   2.215   7.435   3.051  0.2316 -1.4693  1.0139
 1698SOL    HW215564   2.118   7.558   3.097  0.5247 -0.4370 -1.0728
 1699SOL     OW15565   3.041   4.528   2.050  0.0239  0.0939 -0.2442
 1699SOL    HW115566   3.036   4.533   2.150  0.8398  0.4388 -0.2126
 1699SOL    HW215567   2.982   4.599   2.010  1.8669  1.8416  0.0460
 1700SOL     OW15568   3.420   9.244   1.822  0.1750 -0.1216  0.2245
 1700SOL    HW115569   3.330   9.231   1.781  0.5023 -0.3530 -0.4254
 1700SOL    HW215570   3.429   9.185   1.902  0.0467 -0.7106 -0.1869
 1701SOL     OW15571   8.080   5.847   1.652  0.2486 -0.3599 -0.2667
 1701SOL    HW115572   8.050   5.786   1.579 -1.7780 -0.0321  0.2520
 1701SOL    HW215573   8.033   5.822   1.737  1.2694  0.3522  0.5075
 1702SOL     OW15574   2.344   2.823   2.684  0.6793  0.0762 -0.0453
 1702SOL    HW115575   2.384   2.886   2.750  4.3097 -1.4627 -0.7037
 1702SOL    HW215576   2.314   2.740   2.731  0.0683  0.3929  0.1379
 1703SOL     OW15577   2.847   8.811   2.378  0.0753  0.4236  0.3999
 1703SOL    HW115578   2.791   8.742   2.331 -0.3102  0.9495  0.0881
 1703SOL    HW215579   2.823   8.813   2.475  0.4490 -0.2410  0.5086
 1704SOL     OW15580   0.075   7.371   4.599  0.3884 -0.0935 -0.3998
 1704SOL    HW115581   0.137   7.449   4.588  0.4024 -0.1824 -0.9625
 1704SOL    HW215582   0.089   7.329   4.689  1.8842 -0.7763 -0.9553
 1705SOL     OW15583   8.692   9.677   1.328 -0.1886 -0.1082 -0.4354
 1705SOL    HW115584   8.732   9.590   1.299  0.8041  0.1502  0.1303
 1705SOL    HW215585   8.656   9.726   1.249  0.6929 -0.3054 -0.9617
 1706SOL     OW15586   0.793   4.977   1.750 -0.1057 -0.0842  0.3182
 1706SOL    HW115587   0.752   4.928   1.673  0.3667 -0.6563  0.4320
 1706SOL    HW215588   0.822   5.068   1.720 -1.2760  0.2638  0.1857
 1707SOL     OW15589   2.867   2.240   1.605  0.4719  0.2070  0.4574
 1707SOL    HW115590   2.959   2.262   1.637  0.4036 -0.3862  1.0559
 1707SOL    HW215591   2.806   2.231   1.683 -0.1458  0.8180  0.0483
 1708SOL     OW15592   0.824   7.081   0.336  0.0045 -0.2699  0.0466
 1708SOL    HW115593   0.845   7.087   0.238 -1.9896 -1.1554 -0.4518
 1708SOL    HW215594   0.864   6.998   0.373  0.0583 -0.3552 -0.1967
 1709SOL     OW15595   0.430   9.394   2.280  0.5078  0.4250 -0.0647
 1709SOL    HW115596   0.493   9.320   2.303  0.3990  0.1137 -0.7794
 1709SOL    HW215597   0.481   9.469   2.238  0.4171  0.2135 -0.5520
 1710SOL     OW15598   3.461   2.450   1.483  0.0198 -0.3688 -0.0276
 1710SOL    HW115599   3.551   2.443   1.526  0.3469  0.4979 -0.5603
 1710SOL    HW215600   3.404   2.373   1.512  0.3336  0.0440  1.7314
 1711SOL     OW15601   1.702   8.138   4.007 -0.0988 -0.2738  0.4029
 1711SOL    HW115602   1.716   8.137   4.106 -0.6194 -1.5418  0.4753
 1711SOL    HW215603   1.630   8.072   3.983  0.7513 -0.7389 -0.9224
 1712SOL     OW15604   1.241   6.590   1.651  0.1721  0.2188 -0.2521
 1712SOL    HW115605   1.238   6.531   1.732  0.7239  0.2187 -0.2357
 1712SOL    HW215606   1.186   6.548   1.578 -0.6967  0.4353  0.2618
 1713SOL     OW15607   1.552   7.030   3.406  0.0418  0.2642 -0.1409
 1713SOL    HW115608   1.468   6.997   3.362  0.6929 -1.5216 -0.1011
 1713SOL    HW215609   1.623   7.042   3.336  0.4031 -0.4010  0.1008
 1714SOL     OW15610   1.109   1.274   0.893 -0.1816 -0.8177 -0.5577
 1714SOL    HW115611   1.020   1.259   0.850 -0.8888 -0.8273  0.8994
 1714SOL    HW215612   1.171   1.318   0.827 -1.3911 -0.4165 -1.4361
 1715SOL     OW15613   9.956   4.530   2.949  0.0921 -0.0475  0.1007
 1715SOL    HW115614   9.907   4.495   3.029  0.9554  0.1236  0.7049
 1715SOL    HW215615   9.983   4.454   2.891 -1.0008 -0.1394 -0.3109
 1716SOL     OW15616   2.390   4.704   2.253  0.1936 -0.7121  0.6129
 1716SOL    HW115617   2.465   4.724   2.191  0.6732 -2.6139  0.5444
 1716SOL    HW215618   2.356   4.789   2.294 -1.0111  0.7263 -3.2247
 1717SOL     OW15619   7.803   6.518   2.183 -0.5074 -0.2620  0.0128
 1717SOL    HW115620   7.769   6.582   2.114 -0.2037 -1.4850 -1.2970
 1717SOL    HW215621   7.730   6.454   2.208  0.2358 -1.7070 -1.4157
 1718SOL     OW15622   0.414   9.302   0.115  0.3185 -0.0658  0.0626
 1718SOL    HW115623   0.460   9.242   0.050 -0.0831  1.5550 -1.7785
 1718SOL    HW215624   0.379   9.248   0.192 -1.8941 -2.5517 -2.5480
 1719SOL     OW15625   0.767   5.995   1.813 -0.3856  0.0610 -0.6001
 1719SOL    HW115626   0.715   6.075   1.784 -2.3425 -1.5086 -1.5234
 1719SOL    HW215627   0.786   5.936   1.735  0.0088 -0.9755  0.2580
 1720SOL     OW15628   1.239   3.457   0.659 -0.1012  0.3899  0.0184
 1720SOL    HW115629   1.330   3.429   0.691  0.3456 -1.1228 -2.4395
 1720SOL    HW215630   1.244   3.549   0.621  0.4268  0.2892 -0.1588
 1721SOL     OW15631   0.876   9.869   1.042  0.2262  0.3809 -0.1206
 1721SOL    HW115632   0.829   9.951   1.074  0.2313  0.9606 -1.6005
 1721SOL    HW215633   0.809   9.807   1.000  0.3686  0.0205  0.1798
 1722SOL     OW15634   2.227   4.567   3.831 -0.3116 -0.7365  1.0557
 1722SOL    HW115635   2.257   4.627   3.757  0.5862 -0.8021  1.3627
 1722SOL    HW215636   2.128   4.552   3.824 -0.1928 -0.9586 -0.2875
 1723SOL     OW15637   1.296   9.156   3.416  0.1785  0.3394  0.2624
 1723SOL    HW115638   1.370   9.214   3.380  0.1745  1.9601  2.7219
 1723SOL    HW215639   1.305   9.149   3.515 -1.1722 -2.0495  0.2337
 1724SOL     OW15640   7.795   8.158   1.978  0.0594  0.0615  0.1365
 1724SOL    HW115641   7.884   8.203   1.984 -0.4089  0.7979  1.7181
 1724SOL    HW215642   7.799   8.070   2.025 -0.1609  0.2734  0.5513
 1725SOL     OW15643   1.265   4.147   0.586  0.1973 -0.5352  0.5300
 1725SOL    HW115644   1.200   4.170   0.658 -0.3855 -1.8859  0.4605
 1725SOL    HW215645   1.307   4.058   0.606 -0.4619 -1.2381 -1.1242
 1726SOL     OW15646   1.129   8.627   1.155 -0.8093  0.1940 -0.1000
 1726SOL    HW115647   1.076   8.633   1.239 -1.1203  1.0194 -0.3517
 1726SOL    HW215648   1.167   8.535   1.146  1.6346  0.8882  2.3923
 1727SOL     OW15649   1.643   8.709   1.871 -0.2752 -0.0776 -0.3465
 1727SOL    HW115650   1.616   8.619   1.906  0.7649  0.3851  1.7082
 1727SOL    HW215651   1.737   8.729   1.901 -0.4216  1.5912 -0.9876
 1728SOL     OW15652   4.212   9.943   1.937 -0.2796 -0.4359  0.1923
 1728SOL    HW115653   4.142   9.949   1.866  1.2163  0.5032 -1.2400
 1728SOL    HW215654   4.218  10.030   1.985  1.0078  0.0273 -0.7805
 1729SOL     OW15655   9.278   7.282   1.788  0.0371 -0.2925  0.7934
 1729SOL    HW115656   9.343   7.220   1.746  2.0279  2.0776  0.2426
 1729SOL    HW215657   9.290   7.283   1.887 -0.5367 -1.3437  0.8775
 1730SOL     OW15658   1.044   6.732   2.552 -0.5363  0.2416  0.0917
 1730SOL    HW115659   0.980   6.757   2.624  0.0559  2.4990 -0.1442
 1730SOL    HW215660   1.105   6.660   2.585 -1.1632  0.2766  1.3562
 1731SOL     OW15661   9.770   7.725   2.646  0.4278  0.0425  0.3166
 1731SOL    HW115662   9.831   7.771   2.711  1.4515  0.3870 -0.8531
 1731SOL    HW215663   9.813   7.724   2.556 -0.8184 -0.7393 -0.2844
 1732SOL     OW15664   1.528   3.028   1.396 -0.3317  0.5226 -0.4959
 1732SOL    HW115665   1.566   2.937   1.381 -1.8680 -0.3441  0.7319
 1732SOL    HW215666   1.513   3.042   1.494 -0.8163  1.8042 -0.7465
 1733SOL     OW15667   4.750   2.724   1.432  0.1662 -0.1800 -0.2678
 1733SOL    HW115668   4.729   2.742   1.528  1.8635  0.4980 -0.0105
 1733SOL    HW215669   4.672   2.752   1.375 -0.3975  0.4944  0.8199
 1734SOL     OW15670   3.258   3.358   2.727  0.0884 -0.3215 -0.3706
 1734SOL    HW115671   3.167   3.397   2.740  0.1294 -0.5464  0.6192
 1734SOL    HW215672   3.301   3.398   2.646  0.4669  2.2913  1.0716
 1735SOL     OW15673   9.900   5.662   0.661  0.0852 -0.3632  0.5999
 1735SOL    HW115674   9.886   5.725   0.737 -0.3435  1.1954 -0.7221
 1735SOL    HW215675   9.993   5.627   0.662 -0.5031 -1.9169  2.9735
 1736SOL     OW15676   0.149   1.006   2.897 -0.3703  0.0610 -0.0631
 1736SOL    HW115677   0.143   1.104   2.880 -0.2386  0.3321  1.3896
 1736SOL    HW215678   0.061   0.963   2.876 -0.7755  0.6672  0.3740
 1737SOL     OW15679   3.836   0.622   2.070  0.2548 -0.7914 -0.1865
 1737SOL    HW115680   3.779   0.703   2.084 -0.9673 -1.7293  0.3549
 1737SOL    HW215681   3.849   0.607   1.972  0.3173 -0.0589 -0.2923
 1738SOL     OW15682   3.648   0.712   2.278 -0.3894 -0.3654 -0.2477
 1738SOL    HW115683   3.714   0.657   2.330 -0.5693  0.7487  1.1853
 1738SOL    HW215684   3.680   0.807   2.274 -1.0615 -0.1636 -1.0338
 1739SOL     OW15685   1.719   9.731   2.422  0.0629  0.5242  0.0081
 1739SOL    HW115686   1.729   9.822   2.462 -3.0196  1.7971 -1.9019
 1739SOL    HW215687   1.630   9.725   2.375  0.3778 -3.3321 -0.2598
 1740SOL     OW15688   4.476   8.463   2.327  0.5817  0.3903  0.4256
 1740SOL    HW115689   4.550   8.474   2.394  1.7083 -2.7934 -0.1891
 1740SOL    HW215690   4.514   8.470   2.235 -0.3852  1.4732  0.1046
 1741SOL     OW15691   1.101   7.479   4.709 -0.1134  0.6611  0.1048
 1741SOL    HW115692   1.108   7.464   4.807 -0.0221 -0.6426 -0.0855
 1741SOL    HW215693   1.004   7.485   4.684 -0.1090  2.4038  0.4618
 1742SOL     OW15694   8.637   0.104   1.118  0.5808 -0.3271 -0.3879
 1742SOL    HW115695   8.734   0.125   1.107  0.3232  0.8580 -0.5022
 1742SOL    HW215696   8.624   0.005   1.119  1.8908 -0.5054  0.5456
 1743SOL     OW15697   3.099   6.559   2.731  0.0356 -0.9688 -0.0614
 1743SOL    HW115698   3.124   6.520   2.819  0.5653  0.8599  0.6349
 1743SOL    HW215699   3.148   6.646   2.718 -0.3071 -1.0359 -1.9926
 1744SOL     OW15700   9.695   9.161   0.800 -0.2708  0.1582  0.5035
 1744SOL    HW115701   9.659   9.091   0.739 -0.3948  2.3707 -2.0701
 1744SOL    HW215702   9.771   9.124   0.853  0.3831 -1.6096 -1.6110
 1745SOL     OW15703   8.159   6.810   4.695  0.3985  0.2516 -0.7117
 1745SOL    HW115704   8.080   6.830   4.636 -0.7870 -0.0628  0.7531
 1745SOL    HW215705   8.221   6.748   4.647 -0.9126 -0.5824 -1.3674
 1746SOL     OW15706   9.520   5.331   2.199  0.5204  0.3620  0.7682
 1746SOL    HW115707   9.566   5.337   2.288  1.2618  2.1841  0.2697
 1746SOL    HW215708   9.529   5.417   2.150  0.1318 -0.6358 -1.1160
 1747SOL     OW15709   2.828   3.466   3.234 -0.6336  0.4475  0.0943
 1747SOL    HW115710   2.893   3.521   3.181  0.3399  0.0001  0.8178
 1747SOL    HW215711   2.804   3.384   3.181 -0.1391  0.3115  0.0721
 1748SOL     OW15712   0.239   7.457   1.599 -0.1274 -0.1033 -0.4463
 1748SOL    HW115713   0.250   7.468   1.500 -0.4287 -1.2037 -0.6124
 1748SOL    HW215714   0.292   7.378   1.629 -0.1359  0.1603  0.2514
 1749SOL     OW15715   4.559   1.773   2.719 -0.3758 -0.7723  0.5148
 1749SOL    HW115716   4.655   1.797   2.731 -0.1379 -2.1090  1.4351
 1749SOL    HW215717   4.509   1.852   2.683  1.4022 -0.6088 -1.7397
 1750SOL     OW15718   2.168   6.204   1.645  0.3066  0.2316  0.2881
 1750SOL    HW115719   2.243   6.242   1.592  1.1000  0.0759  1.2755
 1750SOL    HW215720   2.095   6.272   1.653 -0.4953 -0.2727 -2.2547
 1751SOL     OW15721   9.867   8.707   3.312 -0.0387  0.5418 -0.6264
 1751SOL    HW115722   9.831   8.800   3.317 -0.8292  0.1931  0.1532
 1751SOL    HW215723   9.944   8.705   3.248  0.4229  1.8683 -0.1191
 1752SOL     OW15724   6.149   7.556   2.845 -0.0710  0.6178  0.0411
 1752SOL    HW115725   6.157   7.543   2.944  0.1086 -1.2498 -0.1959
 1752SOL    HW215726   6.075   7.499   2.810  0.0896  1.0105 -0.9539
 1753SOL     OW15727   9.648   5.378   1.086  0.0555 -0.1261 -0.6698
 1753SOL    HW115728   9.619   5.473   1.073  2.1957  0.4774 -1.2834
 1753SOL    HW215729   9.695   5.346   1.004 -0.5397 -1.6999 -0.4254
 1754SOL     OW15730   3.192   0.616   1.567 -0.1903  0.2305 -0.7923
 1754SOL    HW115731   3.224   0.687   1.505 -0.4319 -1.3815 -2.8101
 1754SOL    HW215732   3.130   0.554   1.518 -1.8461 -0.0215  1.5336
 1755SOL     OW15733   2.109   1.949   2.929 -0.9289 -0.2985  0.3700
 1755SOL    HW115734   2.165   1.867   2.915 -0.1681  0.5047 -1.4419
 1755SOL    HW215735   2.167   2.022   2.967 -1.4360 -0.3529  1.2733
 1756SOL     OW15736   3.979   2.416   0.279 -0.2430  0.4223  0.6187
 1756SOL    HW115737   4.004   2.510   0.303 -0.6546  0.5417  0.5946
 1756SOL    HW215738   4.030   2.352   0.336  1.8022  0.5950 -0.9867
 1757SOL     OW15739   8.435   5.428   1.551  0.0634  0.0521 -0.6089
 1757SOL    HW115740   8.443   5.399   1.456  0.0892  0.5722 -0.7665
 1757SOL    HW215741   8.526   5.449   1.588 -0.0886  1.3419 -0.9440
 1758SOL     OW15742   2.573   1.083   2.686  0.0180 -0.2754  0.4533
 1758SOL    HW115743   2.651   1.141   2.663 -0.6715  0.4425 -0.0912
 1758SOL    HW215744   2.604   0.988   2.695  0.9860  0.0319  0.4446
 1759SOL     OW15745   3.589   1.721   0.101 -0.5625  0.3829 -0.3041
 1759SOL    HW115746   3.611   1.746   0.196 -0.8131  0.9313 -0.3882
 1759SOL    HW215747   3.614   1.625   0.085  0.2603  0.5308  0.0703
 1760SOL     OW15748   3.422   8.178   0.300 -0.2545 -0.0540  0.2398
 1760SOL    HW115749   3.389   8.271   0.284 -1.4560 -0.0412  2.4887
 1760SOL    HW215750   3.522   8.178   0.304 -0.2365  1.0709 -0.1124
 1761SOL     OW15751   9.560   0.887   3.019 -0.4922 -0.2599  0.1158
 1761SOL    HW115752   9.656   0.862   3.036 -0.2768 -0.7137 -1.7163
 1761SOL    HW215753   9.512   0.808   2.981 -1.4056  0.2104  0.2933
 1762SOL     OW15754   1.373   9.771   3.402  0.4594 -0.5381 -0.1373
 1762SOL    HW115755   1.445   9.807   3.462 -0.3218  0.5077  0.1812
 1762SOL    HW215756   1.412   9.747   3.313  0.9352  1.4538 -0.4831
 1763SOL     OW15757   2.334   2.731   0.633  0.1817 -0.5297 -0.3706
 1763SOL    HW115758   2.418   2.683   0.658  1.8094  1.6288 -1.5660
 1763SOL    HW215759   2.279   2.671   0.574  1.0250 -1.8169  0.1155
 1764SOL     OW15760   5.880   6.530   2.881  0.4028  0.4552  0.0372
 1764SOL    HW115761   5.850   6.622   2.854  0.3543 -0.0946 -1.8415
 1764SOL    HW215762   5.879   6.470   2.801 -0.7571 -1.5083  1.4872
 1765SOL     OW15763   3.621   9.789   4.613  0.1008 -0.3986 -0.1790
 1765SOL    HW115764   3.546   9.733   4.649  0.6918 -0.6715  0.6399
 1765SOL    HW215765   3.708   9.746   4.635  0.5453  0.6102  0.0397
 1766SOL     OW15766   3.177   6.517   1.379  0.1126 -0.1845 -0.5985
 1766SOL    HW115767   3.146   6.587   1.443  1.2075  1.7605 -2.1367
 1766SOL    HW215768   3.097   6.481   1.329 -0.1772  2.2880 -2.0448
 1767SOL     OW15769   6.088   9.421   1.667 -0.0507  0.1660  0.2461
 1767SOL    HW115770   6.139   9.336   1.673 -1.4015 -0.7263 -0.7478
 1767SOL    HW215771   6.020   9.415   1.594  1.2660  2.8607 -1.2866
 1768SOL     OW15772   3.579   9.750   2.318 -0.5339 -0.2653 -0.5316
 1768SOL    HW115773   3.487   9.763   2.355 -0.2826 -0.3709  0.1523
 1768SOL    HW215774   3.575   9.690   2.239 -0.8852 -1.5556  0.4395
 1769SOL     OW15775   0.168   7.655   0.713  0.2152  0.0591  0.0855
 1769SOL    HW115776   0.214   7.740   0.740 -0.9868  0.8694 -0.3784
 1769SOL    HW215777   0.148   7.658   0.616 -0.4566 -0.4626  0.2068
 1770SOL     OW15778   3.238   0.180   0.790  0.1566  0.6624 -0.6442
 1770SOL    HW115779   3.266   0.087   0.765  0.0607  0.8867 -1.6082
 1770SOL    HW215780   3.162   0.209   0.732 -1.6884  0.3040  1.5457
 1771SOL     OW15781   8.596   7.074   2.212 -0.1372  0.6687  0.2841
 1771SOL    HW115782   8.611   7.026   2.298 -1.2727 -0.3317 -0.0533
 1771SOL    HW215783   8.664   7.045   2.144 -0.2504  0.2254  0.3587
 1772SOL     OW15784   0.474   7.606   0.714 -0.3675  0.4778  0.0194
 1772SOL    HW115785   0.571   7.601   0.740 -0.6624  0.1895  1.0679
 1772SOL    HW215786   0.447   7.702   0.706 -0.7986  0.6218  2.8066
 1773SOL     OW15787   8.266   9.001   0.001 -0.5851 -0.2253  0.2033
 1773SOL    HW115788   8.243   9.019  -0.095  1.9599  0.5915 -0.2876
 1773SOL    HW215789   8.211   9.061   0.059  1.7405  3.2507 -1.0445
 1774SOL     OW15790   4.117   4.637   0.525  0.2402 -0.7129  0.1529
 1774SOL    HW115791   4.072   4.667   0.609  1.0307 -0.9089  0.6486
 1774SOL    HW215792   4.202   4.688   0.512 -0.3055 -0.0730 -0.9805
 1775SOL     OW15793   0.702   3.000   4.402  0.3120  0.6024 -0.7594
 1775SOL    HW115794   0.717   2.949   4.487 -0.3473  0.7817 -0.5370
 1775SOL    HW215795   0.790   3.012   4.355  0.9032  1.6985  0.5856
 1776SOL     OW15796   0.944   7.871   1.036  0.3187 -0.0778  0.1406
 1776SOL    HW115797   0.900   7.797   1.087  1.0178  0.3347  1.3612
 1776SOL    HW215798   0.936   7.956   1.088  0.0023  0.5975 -0.9969
 1777SOL     OW15799   1.949   4.512   3.798 -0.1868 -0.2561 -0.1061
 1777SOL    HW115800   1.852   4.537   3.803  0.1323  0.4399  3.2235
 1777SOL    HW215801   1.958   4.413   3.793 -1.0497 -0.3327 -0.1704
 1778SOL     OW15802   4.109   3.883   3.001  0.4239  0.4840 -0.1873
 1778SOL    HW115803   4.048   3.927   3.067  1.3819  1.6574 -0.0706
 1778SOL    HW215804   4.089   3.916   2.909  0.1424  0.0341 -0.2890
 1779SOL     OW15805   9.490   5.216   1.272  0.2562 -0.0848  0.7216
 1779SOL    HW115806   9.535   5.276   1.206 -1.5242  0.0684 -0.3799
 1779SOL    HW215807   9.499   5.121   1.242 -1.4895  0.0740 -0.3200
 1780SOL     OW15808   8.012   0.029   3.153  0.2293 -0.0506  0.0688
 1780SOL    HW115809   7.950   0.007   3.079 -0.1498  1.2435 -0.0207
 1780SOL    HW215810   8.104  -0.004   3.131 -0.1234 -0.7045 -0.4374
 1781SOL     OW15811   0.324   8.327   4.439 -0.2958 -0.1942  0.4593
 1781SOL    HW115812   0.228   8.303   4.423 -0.4043  0.5665 -0.0768
 1781SOL    HW215813   0.355   8.286   4.525 -0.9596 -0.8373  0.4007
 1782SOL     OW15814   6.830   9.497   1.687 -0.3888 -1.1095 -0.5329
 1782SOL    HW115815   6.763   9.571   1.693  0.9349  0.0412  0.5722
 1782SOL    HW215816   6.821   9.437   1.767 -0.3336 -1.1400 -0.5494
 1783SOL     OW15817   8.370   7.648   0.122  0.4935 -0.2884 -0.1217
 1783SOL    HW115818   8.304   7.722   0.110  1.5194  0.8508  0.9932
 1783SOL    HW215819   8.362   7.582   0.048  0.2510  1.4896 -1.6984
 1784SOL     OW15820   2.138   4.430   2.893 -0.3077  0.4761  0.1540
 1784SOL    HW115821   2.181   4.447   2.982 -0.4651 -0.1309  0.3453
 1784SOL    HW215822   2.208   4.414   2.824 -0.2283 -1.0857  0.5779
 1785SOL     OW15823   3.476   5.074   2.704 -0.5691  0.1509  0.3678
 1785SOL    HW115824   3.467   5.126   2.789 -0.6675  1.1960 -0.2722
 1785SOL    HW215825   3.455   5.133   2.626  0.1383 -0.6273 -0.4269
 1786SOL     OW15826   1.385   7.215   0.758 -0.1215 -0.4405 -0.3752
 1786SOL    HW115827   1.359   7.290   0.818 -0.6670 -0.8355 -0.1107
 1786SOL    HW215828   1.302   7.166   0.728  0.3033 -1.6329  0.3571
 1787SOL     OW15829   0.063   0.240   1.380  0.0960  0.4740 -0.4616
 1787SOL    HW115830   0.117   0.255   1.463 -1.4205 -1.6055  0.9445
 1787SOL    HW215831  -0.019   0.298   1.383 -0.9582 -1.0350  0.4616
 1788SOL     OW15832   3.099   3.225   4.350  0.1116 -0.3299  0.3395
 1788SOL    HW115833   3.041   3.236   4.270 -1.3409 -1.3048  1.2350
 1788SOL    HW215834   3.186   3.272   4.335 -0.2844 -0.1948 -1.6411
 1789SOL     OW15835   0.055   9.737   3.792 -0.3961  0.2040 -0.2857
 1789SOL    HW115836   0.113   9.734   3.873  0.3007 -0.5505 -0.8009
 1789SOL    HW215837   0.038   9.832   3.766  1.4756  0.4368 -0.7254
 1790SOL     OW15838   1.590   4.854   0.656  0.1165 -0.4329  0.0159
 1790SOL    HW115839   1.578   4.946   0.620  0.3258 -0.4278 -0.0373
 1790SOL    HW215840   1.622   4.859   0.750 -0.1708 -0.4503  0.1175
 1791SOL     OW15841   7.751   7.182   1.806  0.0673  0.1710  0.1718
 1791SOL    HW115842   7.756   7.089   1.842 -0.4852  0.5063  1.1306
 1791SOL    HW215843   7.814   7.241   1.857 -1.2099  0.7907  1.0358
 1792SOL     OW15844   1.913   7.035   3.470 -0.0624  0.3577  0.2740
 1792SOL    HW115845   2.007   7.069   3.463 -0.0870  0.6185  1.1400
 1792SOL    HW215846   1.855   7.083   3.404  0.5181 -0.1797 -0.6300
 1793SOL     OW15847   7.867   8.971   2.228 -0.3810 -0.4067  0.3851
 1793SOL    HW115848   7.917   8.895   2.269 -0.4954  0.3272  1.9123
 1793SOL    HW215849   7.879   9.053   2.284 -2.4100  0.0480  0.1791
 1794SOL     OW15850   0.592   2.536   1.176 -0.4624 -0.1168  0.4209
 1794SOL    HW115851   0.549   2.588   1.102 -2.2483 -0.7710  0.9837
 1794SOL    HW215852   0.676   2.582   1.204 -1.0918  1.4986 -0.2913
 1795SOL     OW15853   2.931   1.622   0.563  0.3459 -0.3204 -0.4729
 1795SOL    HW115854   2.994   1.615   0.486  1.4159  0.9371  0.2839
 1795SOL    HW215855   2.982   1.637   0.648 -0.8970 -0.3765  0.3046
 1796SOL     OW15856   1.709   2.508   3.091  1.0455 -0.8463 -0.0561
 1796SOL    HW115857   1.789   2.448   3.093  1.1821 -0.6289  1.0760
 1796SOL    HW215858   1.737   2.603   3.103  0.7665 -0.5977 -1.2476
 1797SOL     OW15859   2.405   9.742   1.237  0.1470  0.6053  1.0483
 1797SOL    HW115860   2.420   9.653   1.279 -0.5279  0.1481  0.3617
 1797SOL    HW215861   2.479   9.762   1.173 -0.1973  0.0734  0.4686
 1798SOL     OW15862   0.375   8.239   4.677  0.6268 -0.0268  0.1570
 1798SOL    HW115863   0.313   8.283   4.742  0.1371  0.4411 -0.6195
 1798SOL    HW215864   0.404   8.151   4.713 -2.1951 -1.2556 -0.3896
 1799SOL     OW15865   7.070   9.327   3.670  0.2765  0.4497 -0.4372
 1799SOL    HW115866   6.974   9.305   3.685  0.3193  1.6096  1.7330
 1799SOL    HW215867   7.084   9.426   3.680  1.7751  0.2298 -0.1774
 1800SOL     OW15868   2.816   9.565   0.184  0.4566 -0.3023 -0.0762
 1800SOL    HW115869   2.745   9.499   0.208  2.2230 -2.1775  0.0841
 1800SOL    HW215870   2.905   9.529   0.210  1.4970  1.9774 -0.3878
 1801SOL     OW15871   1.297   2.230   1.191 -0.4679 -0.5553 -0.5170
 1801SOL    HW115872   1.296   2.300   1.263 -1.8847 -1.6031  0.5006
 1801SOL    HW215873   1.210   2.231   1.143 -0.5133 -1.6575 -0.4653
 1802SOL     OW15874   0.080   7.844   2.203  0.1851 -0.0506  0.1654
 1802SOL    HW115875   0.077   7.758   2.153 -0.2023 -0.2764  0.5710
 1802SOL    HW215876   0.174   7.877   2.208  0.1068  0.4179 -1.4611
 1803SOL     OW15877   0.500   3.011   3.969 -0.1433 -0.4826  0.0933
 1803SOL    HW115878   0.513   3.081   4.039  0.5707  0.0164 -0.5397
 1803SOL    HW215879   0.589   2.983   3.933 -0.4037 -1.8767  0.5054
 1804SOL     OW15880   2.042   0.114   2.513  0.2765  0.1232 -0.2164
 1804SOL    HW115881   1.989   0.079   2.436  0.3804 -1.0485  0.2303
 1804SOL    HW215882   2.014   0.207   2.534 -0.6949 -0.0331 -0.8137
 1805SOL     OW15883   7.266   9.550   2.932  0.6674  0.5983 -0.5149
 1805SOL    HW115884   7.223   9.480   2.875  2.8611 -1.1097 -0.1497
 1805SOL    HW215885   7.203   9.576   3.006 -0.6839 -0.0063 -1.4334
 1806SOL     OW15886   0.984   4.312   3.693 -0.3738  0.1318 -0.2705
 1806SOL    HW115887   1.063   4.355   3.736 -0.2234  1.7206 -2.1041
 1806SOL    HW215888   0.901   4.342   3.739 -0.1081  0.6895 -0.1504
 1807SOL     OW15889   8.933   6.288   4.459  0.1609 -0.1638  0.5261
 1807SOL    HW115890   8.944   6.350   4.536 -1.9671  2.4318 -1.1686
 1807SOL    HW215891   8.917   6.341   4.375  0.5283 -2.9426 -1.3900
 1808SOL     OW15892   3.443   3.071   1.133  0.4604  0.4638 -0.3483
 1808SOL    HW115893   3.403   3.090   1.222  1.8801 -0.8882  0.5873
 1808SOL    HW215894   3.507   3.144   1.109 -0.3761  1.1422 -0.5584
 1809SOL     OW15895   4.059   3.347   0.726 -0.4140 -0.3172 -0.2067
 1809SOL    HW115896   4.049   3.331   0.627  2.3457 -1.4296 -0.3350
 1809SOL    HW215897   4.148   3.313   0.757 -0.6013  1.4202  2.3937
 1810SOL     OW15898   2.164   9.973   1.171  0.1091 -0.2287 -0.2866
 1810SOL    HW115899   2.167   9.969   1.071  1.0797 -0.4907 -0.2602
 1810SOL    HW215900   2.198   9.887   1.208  0.0630 -0.0061  0.2677
 1811SOL     OW15901   0.980   0.910   1.376  0.1601  0.5923 -0.3245
 1811SOL    HW115902   1.001   0.909   1.278 -1.1621  1.4706 -0.6320
 1811SOL    HW215903   0.895   0.859   1.392  0.7454 -0.1449  0.4583
 1812SOL     OW15904   1.286   6.317   2.199  0.0521 -0.6792 -0.4263
 1812SOL    HW115905   1.324   6.226   2.214 -1.3869 -1.0314  1.2167
 1812SOL    HW215906   1.186   6.311   2.197 -0.0699  0.9347  0.2189
 1813SOL     OW15907   1.992   9.754   4.587  0.1023 -0.4582  0.3592
 1813SOL    HW115908   1.981   9.852   4.569 -1.8864 -0.9881 -1.5327
 1813SOL    HW215909   1.909   9.719   4.629  0.2879 -1.5956 -0.2143
 1814SOL     OW15910   1.490   1.069   3.511  0.2229  0.5374  0.1668
 1814SOL    HW115911   1.484   1.086   3.609  0.4249 -1.8018  0.5983
 1814SOL    HW215912   1.415   1.118   3.465  0.4364  2.0663  1.4031
 1815SOL     OW15913   3.013   8.411   1.167  0.5516  0.6845  0.1360
 1815SOL    HW115914   2.968   8.322   1.170 -0.4457  1.2094  2.0013
 1815SOL    HW215915   2.971   8.468   1.096 -0.2842  0.4234  0.4200
 1816SOL     OW15916   8.760   8.037   1.979  0.6676  0.1810 -0.2490
 1816SOL    HW115917   8.701   8.076   1.908 -0.1006 -1.2162 -0.3759
 1816SOL    HW215918   8.843   8.001   1.937 -0.8024 -2.7444 -0.7840
 1817SOL     OW15919   2.571   5.298   3.096 -0.1299  0.2898  0.0367
 1817SOL    HW115920   2.532   5.389   3.108 -0.4380  0.1054  0.4471
 1817SOL    HW215921   2.671   5.303   3.107 -0.1522  0.5639  0.1263
 1818SOL     OW15922   7.413   8.669   0.275  0.7953 -0.6786  0.6200
 1818SOL    HW115923   7.412   8.569   0.268  0.9441 -0.7118  1.0305
 1818SOL    HW215924   7.432   8.695   0.370  1.6342 -0.2618  0.3450
 1819SOL     OW15925   1.882   8.416   1.617 -0.1291 -0.3535  0.6641
 1819SOL    HW115926   1.907   8.511   1.635 -0.4475 -0.1394 -0.0186
 1819SOL    HW215927   1.912   8.390   1.525  0.0847 -0.9549  0.9023
 1820SOL     OW15928   0.211   7.685   2.671 -0.4189 -0.0421 -0.2529
 1820SOL    HW115929   0.154   7.743   2.613 -1.3315  0.1498  0.8241
 1820SOL    HW215930   0.304   7.720   2.671 -0.4509  0.0771 -1.4357
 1821SOL     OW15931   9.243   9.822   2.912 -0.5551 -0.6213  0.2831
 1821SOL    HW115932   9.259   9.809   3.010 -0.9613  0.5226  0.5045
 1821SOL    HW215933   9.276   9.912   2.884 -1.6910 -0.3898 -0.3419
 1822SOL     OW15934   8.233   6.829   0.601  0.3150  0.2309 -0.1820
 1822SOL    HW115935   8.245   6.914   0.550 -0.3176  0.1744 -0.4313
 1822SOL    HW215936   8.161   6.841   0.670  0.4380 -0.0078 -0.0106
 1823SOL     OW15937   6.713   0.206   1.331 -0.1090  0.2654 -0.5129
 1823SOL    HW115938   6.803   0.169   1.352 -0.0382  0.1957 -0.9454
 1823SOL    HW215939   6.698   0.290   1.383  0.3941  0.5353 -0.8108
 1824SOL     OW15940   0.562   5.391   1.500  0.1693 -0.1190 -0.8033
 1824SOL    HW115941   0.577   5.347   1.588 -2.0149  0.0669 -0.2924
 1824SOL    HW215942   0.500   5.469   1.512  1.0336  0.8186 -2.2746
 1825SOL     OW15943   2.099   2.384   1.107 -0.0462  0.0645  0.2688
 1825SOL    HW115944   2.148   2.470   1.120  0.9304 -0.5165  0.4637
 1825SOL    HW215945   2.018   2.383   1.166 -0.6439  1.2903 -0.5161
 1826SOL     OW15946   1.980   2.031   3.600 -0.2473  0.2502  0.0615
 1826SOL    HW115947   2.048   2.104   3.606 -0.1416  0.1794 -0.2792
 1826SOL    HW215948   1.944   2.011   3.691  0.4449  0.0406  0.2904
 1827SOL     OW15949   2.705   6.889   1.190  0.6968  0.0466  0.6435
 1827SOL    HW115950   2.739   6.979   1.219 -1.0055  0.2713  2.0404
 1827SOL    HW215951   2.700   6.829   1.270 -1.1257 -0.3216  0.2607
 1828SOL     OW15952   9.717   9.599   2.727  0.2198 -0.4645  0.4826
 1828SOL    HW115953   9.717   9.659   2.807  0.7864  1.5856 -0.9901
 1828SOL    HW215954   9.784   9.632   2.661 -0.8979 -1.5533 -1.2450
 1829SOL     OW15955   3.817   2.965   0.577  0.3840  0.3063 -0.7461
 1829SOL    HW115956   3.793   2.868   0.570  0.4280  0.2581 -0.2654
 1829SOL    HW215957   3.795   3.011   0.491 -0.7403  0.1036 -0.5817
 1830SOL     OW15958   2.046   1.695   0.603 -0.3833  0.1066 -0.0084
 1830SOL    HW115959   2.006   1.756   0.672 -1.6939 -0.7425  0.0169
 1830SOL    HW215960   2.045   1.601   0.638  2.7167  0.1998  0.4404
 1831SOL     OW15961   3.970   4.216   3.548 -0.1021  0.1874  0.4739
 1831SOL    HW115962   3.977   4.292   3.613  1.4787 -0.0579  0.6157
 1831SOL    HW215963   4.017   4.136   3.586  0.8327  0.0420 -0.9591
 1832SOL     OW15964   3.653   4.723   4.406  0.0635 -0.1789 -0.1829
 1832SOL    HW115965   3.684   4.818   4.408 -0.3752  0.0804 -3.6219
 1832SOL    HW215966   3.732   4.663   4.395  0.1690 -0.1233  0.2385
 1833SOL     OW15967   0.391   6.839   2.798 -0.3237 -0.0890  0.2443
 1833SOL    HW115968   0.483   6.849   2.837 -0.2345  0.6421 -0.1353
 1833SOL    HW215969   0.378   6.745   2.767  0.8111  0.1285 -0.9588
 1834SOL     OW15970   0.267   6.734   4.595  0.2065 -0.5490 -0.2819
 1834SOL    HW115971   0.350   6.735   4.650 -1.4859 -0.6123  2.3592
 1834SOL    HW215972   0.188   6.753   4.654 -1.3927  2.2945 -3.1981
 1835SOL     OW15973   3.116   3.789   3.607 -0.3394 -0.7353 -0.0214
 1835SOL    HW115974   3.044   3.831   3.551  0.6184  0.0214 -0.7019
 1835SOL    HW215975   3.101   3.811   3.703  0.8017  2.2147 -0.4732
 1836SOL     OW15976   8.398   9.062   0.600  0.0041  0.4373  0.3538
 1836SOL    HW115977   8.342   9.086   0.521 -1.3594 -0.3727  1.0652
 1836SOL    HW215978   8.399   8.962   0.612  2.3550  0.3599 -0.1994
 1837SOL     OW15979   2.189   6.279   2.140 -0.3525  0.0969 -0.1521
 1837SOL    HW115980   2.111   6.266   2.079  0.1373 -1.7494 -0.3959
 1837SOL    HW215981   2.250   6.348   2.100 -0.4225 -0.5312 -1.3784
 1838SOL     OW15982   9.592   7.439   0.056 -0.0955 -0.6010  0.1786
 1838SOL    HW115983   9.642   7.497  -0.008  0.3723  1.3818  2.2950
 1838SOL    HW215984   9.639   7.351   0.064 -0.0779 -0.8190 -2.0655
 1839SOL     OW15985   0.719   4.605   3.795 -0.1894 -0.1967 -0.5993
 1839SOL    HW115986   0.678   4.695   3.780  0.2565  0.4706  1.9008
 1839SOL    HW215987   0.813   4.605   3.759 -0.0192  0.5090 -0.1638
 1840SOL     OW15988   3.510   1.164   4.461  0.2645 -0.3135  0.7731
 1840SOL    HW115989   3.434   1.161   4.396  1.6503  0.2741 -0.9220
 1840SOL    HW215990   3.524   1.073   4.500  0.7186 -1.1711 -1.3316
 1841SOL     OW15991   7.069   9.104   1.361  0.2470 -0.0431  0.0858
 1841SOL    HW115992   6.976   9.139   1.348  0.6781  1.3377  0.6244
 1841SOL    HW215993   7.094   9.111   1.458  0.9619 -0.2804 -0.0764
 1842SOL     OW15994   8.065   9.987   4.373 -0.3807  0.0415 -0.1223
 1842SOL    HW115995   8.140   9.977   4.438 -1.1007 -0.5781  0.6292
 1842SOL    HW215996   8.101   9.991   4.280  0.7139  1.6778  0.3644
 1843SOL     OW15997   0.555   3.382   2.110  0.2407  0.4480 -0.1091
 1843SOL    HW115998   0.589   3.472   2.137  1.4336 -0.4601  1.5747
 1843SOL    HW215999   0.460   3.373   2.139  0.5627  0.6452  1.0487
 1844SOL     OW16000   7.239   7.931   3.140  0.0368  0.1541  0.1689
 1844SOL    HW116001   7.163   7.975   3.187 -1.2454 -0.6324 -1.1342
 1844SOL    HW216002   7.257   7.978   3.053 -0.2624 -0.8664 -0.4523
 1845SOL     OW16003   4.974   7.460   2.132  0.8519 -0.8444 -0.3989
 1845SOL    HW116004   4.983   7.479   2.034  0.8937 -0.6476 -0.3559
 1845SOL    HW216005   5.038   7.516   2.183 -0.8876  0.8765 -0.0634
 1846SOL     OW16006   8.080   7.824   3.929  0.2423  0.1879 -0.1515
 1846SOL    HW116007   8.054   7.728   3.921 -0.8009  0.4842 -0.4932
 1846SOL    HW216008   8.164   7.841   3.878  1.3373 -0.8831  1.2622
 1847SOL     OW16009   9.560   7.409   1.403 -0.4078  0.3075 -0.3962
 1847SOL    HW116010   9.473   7.366   1.425 -0.8806  0.7383 -1.3919
 1847SOL    HW216011   9.559   7.440   1.308  1.1110 -0.3578 -0.6398
 1848SOL     OW16012   1.844   7.408   0.491 -0.3919  0.0592 -0.0224
 1848SOL    HW116013   1.763   7.387   0.436 -0.6342  1.3807 -0.1842
 1848SOL    HW216014   1.843   7.505   0.517  1.1249  0.0930 -0.0185
 1849SOL     OW16015   0.970   2.799   3.325 -0.0317 -0.1302 -0.3020
 1849SOL    HW116016   0.901   2.815   3.396  0.9118  0.2097  0.5445
 1849SOL    HW216017   1.000   2.704   3.329 -0.0752 -0.1452 -0.3345
 1850SOL     OW16018   4.922   0.454   1.703 -0.5763  0.2328 -0.0293
 1850SOL    HW116019   4.890   0.548   1.691 -2.1823 -0.3794 -0.6771
 1850SOL    HW216020   4.954   0.441   1.797  0.7256  1.7388 -0.2537
 1851SOL     OW16021   9.280   7.826   2.972 -0.3175  0.0805 -0.3813
 1851SOL    HW116022   9.300   7.763   2.897  1.4254  1.1267 -0.8078
 1851SOL    HW216023   9.232   7.906   2.937 -1.0880 -0.2311 -0.0758
 1852SOL     OW16024   4.744   8.477   2.447 -0.3013 -0.1859  0.4420
 1852SOL    HW116025   4.742   8.565   2.495  0.3611 -1.2545  2.4697
 1852SOL    HW216026   4.838   8.447   2.435 -0.5021 -0.3847 -0.7139
 1853SOL     OW16027   2.744   1.693   4.354  0.2965  0.0768 -0.4159
 1853SOL    HW116028   2.837   1.701   4.387 -0.5040  0.6975  1.7748
 1853SOL    HW216029   2.689   1.642   4.420 -1.5765  2.1346 -0.3300
 1854SOL     OW16030   9.928   0.237   1.798 -0.5890  0.0581 -0.0379
 1854SOL    HW116031   9.850   0.300   1.803  0.1933  1.1051 -0.7933
 1854SOL    HW216032   9.952   0.207   1.890  0.1476  2.2896  0.5401
 1855SOL     OW16033   4.001   0.698   0.856  0.0004 -0.1431 -0.2787
 1855SOL    HW116034   3.935   0.764   0.820 -0.4421  0.1858  1.1118
 1855SOL    HW216035   4.094   0.732   0.841 -0.2459  1.3607  1.4426
 1856SOL     OW16036   4.262   8.392   3.983 -0.7331 -0.2486 -0.2629
 1856SOL    HW116037   4.214   8.348   3.907  0.2169  0.6880 -1.4117
 1856SOL    HW216038   4.340   8.443   3.948 -0.4231  0.3772  1.3247
 1857SOL     OW16039   1.050   7.859   3.911  0.1968 -0.0411  0.0818
 1857SOL    HW116040   1.136   7.862   3.963 -0.8874  1.7496  1.8826
 1857SOL    HW216041   0.975   7.892   3.969 -1.4195  0.1243 -2.0250
 1858SOL     OW16042   1.565   2.655   2.454 -0.1880  0.0151  0.3696
 1858SOL    HW116043   1.470   2.648   2.485 -0.8395  1.1419 -1.3025
 1858SOL    HW216044   1.589   2.572   2.404 -1.1207  0.7872 -1.3869
 1859SOL     OW16045   9.043   6.660   3.230  0.4377  0.1305  0.0667
 1859SOL    HW116046   8.974   6.659   3.158  0.9908  2.8039 -0.5233
 1859SOL    HW216047   9.001   6.632   3.317 -0.0717 -3.8430 -1.3296
 1860SOL     OW16048   9.172   8.238   4.472  0.6610 -0.1813  0.4933
 1860SOL    HW116049   9.155   8.200   4.563 -3.4418  1.3963  0.4660
 1860SOL    HW216050   9.202   8.165   4.410  1.4689 -1.6368  2.5478
 1861SOL     OW16051   3.205   7.134   1.440 -0.0745  0.2339 -0.1159
 1861SOL    HW116052   3.218   7.128   1.341  0.7912 -0.2340  0.0158
 1861SOL    HW216053   3.184   7.228   1.465 -2.1825  0.0144 -0.9449
 1862SOL     OW16054   3.203   8.870   3.948 -0.4218 -0.4547  0.0989
 1862SOL    HW116055   3.200   8.970   3.942 -0.7294 -0.4542  0.2915
 1862SOL    HW216056   3.289   8.837   3.908 -1.1136 -0.2417 -1.6268
 1863SOL     OW16057   4.457   3.466   1.110  0.1293 -0.8268  0.0293
 1863SOL    HW116058   4.458   3.542   1.176  0.9278 -1.6250  0.9585
 1863SOL    HW216059   4.532   3.477   1.046 -0.2949 -0.3627 -0.3952
 1864SOL     OW16060   5.172   0.568   3.527  0.3600  0.0431 -0.1982
 1864SOL    HW116061   5.228   0.631   3.581 -0.5673  0.4109  0.3409
 1864SOL    HW216062   5.075   0.587   3.543  0.0736 -1.1140 -0.5049
 1865SOL     OW16063   0.550   1.105   1.165 -0.2453  0.1322 -0.1820
 1865SOL    HW116064   0.533   1.200   1.190 -0.3467  0.2050 -0.5295
 1865SOL    HW216065   0.463   1.061   1.142 -0.2338 -0.1210  0.2499
 1866SOL     OW16066   3.777   8.719   0.322  0.0871  0.5427 -0.1714
 1866SOL    HW116067   3.773   8.686   0.227  0.0455  0.8409 -0.2735
 1866SOL    HW216068   3.730   8.807   0.329 -0.6545  0.1220  0.2996
 1867SOL     OW16069   8.603   9.923   1.950 -0.2432  0.3099 -0.1660
 1867SOL    HW116070   8.593   9.876   2.038 -0.1536 -0.0837 -0.3649
 1867SOL    HW216071   8.599   9.856   1.876  1.4352  0.4307 -0.3851
 1868SOL     OW16072   3.315   2.033   3.997  0.3304 -0.1981 -0.2185
 1868SOL    HW116073   3.217   2.022   3.981  0.2186  0.7667 -0.2233
 1868SOL    HW216074   3.331   2.051   4.094  0.4122  0.6040 -0.3770
 1869SOL     OW16075   8.695   0.227   2.754  0.3126  0.1889 -0.8240
 1869SOL    HW116076   8.773   0.282   2.724  1.1418 -2.2564 -3.4821
 1869SOL    HW216077   8.614   0.252   2.701 -0.1026  1.0079  0.1872
 1870SOL     OW16078   9.762   9.335   4.769 -0.0428  0.1473 -0.8198
 1870SOL    HW116079   9.831   9.377   4.709  1.7088 -0.4598  0.7090
 1870SOL    HW216080   9.738   9.398   4.842  0.6912 -0.4985  0.0055
 1871SOL     OW16081   7.284   0.073   3.662 -0.6427  0.5202  0.1821
 1871SOL    HW116082   7.374   0.049   3.698 -1.4275 -1.0163  1.1780
 1871SOL    HW216083   7.250   0.156   3.706  0.6752  1.6474 -0.8859
 1872SOL     OW16084   0.446   3.945   2.147 -0.6727 -0.3202  1.0472
 1872SOL    HW116085   0.457   3.974   2.242  1.2688  0.6672  0.5639
 1872SOL    HW216086   0.533   3.908   2.114 -1.7613 -2.0890  0.1182
 1873SOL     OW16087   1.635   9.295   1.555 -0.4217 -0.1730  0.4222
 1873SOL    HW116088   1.715   9.313   1.612  0.7152 -0.7764 -0.9353
 1873SOL    HW216089   1.552   9.316   1.606  0.5195 -1.6408  2.6638
 1874SOL     OW16090   1.162   7.649   2.630  0.4732  0.0867  0.4021
 1874SOL    HW116091   1.130   7.593   2.706 -2.4400 -0.1535 -0.9274
 1874SOL    HW216092   1.261   7.641   2.622  0.4685 -2.3725  2.1809
 1875SOL     OW16093   8.370   7.939   4.104 -0.0640 -0.2421  0.0917
 1875SOL    HW116094   8.460   7.926   4.061 -0.3818  1.1368 -1.0455
 1875SOL    HW216095   8.323   8.016   4.060 -2.8576 -2.4972 -1.0717
 1876SOL     OW16096   4.476   1.503   2.579 -0.1609 -0.3820  0.1295
 1876SOL    HW116097   4.563   1.456   2.597 -0.5750 -1.2555 -0.1369
 1876SOL    HW216098   4.483   1.598   2.609  0.2196 -0.9761  1.9838
 1877SOL     OW16099   4.010   7.458   0.431 -0.0275 -0.7670  0.1510
 1877SOL    HW116100   4.015   7.557   0.418 -3.6003 -0.2053  2.5216
 1877SOL    HW216101   3.975   7.415   0.348 -1.9638  0.3994  0.3294
 1878SOL     OW16102   1.910   2.510   1.288 -0.3123  0.3759  0.3874
 1878SOL    HW116103   1.830   2.548   1.335 -0.4815  3.1699 -2.0010
 1878SOL    HW216104   1.984   2.497   1.353 -2.1107 -0.5662  2.3091
 1879SOL     OW16105   0.768   4.650   1.824 -0.2201  0.5423  0.1998
 1879SOL    HW116106   0.853   4.654   1.878  2.4227  0.4632 -3.7784
 1879SOL    HW216107   0.718   4.567   1.847  3.5790 -2.3261 -1.2531
 1880SOL     OW16108   2.563   6.146   3.783 -0.3561  0.2938 -0.1188
 1880SOL    HW116109   2.598   6.087   3.710 -3.1944 -0.2185 -1.1309
 1880SOL    HW216110   2.619   6.228   3.789  2.3535 -1.4873 -0.1362
 1881SOL     OW16111   0.236   0.892   2.626 -0.1135  0.0685  0.2291
 1881SOL    HW116112   0.307   0.950   2.665 -0.4497  0.9834 -0.4900
 1881SOL    HW216113   0.159   0.886   2.689 -0.3784  1.0024  0.0000
 1882SOL     OW16114   3.295   8.455   3.660 -0.0226  0.1264 -0.2762
 1882SOL    HW116115   3.267   8.359   3.673  0.1958  0.1693  0.5438
 1882SOL    HW216116   3.392   8.459   3.637  0.2599  0.2277  0.9346
 1883SOL     OW16117   1.600   5.678   2.414 -0.4264  0.3378  0.2421
 1883SOL    HW116118   1.634   5.646   2.326  2.6185  1.0773  1.0807
 1883SOL    HW216119   1.598   5.778   2.414 -1.0179  0.3248  0.7751
 1884SOL     OW16120   3.256   2.128   2.299 -0.3642 -0.0358 -0.2380
 1884SOL    HW116121   3.170   2.179   2.292 -0.5370 -0.2725  0.1578
 1884SOL    HW216122   3.237   2.033   2.324  0.0618  0.1478  0.8179
 1885SOL     OW16123   3.668   4.845   1.343  0.6082  0.4262  0.2165
 1885SOL    HW116124   3.678   4.746   1.334  2.5617  0.5135  1.1504
 1885SOL    HW216125   3.610   4.866   1.421  0.8239  0.0149  0.4905
 1886SOL     OW16126   7.256   6.930   2.593 -0.5743 -0.2700 -0.0655
 1886SOL    HW116127   7.230   6.936   2.497  0.4930 -0.4437 -0.3707
 1886SOL    HW216128   7.265   7.023   2.630 -0.8607 -0.2012 -0.1578
 1887SOL     OW16129   1.477   0.344   3.408  0.2397 -0.1033  0.0999
 1887SOL    HW116130   1.525   0.368   3.323 -0.5900 -1.9283 -0.8951
 1887SOL    HW216131   1.381   0.368   3.399  0.0884 -0.6023  0.3957
 1888SOL     OW16132   3.660   5.601   1.434 -0.8248  0.0096 -0.2392
 1888SOL    HW116133   3.643   5.684   1.380 -1.2721  0.7098  0.9430
 1888SOL    HW216134   3.592   5.532   1.411 -0.1856 -0.1868 -1.5477
 1889SOL     OW16135   0.293   1.134   0.596  0.1780  0.3603  0.1173
 1889SOL    HW116136   0.392   1.134   0.608  0.4895  1.1366 -2.0779
 1889SOL    HW216137   0.259   1.228   0.599 -0.1175  0.3277 -1.6783
 1890SOL     OW16138   2.030   2.877   4.394 -0.2059  0.3767 -0.4241
 1890SOL    HW116139   1.997   2.966   4.425 -0.9762  0.2425 -0.8578
 1890SOL    HW216140   1.965   2.837   4.330 -0.2295 -0.8397  0.3336
 1891SOL     OW16141   2.210   8.818   2.856 -0.0240  0.4927 -0.0593
 1891SOL    HW116142   2.305   8.833   2.829  0.8839 -0.4996  2.3907
 1891SOL    HW216143   2.162   8.906   2.858  0.4174  0.8292 -2.6756
 1892SOL     OW16144   2.218   4.897   2.980  0.1093  0.2670 -0.2813
 1892SOL    HW116145   2.176   4.826   2.923 -2.0510  0.0757  1.4786
 1892SOL    HW216146   2.307   4.865   3.013  0.6023 -0.3027 -2.1230
 1893SOL     OW16147   9.786   7.247   1.748  0.6393  0.0847 -0.0725
 1893SOL    HW116148   9.716   7.274   1.814 -1.5944 -0.7274 -2.0022
 1893SOL    HW216149   9.862   7.311   1.750  0.3072  0.4375  2.7814
 1894SOL     OW16150   0.871   3.793   2.296 -0.6753 -0.8609  0.1186
 1894SOL    HW116151   0.911   3.739   2.371  0.0130 -0.5181  0.0071
 1894SOL    HW216152   0.800   3.852   2.332 -0.8236 -1.2025  0.3892
 1895SOL     OW16153   1.365   2.127   0.331 -0.2288  0.1369  0.4332
 1895SOL    HW116154   1.461   2.099   0.328  0.2654  1.7187  0.8989
 1895SOL    HW216155   1.341   2.175   0.247 -0.1381  1.1902  0.9984
 1896SOL     OW16156   2.226   1.223   3.623  0.3302  0.0987 -0.5651
 1896SOL    HW116157   2.128   1.213   3.637  0.1285 -0.1212 -2.0725
 1896SOL    HW216158   2.248   1.320   3.613  0.4517  0.2476  0.9446
 1897SOL     OW16159   9.691   6.398   1.505  0.3035 -0.1405 -0.1607
 1897SOL    HW116160   9.694   6.496   1.483 -2.1103  0.2381  0.9986
 1897SOL    HW216161   9.645   6.348   1.432 -1.8376  0.1757  0.9186
 1898SOL     OW16162   2.341   5.194   0.438 -0.3369  0.2765 -0.2903
 1898SOL    HW116163   2.398   5.213   0.519 -0.1906 -1.7409  0.0973
 1898SOL    HW216164   2.245   5.206   0.461 -0.1902  2.0094 -0.4807
 1899SOL     OW16165   2.219   1.293   0.180 -0.2882 -0.2131  0.2050
 1899SOL    HW116166   2.173   1.368   0.132  3.1011  0.0511 -2.8706
 1899SOL    HW216167   2.202   1.208   0.131 -0.4300 -0.7241  1.1304
 1900SOL     OW16168   8.658   7.697   4.544  0.5445 -0.1192 -1.0136
 1900SOL    HW116169   8.579   7.644   4.514 -1.1057  0.5421  1.9613
 1900SOL    HW216170   8.712   7.642   4.609 -0.1237  1.1058  0.6143
 1901SOL     OW16171   0.378   7.170   3.947 -0.6871 -0.1714 -0.0730
 1901SOL    HW116172   0.289   7.130   3.970  0.6325 -2.0740  1.9556
 1901SOL    HW216173   0.388   7.258   3.994 -1.4928  0.0498 -0.3087
 1902SOL     OW16174   3.265   4.994   3.677 -0.0029  0.3665  0.4108
 1902SOL    HW116175   3.232   5.001   3.771 -2.0509  0.8280 -0.3240
 1902SOL    HW216176   3.299   4.901   3.661  2.1029  0.7896  2.1274
 1903SOL     OW16177   0.014   7.325   2.197  0.4019 -0.3964  0.1474
 1903SOL    HW116178   0.110   7.347   2.214  0.6945 -1.2488 -0.3893
 1903SOL    HW216179   0.006   7.231   2.164 -0.6150 -0.3215  0.1465
 1904SOL     OW16180   2.043   4.002   3.336  0.1331  0.2296  0.2696
 1904SOL    HW116181   2.034   3.903   3.343  0.7439 -0.1875 -4.0505
 1904SOL    HW216182   2.140   4.027   3.346  0.2424  0.2002 -0.7364
 1905SOL     OW16183   0.931   3.536   1.826 -0.2826  0.3208 -0.5650
 1905SOL    HW116184   0.853   3.509   1.768  0.2381 -0.8615 -0.7190
 1905SOL    HW216185   0.905   3.529   1.922 -0.1518 -0.7497 -0.6025
 1906SOL     OW16186   1.695   2.926   1.819  0.0625  0.2718  0.7665
 1906SOL    HW116187   1.794   2.925   1.807  0.0873  4.0361  0.1968
 1906SOL    HW216188   1.674   2.948   1.914 -0.2894 -3.9550  1.7661
 1907SOL     OW16189   2.609   3.074   1.305 -0.4128  0.0698 -0.6017
 1907SOL    HW116190   2.645   3.154   1.257  2.1849 -0.5290  0.2870
 1907SOL    HW216191   2.534   3.102   1.365  2.0400  2.2978  1.5455
 1908SOL     OW16192   1.932   4.738   2.515 -0.1427  0.6437  0.1343
 1908SOL    HW116193   1.926   4.791   2.600 -2.7808  1.6797 -0.6652
 1908SOL    HW216194   1.856   4.673   2.511  1.7951 -1.6894  0.0473
 1909SOL     OW16195   7.763   7.793   3.836 -0.3991  0.2799  0.3498
 1909SOL    HW116196   7.841   7.730   3.838 -0.1103  0.2697 -4.5807
 1909SOL    HW216197   7.797   7.887   3.831 -0.6029  0.2414 -2.4979
 1910SOL     OW16198   2.333   6.012   3.854 -0.3477 -0.4724 -0.2172
 1910SOL    HW116199   2.336   5.932   3.914 -1.6178 -1.0510 -0.8985
 1910SOL    HW216200   2.426   6.034   3.824  0.1494 -0.9744  0.9028
 1911SOL     OW16201   0.009   8.042   4.542  0.6567  0.5126  0.0935
 1911SOL    HW116202   0.019   8.048   4.641 -0.6853 -1.0884  0.3335
 1911SOL    HW216203  -0.034   7.955   4.517 -1.6204  2.0820 -1.6980
 1912SOL     OW16204   1.768   8.178   0.265  0.4073  0.0858 -0.3168
 1912SOL    HW116205   1.841   8.198   0.200  0.0186  1.9092 -0.2282
 1912SOL    HW216206   1.796   8.206   0.357  0.4059 -1.1584  0.0675
 1913SOL     OW16207   0.108   6.163   3.979 -0.2712  0.1481 -0.8531
 1913SOL    HW116208   0.075   6.251   4.011 -0.4802 -0.8608  1.8074
 1913SOL    HW216209   0.043   6.124   3.913  0.4172  2.4723 -2.9727
 1914SOL     OW16210   6.532   0.491   3.164  0.1081  0.1632 -0.6316
 1914SOL    HW116211   6.599   0.565   3.174  0.7577 -0.3092 -1.4261
 1914SOL    HW216212   6.481   0.504   3.079 -3.1636  2.3790  1.5687
 1915SOL     OW16213   1.186   0.363   2.033 -0.1310  0.4099 -0.3691
 1915SOL    HW116214   1.242   0.443   2.056 -0.0433 -0.2717  1.8394
 1915SOL    HW216215   1.245   0.285   2.015 -0.2768  0.4245 -0.9140
 1916SOL     OW16216   0.901   9.350   0.374 -0.0829 -0.1155 -0.4217
 1916SOL    HW116217   0.880   9.442   0.338  1.5231  0.2429 -0.4723
 1916SOL    HW216218   0.958   9.301   0.308  0.4404 -0.5374  0.3346
 1917SOL     OW16219   4.702   4.915   1.146  0.1818  0.1671 -0.2544
 1917SOL    HW116220   4.735   4.855   1.219 -0.0316  1.7645  1.1953
 1917SOL    HW216221   4.643   4.986   1.185 -1.2526  0.0968 -2.2052
 1918SOL     OW16222   3.246   8.520   4.513 -0.3386 -0.0103 -0.6047
 1918SOL    HW116223   3.184   8.450   4.478 -1.6646  0.4881  0.6712
 1918SOL    HW216224   3.330   8.477   4.546 -0.5638 -0.8372 -1.0950
 1919SOL     OW16225   3.375   1.280   1.078  0.3684 -0.0834 -0.0071
 1919SOL    HW116226   3.388   1.196   1.130  0.9056  0.1936  0.3031
 1919SOL    HW216227   3.458   1.301   1.026  0.8548  1.1659  1.2418
 1920SOL     OW16228   2.656   1.723   0.821 -0.3586  0.1074 -0.7242
 1920SOL    HW116229   2.646   1.686   0.914  0.7576  1.0155 -0.2245
 1920SOL    HW216230   2.733   1.787   0.819  0.3453 -0.7627 -2.5535
 1921SOL     OW16231   2.819   7.123   2.880  0.1053  0.2887 -0.1373
 1921SOL    HW116232   2.909   7.131   2.837  0.4039 -0.8462  0.2377
 1921SOL    HW216233   2.816   7.038   2.933 -1.8311 -0.6291 -1.6633
 1922SOL     OW16234   9.183   9.979   1.848  0.6005  0.6203 -0.1392
 1922SOL    HW116235   9.085   9.956   1.848  0.6779  0.1972 -1.6918
 1922SOL    HW216236   9.222   9.958   1.937 -0.4691 -0.3641  0.1196
 1923SOL     OW16237   9.890   0.648   2.019 -0.6800 -0.2844 -0.1362
 1923SOL    HW116238   9.808   0.704   2.032 -0.4520  0.1981 -0.7324
 1923SOL    HW216239   9.970   0.698   2.049 -0.4988 -0.3693 -0.4704
 1924SOL     OW16240   0.299   4.210   0.351 -0.1297 -0.1938  0.3346
 1924SOL    HW116241   0.301   4.251   0.260 -0.8059  3.4150  1.8597
 1924SOL    HW216242   0.205   4.196   0.380 -0.0009  1.5544  1.6720
 1925SOL     OW16243   6.516   0.119   1.137  0.0421  0.2600  0.1910
 1925SOL    HW116244   6.577   0.170   1.198  1.7760 -1.3577 -0.1753
 1925SOL    HW216245   6.547   0.128   1.043 -0.3560 -0.4983 -0.0166
 1926SOL     OW16246   9.725   7.678   3.781  0.4272  0.0500  0.0056
 1926SOL    HW116247   9.726   7.708   3.686  0.5803  1.9741  0.5975
 1926SOL    HW216248   9.641   7.627   3.800 -0.0876  0.5764 -0.8810
 1927SOL     OW16249   0.648   3.092   3.271 -0.5864  0.5252  0.3684
 1927SOL    HW116250   0.655   3.046   3.360  0.1029  2.3152  1.2534
 1927SOL    HW216251   0.732   3.078   3.220 -1.2906 -1.1980 -0.3728
 1928SOL     OW16252   2.014   5.953   2.825  0.4707 -0.0538  0.5673
 1928SOL    HW116253   2.059   5.987   2.908  1.0698  1.6116 -0.4189
 1928SOL    HW216254   2.035   6.014   2.748 -1.4441 -0.6355 -0.4510
 1929SOL     OW16255   0.523   7.207   0.081  0.3879 -0.0932 -0.2134
 1929SOL    HW116256   0.466   7.288   0.066  1.4958  0.7261 -0.0128
 1929SOL    HW216257   0.618   7.234   0.093  0.4510 -1.2236  2.1914
 1930SOL     OW16258   9.907   6.588   4.333 -0.3108  0.6855 -0.1345
 1930SOL    HW116259   9.988   6.642   4.314 -0.3968  0.1799 -2.0017
 1930SOL    HW216260   9.852   6.634   4.403  2.0748  0.5094  1.9504
 1931SOL     OW16261   3.371   2.254   0.259  0.6338 -0.8700  0.0083
 1931SOL    HW116262   3.368   2.178   0.324  0.2881 -0.8473  0.0188
 1931SOL    HW216263   3.318   2.331   0.295  0.4713 -0.8439 -0.2847
 1932SOL     OW16264   2.076   3.125   3.577  0.1915  0.1431  0.0559
 1932SOL    HW116265   1.996   3.072   3.549  0.9279 -0.2457 -1.3738
 1932SOL    HW216266   2.097   3.107   3.673  0.2450 -1.9458 -0.3259
 1933SOL     OW16267   2.250   9.162   1.192 -0.4452  0.5840  0.0761
 1933SOL    HW116268   2.286   9.075   1.156 -1.0022  0.4062 -0.0546
 1933SOL    HW216269   2.157   9.176   1.158 -0.9652  0.4381  1.3927
 1934SOL     OW16270   1.596   0.018   1.785  0.1785 -0.1164  0.2615
 1934SOL    HW116271   1.628   0.113   1.789 -2.3541  0.8855 -1.8457
 1934SOL    HW216272   1.571  -0.005   1.691 -1.1085 -2.2419  1.0927
 1935SOL     OW16273   4.744   8.216   1.953  0.1814 -0.1501  0.1671
 1935SOL    HW116274   4.664   8.182   2.002  0.2141  0.4279  0.6298
 1935SOL    HW216275   4.805   8.262   2.017 -0.0157  1.0563 -0.4996
 1936SOL     OW16276   3.208   3.028   0.449  0.4883  0.1470  0.3396
 1936SOL    HW116277   3.231   3.100   0.383  2.4379  0.5616  1.4418
 1936SOL    HW216278   3.254   2.943   0.423  0.3404  0.0112  0.5209
 1937SOL     OW16279   0.068   7.453   3.993 -0.2122  0.4061 -0.0936
 1937SOL    HW116280   0.167   7.441   3.982 -0.1708  2.9453 -3.2450
 1937SOL    HW216281   0.049   7.503   4.077  0.9976 -1.7708  1.5344
 1938SOL     OW16282   3.696   8.640   1.992  0.0062  0.1504  0.4437
 1938SOL    HW116283   3.785   8.602   2.018 -0.9280 -0.9832  2.0379
 1938SOL    HW216284   3.640   8.568   1.952 -1.1275  0.2514  1.8215
 1939SOL     OW16285   1.956   6.393   1.712 -0.1074 -0.2296  0.5155
 1939SOL    HW116286   1.869   6.351   1.687  0.2458 -0.2249 -0.7243
 1939SOL    HW216287   1.986   6.454   1.639  0.6093  0.2953  1.2359
 1940SOL     OW16288   4.826   0.033   2.464 -0.0059  0.6818  0.4703
 1940SOL    HW116289   4.900   0.094   2.492  0.1999  0.1181  1.2039
 1940SOL    HW216290   4.749   0.043   2.526 -0.4188  1.0389 -0.1040
 1941SOL     OW16291   8.871   7.626   1.830 -0.7269 -0.3377  0.2055
 1941SOL    HW116292   8.914   7.708   1.867 -2.8922  1.7556 -1.6827
 1941SOL    HW216293   8.935   7.579   1.769 -0.1378  1.1455 -0.3395
 1942SOL     OW16294   2.765   4.072   3.171 -0.3820 -0.1315 -0.3026
 1942SOL    HW116295   2.856   4.029   3.173 -0.5310 -0.5443 -1.7728
 1942SOL    HW216296   2.775   4.168   3.146 -0.4026 -0.3113 -0.9940
 1943SOL     OW16297   8.152   0.251   1.452  0.5389 -0.4107 -0.1277
 1943SOL    HW116298   8.219   0.275   1.381  0.2974 -1.9018 -0.8728
 1943SOL    HW216299   8.167   0.158   1.483  0.3653  0.0911  1.5045
 1944SOL     OW16300   8.868   6.673   4.445  0.1596 -0.0149  0.4191
 1944SOL    HW116301   8.830   6.663   4.537  1.0030 -0.3480  0.7343
 1944SOL    HW216302   8.956   6.720   4.450 -0.7410  1.8285 -0.4265
 1945SOL     OW16303   1.402   3.396   0.890  0.0815  0.3572 -0.4549
 1945SOL    HW116304   1.326   3.437   0.940  1.1713  0.4595  1.1464
 1945SOL    HW216305   1.461   3.347   0.953  0.7063 -0.7484 -1.8587
 1946SOL     OW16306   1.873   0.317   2.707 -1.3755 -0.0863 -0.0409
 1946SOL    HW116307   1.953   0.317   2.767 -1.3501  1.0573 -0.0564
 1946SOL    HW216308   1.804   0.255   2.744 -1.8755  1.5590  1.9002
 1947SOL     OW16309   6.545   0.093   2.196 -0.3874  1.3789 -0.3351
 1947SOL    HW116310   6.553   0.132   2.288 -0.3623 -0.8211  0.6389
 1947SOL    HW216311   6.614   0.133   2.136  1.8828  0.3462  1.5330
 1948SOL     OW16312   1.220   3.797   0.215 -0.3849 -0.0641  0.1645
 1948SOL    HW116313   1.195   3.715   0.164 -0.8192 -1.4114  2.4367
 1948SOL    HW216314   1.176   3.877   0.175  0.0167 -0.9486 -2.0683
 1949SOL     OW16315   4.541   9.708   3.102 -0.4321 -0.7752  0.0284
 1949SOL    HW116316   4.521   9.628   3.157 -2.4037  0.5735  1.3463
 1949SOL    HW216317   4.514   9.691   3.007 -1.6607 -1.3558  0.4789
 1950SOL     OW16318   6.257   0.201   4.043 -0.3235  0.4060 -0.5043
 1950SOL    HW116319   6.291   0.260   4.116  0.0165  1.8807 -1.7984
 1950SOL    HW216320   6.303   0.112   4.047 -0.9990  0.1388  1.6127
 1951SOL     OW16321   3.758   9.787   2.523 -0.0320 -0.4924  0.3637
 1951SOL    HW116322   3.703   9.858   2.567 -1.0589 -2.3317  2.1320
 1951SOL    HW216323   3.712   9.757   2.439  1.0562  1.7938 -1.0935
 1952SOL     OW16324   3.751   7.075   3.125  0.1209  0.3519 -0.0181
 1952SOL    HW116325   3.708   7.094   3.036  0.2272  2.1580  0.3020
 1952SOL    HW216326   3.792   6.983   3.123 -0.2561  0.1999 -1.6842
 1953SOL     OW16327   4.587   8.019   3.329 -0.1676  0.1039  0.3914
 1953SOL    HW116328   4.584   7.960   3.410 -0.3642 -0.6750 -0.1794
 1953SOL    HW216329   4.560   7.966   3.249  2.1312  0.3194 -0.5367
 1954SOL     OW16330   1.855   5.711   4.019  0.2001  0.8740 -0.1641
 1954SOL    HW116331   1.794   5.653   3.965 -0.9163  2.1284 -0.2782
 1954SOL    HW216332   1.880   5.791   3.965  2.4611  0.0644 -0.3435
 1955SOL     OW16333   0.117   3.578   2.946  0.4102 -0.0462  0.3604
 1955SOL    HW116334   0.172   3.495   2.957  2.0966  0.7863 -1.4814
 1955SOL    HW216335   0.149   3.649   3.008 -0.6880 -0.5695  1.5548
 1956SOL     OW16336   9.389   6.437   2.454 -0.1116 -0.0920 -0.3999
 1956SOL    HW116337   9.426   6.521   2.414 -0.9513  0.1454 -0.7064
 1956SOL    HW216338   9.460   6.389   2.504 -0.0582  1.7861  1.4063
 1957SOL     OW16339   8.192   0.693   4.026 -0.6080 -0.1944  0.2082
 1957SOL    HW116340   8.132   0.616   4.048 -1.6402  1.5701  4.0253
 1957SOL    HW216341   8.137   0.771   3.995  0.3306 -0.5326 -2.4740
 1958SOL     OW16342   7.937   9.853   3.479 -0.0125 -0.1628 -0.0841
 1958SOL    HW116343   7.920   9.784   3.550  1.9757  0.3079  0.8601
 1958SOL    HW216344   7.962   9.807   3.394 -2.5393 -0.7347 -0.5849
 1959SOL     OW16345   8.886   5.918   0.901  0.1801 -0.4572 -0.3937
 1959SOL    HW116346   8.945   5.963   0.833  0.0401  0.4253  0.0588
 1959SOL    HW216347   8.940   5.898   0.983 -0.2784  0.9611  0.2831
 1960SOL     OW16348   1.634   6.598   1.714  0.4487 -0.5767 -0.5701
 1960SOL    HW116349   1.616   6.500   1.704 -2.7188 -0.2815  1.3630
 1960SOL    HW216350   1.686   6.614   1.798  0.6176 -0.5646 -0.6767
 1961SOL     OW16351   9.898   9.487   4.573  0.0633  0.1746 -0.1091
 1961SOL    HW116352   9.859   9.560   4.629 -1.4453  0.2304 -1.1991
 1961SOL    HW216353   9.949   9.526   4.496  0.2713  0.0864 -0.0179
 1962SOL     OW16354   7.591   8.553   1.518  0.0850  0.3657 -0.1671
 1962SOL    HW116355   7.607   8.651   1.527 -1.5421  0.5657  0.6100
 1962SOL    HW216356   7.677   8.504   1.536  0.8787  1.6248 -0.4516
 1963SOL     OW16357   3.001   9.200   3.625 -0.0131  0.0317  0.0762
 1963SOL    HW116358   3.014   9.291   3.662 -2.3953  0.1734  0.6431
 1963SOL    HW216359   3.018   9.201   3.526  1.3221  0.7711  0.3123
 1964SOL     OW16360   3.019   3.108   1.766 -0.2611 -0.2226 -0.2846
 1964SOL    HW116361   3.070   3.192   1.782 -0.6834 -0.4544  2.5538
 1964SOL    HW216362   2.923   3.129   1.750 -0.3852 -0.1578  0.5249
 1965SOL     OW16363   8.540   7.209   0.448  0.2018 -0.0272  0.0683
 1965SOL    HW116364   8.479   7.271   0.398 -0.9511 -0.1757  1.2536
 1965SOL    HW216365   8.624   7.257   0.471 -0.6034  1.0716  0.8066
 1966SOL     OW16366   1.557   2.093   4.187 -0.5864 -0.8071 -0.0209
 1966SOL    HW116367   1.530   2.185   4.158 -0.3628 -1.1818 -1.4649
 1966SOL    HW216368   1.494   2.060   4.258 -1.0832  0.1839  0.0024
 1967SOL     OW16369   8.806   6.453   2.645  0.3064 -0.6159  0.9263
 1967SOL    HW116370   8.797   6.547   2.680  0.1447 -0.1703 -0.2803
 1967SOL    HW216371   8.889   6.446   2.589 -1.0360 -0.4758 -1.1481
 1968SOL     OW16372   3.717   7.460   3.709  0.4335 -0.3188  0.4634
 1968SOL    HW116373   3.783   7.441   3.636 -2.0863  0.7577 -2.2193
 1968SOL    HW216374   3.669   7.545   3.688 -0.9349 -0.4270  2.9987
 1969SOL     OW16375   2.772   3.854   0.566 -0.2637 -0.4740 -0.8529
 1969SOL    HW116376   2.830   3.776   0.541 -0.6948 -0.0885 -3.1676
 1969SOL    HW216377   2.677   3.823   0.575 -0.4373 -0.2268 -1.7848
 1970SOL     OW16378   0.304   6.013   1.042  0.0626  0.6210  0.1145
 1970SOL    HW116379   0.303   5.971   1.132  1.2399 -0.7425 -0.4946
 1970SOL    HW216380   0.352   6.101   1.047  1.2019 -0.0214  0.5672
 1971SOL     OW16381   5.754   8.164   2.158 -0.1399 -0.5378  0.2040
 1971SOL    HW116382   5.851   8.188   2.151 -0.1219 -0.2704  1.3627
 1971SOL    HW216383   5.723   8.176   2.252 -2.4307  3.6035 -0.9426
 1972SOL     OW16384   8.881   7.801   4.409 -0.1087 -0.3960 -0.8704
 1972SOL    HW116385   8.788   7.804   4.443  0.3790  1.7679  0.3617
 1972SOL    HW216386   8.941   7.762   4.479  0.2687  0.3428 -0.7832
 1973SOL     OW16387   2.050   1.383   3.371 -0.0638 -0.3417 -0.4466
 1973SOL    HW116388   2.142   1.382   3.410 -0.1010  0.5755 -0.3218
 1973SOL    HW216389   2.000   1.303   3.403  0.7130 -0.8768 -0.5672
 1974SOL     OW16390   4.079   1.581   3.591 -0.6642 -0.0760  0.0753
 1974SOL    HW116391   4.095   1.675   3.560 -1.6326  0.2310  0.5222
 1974SOL    HW216392   4.002   1.579   3.653  1.3197 -0.6786  2.6022
 1975SOL     OW16393   8.544   9.855   2.742  0.1997  0.5122  0.1073
 1975SOL    HW116394   8.475   9.846   2.670  0.4273 -0.2312 -0.0257
 1975SOL    HW216395   8.624   9.903   2.705  0.7126 -0.7273 -0.4276
 1976SOL     OW16396   4.389   9.846   3.478 -0.4902  0.8468 -0.1666
 1976SOL    HW116397   4.483   9.825   3.452 -0.7859  0.4776 -0.9588
 1976SOL    HW216398   4.340   9.882   3.398 -1.2689  0.1711  0.0015
 1977SOL     OW16399   1.971   6.174   0.453 -0.0887  0.3511  0.3930
 1977SOL    HW116400   2.052   6.174   0.394 -0.1846  1.0137  0.2631
 1977SOL    HW216401   1.996   6.209   0.543 -0.0500 -0.2196  0.6105
 1978SOL     OW16402   2.604   5.140   2.004  0.1766  0.1967  0.4107
 1978SOL    HW116403   2.669   5.168   1.933  1.5304 -0.0845  1.5286
 1978SOL    HW216404   2.560   5.221   2.043  0.0490  0.4031 -0.1596
 1979SOL     OW16405   2.153   6.807   4.187  0.0566 -0.4580  0.3446
 1979SOL    HW116406   2.251   6.784   4.183  0.6617  2.1561 -1.7012
 1979SOL    HW216407   2.121   6.799   4.281  2.3363 -1.0058  1.1233
 1980SOL     OW16408   6.648   7.872   2.492 -0.4221  0.2663 -0.7078
 1980SOL    HW116409   6.704   7.919   2.561 -0.3581  0.2999 -0.7829
 1980SOL    HW216410   6.690   7.883   2.402  0.0254 -0.6154 -0.6086
 1981SOL     OW16411   2.457   1.507   3.016 -0.0335 -0.7337 -0.1241
 1981SOL    HW116412   2.417   1.446   3.086 -1.1722 -0.6058 -0.6467
 1981SOL    HW216413   2.402   1.590   3.010  0.1002 -0.7211 -1.1358
 1982SOL     OW16414   8.282   6.552   0.576 -0.3058 -0.1732  0.1883
 1982SOL    HW116415   8.232   6.634   0.548  0.9170  0.4661 -0.1359
 1982SOL    HW216416   8.225   6.499   0.639 -1.0216  1.0401  0.5885
 1983SOL     OW16417   4.544   1.181   1.820  0.2164  0.2155 -0.0719
 1983SOL    HW116418   4.583   1.245   1.753 -3.6973 -1.2305 -3.9786
 1983SOL    HW216419   4.586   1.091   1.807  0.1271  0.1515  0.0922
 1984SOL     OW16420   1.767   7.504   2.878  0.6065 -0.3645  0.9721
 1984SOL    HW116421   1.776   7.596   2.917 -0.1718 -0.3937  1.2280
 1984SOL    HW216422   1.707   7.449   2.936 -0.7251 -0.3548 -0.3735
 1985SOL     OW16423   3.305   9.974   2.377 -0.5157  0.1686 -0.1014
 1985SOL    HW116424   3.354  10.058   2.352  0.4444 -0.2307  0.4084
 1985SOL    HW216425   3.221   9.967   2.324  0.2390  0.6050 -1.3649
 1986SOL     OW16426   7.866   7.801   0.640  0.6364 -0.6546  0.1158
 1986SOL    HW116427   7.863   7.778   0.543  0.7111 -0.3739  0.0442
 1986SOL    HW216428   7.821   7.730   0.693  1.5204 -1.3358 -0.0296
 1987SOL     OW16429   1.526   5.917   1.082  0.1710 -0.3467  0.0724
 1987SOL    HW116430   1.599   5.985   1.075  0.8917 -1.3144 -2.0152
 1987SOL    HW216431   1.490   5.917   1.176  2.9552  0.0154  1.1750
 1988SOL     OW16432   0.411   2.506   2.760 -0.2253  0.1307  0.3372
 1988SOL    HW116433   0.414   2.606   2.762 -0.5977  0.2085 -1.8010
 1988SOL    HW216434   0.377   2.472   2.848  1.7309  1.7743  1.7871
 1989SOL     OW16435   8.551   8.569   4.438  0.0982  0.3800  0.0837
 1989SOL    HW116436   8.489   8.646   4.453 -0.5524 -0.2967  0.9616
 1989SOL    HW216437   8.512   8.487   4.480 -0.6594 -1.1128 -3.3660
 1990SOL     OW16438   4.137   8.090   2.222  0.1422  0.1475  0.4985
 1990SOL    HW116439   4.222   8.040   2.212  0.6879  0.9361  1.1161
 1990SOL    HW216440   4.150   8.184   2.191 -1.4086 -0.5802 -2.5534
 1991SOL     OW16441   3.466   1.348   3.237 -0.3979  0.1666  0.2768
 1991SOL    HW116442   3.554   1.395   3.239 -1.0450  1.4826 -1.2135
 1991SOL    HW216443   3.480   1.251   3.256  1.5536  0.0924 -1.3241
 1992SOL     OW16444   1.596   9.307   2.879  0.4919  0.5068  0.2411
 1992SOL    HW116445   1.635   9.397   2.893 -0.0495  0.8694 -0.5295
 1992SOL    HW216446   1.633   9.267   2.795 -0.1468  0.5086 -0.0482
 1993SOL     OW16447   3.385   0.356   4.416  0.1381 -0.0258 -0.0517
 1993SOL    HW116448   3.423   0.329   4.327  1.4925  0.5135  0.3421
 1993SOL    HW216449   3.401   0.282   4.482  0.3108  0.1177  0.0659
 1994SOL     OW16450   0.804   2.082   4.611  0.3147 -0.2929 -0.7773
 1994SOL    HW116451   0.896   2.060   4.641  0.1585 -2.9725 -2.1448
 1994SOL    HW216452   0.802   2.095   4.512 -1.0588 -1.9057 -0.9837
 1995SOL     OW16453   3.503   7.470   1.369 -0.4623 -0.7079  0.8478
 1995SOL    HW116454   3.562   7.415   1.429  0.8574  1.0452  1.1962
 1995SOL    HW216455   3.558   7.508   1.294 -1.4169 -0.0668  0.4619
 1996SOL     OW16456   7.102   0.565   1.810  0.4662 -0.1846 -0.2074
 1996SOL    HW116457   7.157   0.541   1.889 -1.0031  0.0533  0.9094
 1996SOL    HW216458   7.028   0.626   1.838  0.2060  0.2716 -1.8449
 1997SOL     OW16459   0.769   8.385   2.249  0.2330  0.3570 -0.0086
 1997SOL    HW116460   0.716   8.393   2.333  2.1862  0.9806  1.1882
 1997SOL    HW216461   0.854   8.335   2.267 -0.6721 -2.1365 -2.2565
 1998SOL     OW16462   9.112   5.847   4.266 -0.0177 -0.4990  0.0632
 1998SOL    HW116463   9.159   5.880   4.184 -0.0263 -0.9486 -0.1228
 1998SOL    HW216464   9.056   5.921   4.304  2.2509  0.6200  1.3441
 1999SOL     OW16465   0.280   0.607   1.801 -0.0644 -0.1528 -0.2588
 1999SOL    HW116466   0.358   0.556   1.764  0.2137  1.0937 -1.4569
 1999SOL    HW216467   0.308   0.701   1.819 -1.2472  0.2571 -0.5343
 2000SOL     OW16468   9.139   5.456   0.979  0.4202  0.2165 -0.4146
 2000SOL    HW116469   9.167   5.414   1.064 -0.3074  0.6907  0.0657
 2000SOL    HW216470   9.043   5.484   0.985  0.5074  0.7205 -1.1966
 2001SOL     OW16471   7.217   9.681   1.213  0.0472  0.6263 -0.4098
 2001SOL    HW116472   7.144   9.711   1.150 -0.6610 -0.4526 -0.1192
 2001SOL    HW216473   7.176   9.643   1.296  0.9341 -0.8225 -0.6248
 2002SOL     OW16474   2.905   7.378   4.000 -0.1597 -0.1637 -0.5527
 2002SOL    HW116475   2.889   7.335   4.089 -0.4761  0.4650 -0.3037
 2002SOL    HW216476   2.821   7.373   3.946 -0.0479 -0.3003 -0.7133
 2003SOL     OW16477   2.501   4.094   0.736  0.0706  0.4629 -0.3193
 2003SOL    HW116478   2.481   4.147   0.654  0.0608 -0.9949 -1.2824
 2003SOL    HW216479   2.418   4.050   0.769 -0.0636  1.5919  0.8837
 2004SOL     OW16480   6.432   9.900   1.264  0.1898  0.2084  0.4027
 2004SOL    HW116481   6.476   9.968   1.207 -1.5769  0.3241 -0.8690
 2004SOL    HW216482   6.337   9.927   1.281  0.3149 -0.4828  2.3136
 2005SOL     OW16483   3.994   1.078   0.964  0.2557  0.5260 -0.3881
 2005SOL    HW116484   3.967   1.002   1.023  0.7368  1.5840  1.2453
 2005SOL    HW216485   4.092   1.071   0.942  0.2258  0.4817 -0.5033
 2006SOL     OW16486   4.829   0.183   2.154 -0.0201  0.6883 -0.2464
 2006SOL    HW116487   4.782   0.179   2.242  1.9413 -2.5077  0.7597
 2006SOL    HW216488   4.924   0.210   2.167 -0.0719  1.5413 -1.5535
 2007SOL     OW16489   2.956   9.266   4.049  0.2944  0.1548  0.4218
 2007SOL    HW116490   2.899   9.215   4.113  2.2045 -1.3229  1.0005
 2007SOL    HW216491   3.006   9.337   4.098  0.2783  0.2903  0.2432
 2008SOL     OW16492   1.813   7.011   2.893 -0.3378  0.1752 -0.1653
 2008SOL    HW116493   1.761   7.040   2.813 -2.0065  0.7921  1.1192
 2008SOL    HW216494   1.838   7.091   2.948 -0.0501 -0.3233  0.4375
 2009SOL     OW16495   4.884   1.219   3.970 -0.0791 -0.7446  0.0123
 2009SOL    HW116496   4.790   1.198   3.998 -0.1850 -0.0903  0.1550
 2009SOL    HW216497   4.930   1.135   3.943 -1.5237 -0.7672 -2.5412
 2010SOL     OW16498   3.609   6.218   1.777 -0.6037 -0.2183 -0.1506
 2010SOL    HW116499   3.550   6.215   1.696  0.3778 -2.3877 -0.8098
 2010SOL    HW216500   3.642   6.126   1.798  1.6177  0.7647  0.8747
 2011SOL     OW16501   4.166   7.503   0.652 -0.4001  0.6093  0.0869
 2011SOL    HW116502   4.119   7.463   0.731 -1.3296 -0.8597 -1.1825
 2011SOL    HW216503   4.107   7.499   0.572  1.6681 -0.8586 -1.4380
 2012SOL     OW16504   0.120   6.283   3.729 -0.7488 -0.8844 -0.0977
 2012SOL    HW116505   0.052   6.211   3.739 -3.6758  2.0012  1.9430
 2012SOL    HW216506   0.152   6.311   3.820  1.8351 -0.9354 -0.9517
 2013SOL     OW16507   7.495   9.233   0.223 -0.1127  0.0683  0.2937
 2013SOL    HW116508   7.588   9.247   0.258 -0.7306  1.4663  1.4250
 2013SOL    HW216509   7.487   9.275   0.133  0.5216 -0.5936 -0.0790
 2014SOL     OW16510   1.252   6.857   4.752 -0.0400  0.0797  0.6150
 2014SOL    HW116511   1.332   6.831   4.699  0.9925  0.7293  1.8239
 2014SOL    HW216512   1.265   6.949   4.790 -0.7668 -0.3437  1.9438
 2015SOL     OW16513   7.650   7.099   4.009  0.0904  0.7443 -0.4508
 2015SOL    HW116514   7.575   7.116   3.945 -1.5764 -3.4580  0.2216
 2015SOL    HW216515   7.718   7.040   3.966  0.6335  0.6357  0.5295
 2016SOL     OW16516   3.811   9.534   3.588 -0.9371  0.4481  0.2718
 2016SOL    HW116517   3.803   9.606   3.519 -0.9311  1.2517  1.0966
 2016SOL    HW216518   3.811   9.575   3.679 -1.1892 -0.6207  0.7634
 2017SOL     OW16519   9.240   5.481   0.007 -0.3395 -0.1056  0.1533
 2017SOL    HW116520   9.164   5.420   0.031  0.5210 -0.5711  1.7983
 2017SOL    HW216521   9.317   5.463   0.068 -0.0517  2.5688  0.6240
 2018SOL     OW16522   9.591   1.112   2.223  0.0265  0.6196 -0.2170
 2018SOL    HW116523   9.537   1.039   2.264 -0.8228  1.1383 -0.4022
 2018SOL    HW216524   9.650   1.074   2.151  1.0148 -0.1779  0.9951
 2019SOL     OW16525   4.745   9.109   4.208 -0.3171  0.6951 -0.1651
 2019SOL    HW116526   4.664   9.168   4.209 -0.8834 -0.0519  1.1644
 2019SOL    HW216527   4.820   9.155   4.162 -1.5227  1.3849 -1.4674
 2020SOL     OW16528   0.918   1.498   0.704  0.6050  0.6723  0.4241
 2020SOL    HW116529   1.001   1.445   0.684 -0.3036 -1.0368  1.1331
 2020SOL    HW216530   0.878   1.531   0.618  0.1546 -1.3765 -0.1808
 2021SOL     OW16531   8.747   7.987   0.106  0.2376  0.5421  0.2803
 2021SOL    HW116532   8.789   8.077   0.102 -0.5063  0.8665 -0.3973
 2021SOL    HW216533   8.706   7.965   0.018  1.8223 -1.1593 -0.0642
 2022SOL     OW16534   4.841   8.871   2.282 -0.0573  0.0245 -0.8163
 2022SOL    HW116535   4.788   8.950   2.311 -0.0312 -0.3585  0.2764
 2022SOL    HW216536   4.937   8.883   2.310  0.3702  0.5405 -2.4420
 2023SOL     OW16537   1.770   6.388   2.216 -0.3486 -0.0808  0.4278
 2023SOL    HW116538   1.750   6.331   2.137  1.5876 -1.4138  0.8684
 2023SOL    HW216539   1.866   6.417   2.213 -0.1702 -0.3795  2.3971
 2024SOL     OW16540   8.790   9.971   0.081  0.0782 -0.0081  0.3709
 2024SOL    HW116541   8.847   9.893   0.108  1.0389 -0.0291 -1.6416
 2024SOL    HW216542   8.704   9.969   0.132  0.7018 -1.5617  1.3929
 2025SOL     OW16543   3.663   3.301   1.253  0.2853 -0.7968  0.4058
 2025SOL    HW116544   3.644   3.365   1.328  2.5995 -0.4885  0.7719
 2025SOL    HW216545   3.717   3.224   1.287  0.0586 -1.4261 -0.6344
 2026SOL     OW16546   0.521   4.681   1.993 -0.5811 -0.1465  0.1645
 2026SOL    HW116547   0.562   4.600   1.952  0.4922  2.1863 -3.6956
 2026SOL    HW216548   0.586   4.724   2.055 -0.9576 -1.8842  1.8010
 2027SOL     OW16549   2.510   4.037   4.736  0.2852 -0.2794  0.3348
 2027SOL    HW116550   2.589   4.080   4.780  1.6352 -1.7630 -0.5984
 2027SOL    HW216551   2.475   3.964   4.795 -0.7480  0.7042  0.9821
 2028SOL     OW16552   9.198   9.363   0.307  0.0734 -0.1746  0.6947
 2028SOL    HW116553   9.139   9.300   0.256 -0.3392 -0.2873  1.3025
 2028SOL    HW216554   9.275   9.312   0.346  1.6689  0.2952 -1.7120
 2029SOL     OW16555   2.643   9.829   2.698  0.5098 -0.0776  0.0937
 2029SOL    HW116556   2.640   9.898   2.769  0.7728 -0.9769  0.9861
 2029SOL    HW216557   2.707   9.857   2.626  2.2797 -0.4129  1.5182
 2030SOL     OW16558   1.306   8.447   2.643  0.0124  0.2934 -0.0268
 2030SOL    HW116559   1.291   8.373   2.577 -2.9947  0.6461  0.2027
 2030SOL    HW216560   1.371   8.416   2.713 -0.2027 -1.6734 -0.6550
 2031SOL     OW16561   2.689   1.604   3.356 -0.8918 -0.3225 -0.4999
 2031SOL    HW116562   2.630   1.620   3.435  0.2350  0.5698  0.1845
 2031SOL    HW216563   2.720   1.508   3.358 -0.8719 -0.3102  0.1459
 2032SOL     OW16564   1.691   0.421   4.169  0.4305 -0.2171  0.2974
 2032SOL    HW116565   1.737   0.402   4.255  0.7464  0.9137  0.3803
 2032SOL    HW216566   1.606   0.369   4.164 -0.1572  0.5935  1.7855
 2033SOL     OW16567   2.730   0.266   2.640  0.2948 -0.5642 -0.0819
 2033SOL    HW116568   2.711   0.171   2.667 -0.9902 -0.7075 -1.3736
 2033SOL    HW216569   2.804   0.267   2.572  1.2099 -0.5190  0.9166
 2034SOL     OW16570   0.901   1.875   3.011  0.5803  0.0755 -0.3768
 2034SOL    HW116571   0.844   1.922   3.078  0.6873 -1.1338  0.5851
 2034SOL    HW216572   0.993   1.915   3.011  0.7634 -0.3301  0.6714
 2035SOL     OW16573   2.546   2.829   3.954  0.6330  0.4178  0.0262
 2035SOL    HW116574   2.594   2.891   4.015  1.6778  1.7328 -2.0752
 2035SOL    HW216575   2.448   2.829   3.977  1.1588  0.0178  2.3751
 2036SOL     OW16576   2.743   7.362   3.755 -0.7485  0.0215  0.1288
 2036SOL    HW116577   2.834   7.328   3.731 -0.5579  1.0476 -0.6610
 2036SOL    HW216578   2.675   7.289   3.742 -0.0269 -0.7755  0.8212
 2037SOL     OW16579   3.670   7.272   0.460  0.3217  0.1209  0.3365
 2037SOL    HW116580   3.703   7.366   0.469 -1.4172  0.7321  0.5228
 2037SOL    HW216581   3.748   7.210   0.451  1.4537  1.7406 -1.3491
 2038SOL     OW16582   2.429   2.523   0.100 -0.3875  0.4603  0.2043
 2038SOL    HW116583   2.349   2.490   0.049 -0.2841 -0.1455  0.4321
 2038SOL    HW216584   2.401   2.596   0.162 -0.7886  0.1835  0.3528
 2039SOL     OW16585   1.154   4.042   1.838  0.1464 -0.0555  0.2611
 2039SOL    HW116586   1.081   3.977   1.817 -1.6010  1.8829  0.1358
 2039SOL    HW216587   1.163   4.107   1.762  4.7270 -2.5658 -1.5812
 2040SOL     OW16588   5.550   7.425   2.088 -0.3578 -0.2825 -0.3013
 2040SOL    HW116589   5.538   7.488   2.012  1.6190  0.8195  0.2570
 2040SOL    HW216590   5.625   7.362   2.068  1.1163  0.9133  1.2739
 2041SOL     OW16591   1.966   6.388   3.486 -0.5160 -0.0722  0.0483
 2041SOL    HW116592   1.938   6.390   3.390  2.7251  0.6764 -0.9352
 2041SOL    HW216593   2.024   6.309   3.502  0.7423  1.0080  0.8722
 2042SOL     OW16594   7.771   6.975   2.752  0.2076  0.2999 -0.6560
 2042SOL    HW116595   7.780   7.031   2.834 -0.0230  0.4436 -0.7268
 2042SOL    HW216596   7.858   6.971   2.704  0.5207 -0.3724 -0.0253
 2043SOL     OW16597   1.620   3.047   2.540  0.5873  0.1979  0.4627
 2043SOL    HW116598   1.542   3.040   2.478  0.4078  3.0483  0.2591
 2043SOL    HW216599   1.592   3.021   2.632  0.0248 -1.0291 -0.0431
 2044SOL     OW16600   2.892   1.139   2.570 -0.2585  0.2395  0.0190
 2044SOL    HW116601   2.860   1.204   2.639  0.7282  1.8725 -1.0246
 2044SOL    HW216602   2.952   1.186   2.505  1.2361 -1.9238 -0.2295
 2045SOL     OW16603   5.849   9.346   2.159  0.1867 -0.0832 -0.1555
 2045SOL    HW116604   5.755   9.370   2.183  0.0903  0.3943 -0.9648
 2045SOL    HW216605   5.850   9.257   2.115  0.1455 -0.2069  0.0951
 2046SOL     OW16606   7.631   9.695   4.662  0.1356  0.6041  0.0122
 2046SOL    HW116607   7.618   9.614   4.719 -0.1681  0.2929 -0.4950
 2046SOL    HW216608   7.600   9.676   4.569  0.6641  1.0984 -0.2686
 2047SOL     OW16609   1.267   0.683   2.584 -0.0026  0.1438 -0.2137
 2047SOL    HW116610   1.190   0.671   2.647  0.4686 -2.0121  0.0067
 2047SOL    HW216611   1.324   0.759   2.614 -0.9103  0.4393  0.7843
 2048SOL     OW16612   8.359   0.256   4.651  0.5330 -0.2759  0.0132
 2048SOL    HW116613   8.374   0.240   4.553  0.0432  2.4944 -0.5637
 2048SOL    HW216614   8.277   0.207   4.681 -0.3431  0.2784 -1.4038
 2049SOL     OW16615   4.205   3.072   0.906 -0.6462  0.1409  0.9500
 2049SOL    HW116616   4.132   3.038   0.847 -0.1049 -0.0665  0.3862
 2049SOL    HW216617   4.227   3.166   0.881 -0.8136  0.2470  1.2061
 2050SOL     OW16618   7.321   9.043   3.442  0.3976  0.6792  0.1778
 2050SOL    HW116619   7.353   9.037   3.537 -0.0025  0.4988  0.3016
 2050SOL    HW216620   7.221   9.037   3.440  0.4277  0.3099 -0.2887
 2051SOL     OW16621   2.476   0.716   4.643 -0.2191  0.5348 -0.1096
 2051SOL    HW116622   2.408   0.646   4.618  1.4698 -1.0040 -0.5215
 2051SOL    HW216623   2.507   0.764   4.561  1.2163 -0.6846 -0.3042
 2052SOL     OW16624   4.024   8.638   3.699  0.0824  0.6261  0.4134
 2052SOL    HW116625   3.975   8.669   3.780 -0.2614  2.3852 -0.4322
 2052SOL    HW216626   3.983   8.678   3.617  1.7079  0.5742 -0.4693
 2053SOL     OW16627   2.571   4.113   0.240  0.1433  0.8226 -0.0561
 2053SOL    HW116628   2.521   4.131   0.326 -2.2534  1.3505 -1.5063
 2053SOL    HW216629   2.628   4.191   0.218 -1.2873  1.8187 -0.2977
 2054SOL     OW16630   4.347   1.926   1.472  1.0810  0.3831  0.3675
 2054SOL    HW116631   4.382   2.010   1.512 -3.0690  2.6066 -0.3831
 2054SOL    HW216632   4.357   1.851   1.538  0.3084  2.5571  3.0591
 2055SOL     OW16633   2.275   8.899   1.135  0.6494 -0.1582  0.5191
 2055SOL    HW116634   2.239   8.868   1.047  2.0795  0.3172 -0.2525
 2055SOL    HW216635   2.252   8.833   1.206  0.1998 -0.9615 -0.3693
 2056SOL     OW16636   4.180   3.411   1.175  0.3894  0.0973  0.4410
 2056SOL    HW116637   4.126   3.494   1.190  1.5253  1.2129 -1.5027
 2056SOL    HW216638   4.278   3.435   1.173  0.7260 -1.3000 -0.0970
 2057SOL     OW16639   1.861   6.390   4.321 -0.1181 -0.2721 -0.2330
 2057SOL    HW116640   1.895   6.387   4.227 -2.0629  2.6582 -1.0824
 2057SOL    HW216641   1.926   6.440   4.378 -0.7245  1.2413 -0.8500
 2058SOL     OW16642   4.112   9.828   0.498 -0.6318  0.2277  0.1967
 2058SOL    HW116643   4.106   9.744   0.445 -0.5357  1.7203 -2.2769
 2058SOL    HW216644   4.084   9.905   0.441 -1.7016  1.7685  2.7215
 2059SOL     OW16645   2.374   9.740   0.223 -0.1065  0.2641 -0.6929
 2059SOL    HW116646   2.385   9.794   0.140 -2.1855  0.1661 -1.0443
 2059SOL    HW216647   2.318   9.659   0.203 -2.6102  1.4526  1.3036
 2060SOL     OW16648   3.089   6.359   3.437  0.1176  0.6033 -0.0430
 2060SOL    HW116649   3.124   6.271   3.471 -0.2159  0.2106 -0.6973
 2060SOL    HW216650   3.165   6.423   3.428  0.3435  0.4231  0.5777
 2061SOL     OW16651   9.842   6.605   2.184  0.1240  0.2428  0.0777
 2061SOL    HW116652   9.898   6.542   2.131 -0.8524  0.3477 -1.0896
 2061SOL    HW216653   9.899   6.681   2.216  1.3430 -1.3088  1.6581
 2062SOL     OW16654   2.329   0.046   2.245 -0.2627  0.2318 -0.1453
 2062SOL    HW116655   2.324   0.089   2.335  0.7401  1.8740 -0.8381
 2062SOL    HW216656   2.303  -0.050   2.252 -1.1471  0.5887  1.7120
 2063SOL     OW16657   1.051   1.902   0.477 -0.5504 -0.4934  0.7861
 2063SOL    HW116658   0.995   1.881   0.396 -0.1425 -2.4780  1.0152
 2063SOL    HW216659   1.041   1.830   0.545  0.4517  0.3207  1.8251
 2064SOL     OW16660   2.468   7.630   0.306 -0.3958  0.3914  0.6969
 2064SOL    HW116661   2.561   7.642   0.340  0.2797 -0.6648 -0.7616
 2064SOL    HW216662   2.416   7.574   0.371  0.2593  0.1638  1.0358
 2065SOL     OW16663   3.156   6.843   1.350  0.1113  0.4202 -0.0424
 2065SOL    HW116664   3.188   6.872   1.441 -1.2132 -0.7858  0.8217
 2065SOL    HW216665   3.234   6.836   1.288  1.2093 -0.1467  1.3834
 2066SOL     OW16666   1.035   3.449   3.669  0.0528  0.8520 -0.0673
 2066SOL    HW116667   1.111   3.503   3.634  0.1063  0.0471 -1.2198
 2066SOL    HW216668   0.949   3.481   3.628 -0.1131  1.0770  0.4419
 2067SOL     OW16669   1.707   0.516   1.439 -0.1160 -0.2584 -0.1102
 2067SOL    HW116670   1.658   0.447   1.385  2.7420 -1.6763 -1.0101
 2067SOL    HW216671   1.730   0.594   1.380  1.4090 -0.9903 -0.4972
 2068SOL     OW16672   0.478   8.263   0.482  0.0660  0.1197  0.0369
 2068SOL    HW116673   0.448   8.323   0.556  1.4607  0.5031  0.3046
 2068SOL    HW216674   0.473   8.311   0.395 -1.0476 -0.1547 -0.0677
 2069SOL     OW16675   4.492   8.866   1.966  0.1718 -0.0047  0.2431
 2069SOL    HW116676   4.456   8.955   1.940  2.5067  2.0506  3.5339
 2069SOL    HW216677   4.583   8.854   1.926 -0.6833 -1.5585 -1.3020
 2070SOL     OW16678   4.051   2.280   1.393  0.1987  0.4521 -0.3139
 2070SOL    HW116679   3.968   2.335   1.405  0.1491  0.4551 -0.6598
 2070SOL    HW216680   4.118   2.333   1.341  0.8062  0.8370  0.8500
 2071SOL     OW16681   2.652   6.666   3.720 -0.7803 -0.0010 -0.4284
 2071SOL    HW116682   2.582   6.698   3.655 -1.5115  1.3000  0.9747
 2071SOL    HW216683   2.704   6.744   3.753  1.7681 -1.0243 -1.8915
 2072SOL     OW16684   2.797   9.995   1.002 -0.0418  0.2154 -0.0185
 2072SOL    HW116685   2.714  10.030   0.958 -0.2170  1.5883  1.3387
 2072SOL    HW216686   2.800   9.895   0.993 -3.1157 -0.1442  2.0029
 2073SOL     OW16687   2.446   6.293   0.617 -0.4609 -0.3930 -0.2078
 2073SOL    HW116688   2.418   6.216   0.674 -0.9873 -0.5991 -0.7440
 2073SOL    HW216689   2.366   6.346   0.590 -0.2545 -0.5072 -1.0575
 2074SOL     OW16690   3.150   0.025   1.512 -0.1139  0.2031  0.1306
 2074SOL    HW116691   3.207   0.036   1.430 -0.2384 -2.0610 -0.2907
 2074SOL    HW216692   3.131  -0.072   1.527 -1.3596  0.7003  1.9990
 2075SOL     OW16693   3.312   1.628   4.002  0.1373 -0.0775  0.0401
 2075SOL    HW116694   3.246   1.699   4.026  0.4619 -0.2766  1.5482
 2075SOL    HW216695   3.351   1.589   4.085  3.7312  1.5019 -0.8318
 2076SOL     OW16696   9.421   0.389   0.444  0.0009  0.3381 -0.5633
 2076SOL    HW116697   9.475   0.442   0.378  0.9516  0.9750  0.7020
 2076SOL    HW216698   9.482   0.352   0.515 -0.6192 -2.5677 -1.4717
 2077SOL     OW16699   2.644   0.883   2.003 -0.2833 -0.0327  0.0735
 2077SOL    HW116700   2.655   0.982   2.006 -0.2688 -0.0128 -0.5771
 2077SOL    HW216701   2.713   0.840   2.061  0.0997  0.3074 -0.1291
 2078SOL     OW16702   4.705   3.452   0.649 -0.6419  0.0770 -0.3570
 2078SOL    HW116703   4.664   3.397   0.721 -0.1438  0.7521  0.4520
 2078SOL    HW216704   4.669   3.423   0.560 -1.1329 -0.8689  0.1408
 2079SOL     OW16705   8.998   0.793   0.966  0.3101  0.0048  0.1023
 2079SOL    HW116706   8.988   0.777   0.868  0.6899  0.6610 -0.0464
 2079SOL    HW216707   8.908   0.798   1.009  0.0942  1.3391 -0.4811
 2080SOL     OW16708   0.565   4.271   0.488  0.9530  0.1062  0.2270
 2080SOL    HW116709   0.491   4.294   0.425  0.6752 -0.9525  0.1568
 2080SOL    HW216710   0.653   4.285   0.442  0.7708  0.1345 -0.1184
 2081SOL     OW16711   0.961   7.390   2.641 -0.1784  0.1878 -0.0681
 2081SOL    HW116712   0.948   7.407   2.738  1.5071  1.0217  0.0330
 2081SOL    HW216713   0.923   7.467   2.588  2.7295  1.8335  0.1510
 2082SOL     OW16714   0.884   7.195   2.039  0.1586 -0.1359 -0.0559
 2082SOL    HW116715   0.790   7.221   2.061 -0.3614 -2.0553  0.0227
 2082SOL    HW216716   0.884   7.136   1.958  1.4705  1.3345 -1.1752
 2083SOL     OW16717   1.011   4.654   1.666 -0.0532 -0.1313 -0.0899
 2083SOL    HW116718   1.053   4.631   1.754  0.1291 -0.2569 -0.2100
 2083SOL    HW216719   0.915   4.677   1.680 -0.2038 -0.8340  0.0530
 2084SOL     OW16720   0.728   3.027   3.520 -0.3679 -0.0384 -0.2414
 2084SOL    HW116721   0.747   2.935   3.554 -0.3595 -0.2323 -0.7666
 2084SOL    HW216722   0.663   3.073   3.581 -0.5572 -0.4799 -0.1158
 2085SOL     OW16723   8.758   0.497   2.153 -0.2606 -0.7840 -0.0145
 2085SOL    HW116724   8.765   0.420   2.089  1.0007 -0.8533  0.1884
 2085SOL    HW216725   8.742   0.462   2.245  0.4355 -0.8092  0.0966
 2086SOL     OW16726   0.817   0.763   2.478  0.5951  0.0373  0.3133
 2086SOL    HW116727   0.730   0.723   2.504  0.4759  0.9955  1.4030
 2086SOL    HW216728   0.839   0.736   2.384 -2.4750  2.5209 -1.2052
 2087SOL     OW16729   7.384   8.180   1.932  0.0968  0.2080 -0.6048
 2087SOL    HW116730   7.456   8.247   1.911  0.1174  0.7620  1.1213
 2087SOL    HW216731   7.295   8.218   1.908  0.2897 -0.0391 -1.7150
 2088SOL     OW16732   1.663   6.277   4.061  0.0112 -0.0284 -0.0748
 2088SOL    HW116733   1.651   6.371   4.092  0.7679 -0.2312  0.8777
 2088SOL    HW216734   1.751   6.269   4.013  0.0819 -0.3095  0.0993
 2089SOL     OW16735   2.583   6.721   0.285  0.1045  0.2669 -0.0458
 2089SOL    HW116736   2.543   6.787   0.222  0.4374 -0.6049 -1.1805
 2089SOL    HW216737   2.631   6.770   0.358  0.2136  1.2829 -0.7842
 2090SOL     OW16738   4.681   2.613   0.310 -0.5139 -0.6455  0.5013
 2090SOL    HW116739   4.641   2.586   0.397 -0.4847  0.2636  0.7980
 2090SOL    HW216740   4.780   2.600   0.313 -0.3567  0.6983  1.0830
 2091SOL     OW16741   7.154   0.467   1.353 -0.0397  0.1351 -0.5031
 2091SOL    HW116742   7.095   0.532   1.305  0.3800  0.3810 -0.6859
 2091SOL    HW216743   7.110   0.377   1.355  0.1060  0.0310 -1.6752
 2092SOL     OW16744   2.311   6.977   0.879  0.1661 -0.7232 -0.1721
 2092SOL    HW116745   2.216   6.971   0.910  0.5516 -0.4808  1.0705
 2092SOL    HW216746   2.373   6.975   0.958  1.1585 -0.0905 -0.9167
 2093SOL     OW16747   0.742   5.005   3.030 -0.5245  0.2729  0.4533
 2093SOL    HW116748   0.709   5.089   3.073 -1.3433  0.6042 -0.8038
 2093SOL    HW216749   0.672   4.968   2.969  0.3405 -0.6007 -0.0376
 2094SOL     OW16750   4.309   2.820   0.351  0.0754  0.3263 -0.3300
 2094SOL    HW116751   4.385   2.790   0.409 -0.7082 -0.9458  0.0641
 2094SOL    HW216752   4.259   2.894   0.398 -0.4882 -0.6202  0.5727
 2095SOL     OW16753   1.252   4.778   2.482 -0.1693  0.1088 -0.0973
 2095SOL    HW116754   1.306   4.861   2.479 -0.6446  0.3897 -1.3735
 2095SOL    HW216755   1.219   4.756   2.390 -0.7077 -1.0510  0.3547
 2096SOL     OW16756   2.762   5.337   2.332 -0.2314 -0.1740  0.0691
 2096SOL    HW116757   2.679   5.386   2.357  0.5703  0.6953  1.1040
 2096SOL    HW216758   2.760   5.245   2.371  0.4950  0.7848  2.4668
 2097SOL     OW16759   2.204   7.651   0.641 -0.3338  0.8929  0.1012
 2097SOL    HW116760   2.228   7.598   0.722  0.7692  4.0533  1.9211
 2097SOL    HW216761   2.104   7.664   0.639 -0.4343  0.2641  0.5994
 2098SOL     OW16762   1.816   9.495   2.359 -0.7448  0.2242  0.6256
 2098SOL    HW116763   1.914   9.501   2.374 -0.4993 -1.7427 -0.1352
 2098SOL    HW216764   1.776   9.587   2.361  1.4730  1.2841 -1.7385
 2099SOL     OW16765   0.792   6.314   3.947  0.0515  0.3752  0.3360
 2099SOL    HW116766   0.852   6.390   3.921  1.5310 -1.2192 -1.0611
 2099SOL    HW216767   0.699   6.333   3.918  0.6329  1.1416 -1.0865
 2100SOL     OW16768   0.067   7.253   0.547 -0.7819 -0.3005 -0.0639
 2100SOL    HW116769   0.145   7.278   0.605 -1.3726  0.6302  0.3572
 2100SOL    HW216770   0.098   7.237   0.454 -0.1588  0.6448 -0.0285
 2101SOL     OW16771   0.432   0.836   1.882 -0.2990  0.3774  0.3734
 2101SOL    HW116772   0.449   0.898   1.806 -0.6780  0.2328  0.1703
 2101SOL    HW216773   0.505   0.846   1.950  0.6612 -0.3209 -0.5380
 2102SOL     OW16774   0.592   7.460   1.226  0.1723 -0.0199 -0.2319
 2102SOL    HW116775   0.538   7.379   1.251  1.3664 -0.6169  0.4800
 2102SOL    HW216776   0.584   7.476   1.127 -0.7474 -0.4988 -0.2458
 2103SOL     OW16777   2.668   4.632   0.721  0.3353 -0.1827  0.5900
 2103SOL    HW116778   2.572   4.635   0.749  0.0587 -1.2324 -0.2116
 2103SOL    HW216779   2.725   4.619   0.801 -0.2582 -0.5172  0.9620
 2104SOL     OW16780   1.872   9.968   1.869 -0.0726 -0.1004  0.1715
 2104SOL    HW116781   1.897  10.056   1.828 -0.5858  0.6823  1.4693
 2104SOL    HW216782   1.776   9.949   1.849  0.0516 -0.3773 -0.1463
 2105SOL     OW16783   2.292   4.040   0.997  0.1531 -0.5451 -0.0850
 2105SOL    HW116784   2.257   4.125   0.957  0.8755  0.0866  0.6105
 2105SOL    HW216785   2.343   4.061   1.080 -1.2722 -1.8287  1.1605
 2106SOL     OW16786   9.007   9.224   0.492  0.0862  0.2717 -0.2470
 2106SOL    HW116787   9.040   9.275   0.413  0.9933 -0.4563 -0.3506
 2106SOL    HW216788   9.003   9.284   0.572 -1.5957  1.2181 -1.0096
 2107SOL     OW16789   3.347   1.602   1.079 -0.2647 -0.7854 -0.2196
 2107SOL    HW116790   3.329   1.625   0.983 -2.1344  1.0488  0.5353
 2107SOL    HW216791   3.343   1.502   1.090 -0.9815 -0.9629 -1.8433
 2108SOL     OW16792   1.857   5.663   0.908  0.6837 -0.2424 -0.2299
 2108SOL    HW116793   1.857   5.617   0.819 -1.4534 -1.8431  0.5697
 2108SOL    HW216794   1.928   5.623   0.966  2.0162  0.7357 -1.1243
 2109SOL     OW16795   8.725   7.616   4.091  0.3272 -0.1349 -0.0713
 2109SOL    HW116796   8.762   7.555   4.021 -0.7776  0.7696 -1.4686
 2109SOL    HW216797   8.723   7.710   4.056 -0.9967  0.2026  0.8714
 2110SOL     OW16798   0.446   1.651   4.252 -0.4896 -0.7094  0.2962
 2110SOL    HW116799   0.392   1.704   4.318 -0.4739  0.0602 -0.2926
 2110SOL    HW216800   0.444   1.554   4.277 -0.1380 -0.3804  1.6658
 2111SOL     OW16801   9.541   1.149   3.066 -0.8631  0.1494  0.2981
 2111SOL    HW116802   9.511   1.203   2.987  1.2284  1.3038  0.2540
 2111SOL    HW216803   9.541   1.052   3.041 -2.7672  0.2732 -0.2509
 2112SOL     OW16804   3.260   6.838   3.769 -0.1181 -0.2680 -0.1052
 2112SOL    HW116805   3.272   6.891   3.853  2.2493 -1.3374  0.2609
 2112SOL    HW216806   3.202   6.759   3.788 -0.8451  0.3277  0.1612
 2113SOL     OW16807   8.445   7.678   3.849 -0.2766 -0.4244  0.2332
 2113SOL    HW116808   8.515   7.736   3.891 -0.5451 -0.5135  0.8050
 2113SOL    HW216809   8.419   7.605   3.913 -0.2538 -0.9185 -0.3151
 2114SOL     OW16810   5.566   8.628   2.262  0.2499  0.1104 -0.4690
 2114SOL    HW116811   5.647   8.686   2.274 -0.1846  0.7000 -0.3546
 2114SOL    HW216812   5.562   8.561   2.336 -0.9522  1.9828  1.2327
 2115SOL     OW16813   3.943   7.298   0.688 -0.4032 -0.3718 -0.2546
 2115SOL    HW116814   3.891   7.283   0.771 -0.5895 -0.8912 -0.4633
 2115SOL    HW216815   3.900   7.371   0.634  1.1857  1.8315  1.3393
 2116SOL     OW16816   9.130   9.316   1.401  0.3897  0.4365  0.6135
 2116SOL    HW116817   9.088   9.238   1.355  1.4463  0.4809 -0.4339
 2116SOL    HW216818   9.090   9.401   1.366 -0.1949  0.4096  1.1929
 2117SOL     OW16819   2.403   3.785   3.216  0.6094 -0.0829 -0.1434
 2117SOL    HW116820   2.421   3.687   3.212  0.5029 -0.1403  0.5714
 2117SOL    HW216821   2.479   3.832   3.261  2.4505  0.6897 -3.9452
 2118SOL     OW16822   9.615   9.318   1.758  0.7418 -0.1230  0.3065
 2118SOL    HW116823   9.667   9.401   1.740 -1.0250  0.7720 -0.7109
 2118SOL    HW216824   9.526   9.323   1.713 -1.1428 -0.6740  3.7878
 2119SOL     OW16825   7.598   9.793   1.633 -0.2173 -0.1903  0.3809
 2119SOL    HW116826   7.610   9.695   1.615 -0.7689 -0.4436  1.3874
 2119SOL    HW216827   7.521   9.828   1.580  0.7179 -0.0235 -0.9094
 2120SOL     OW16828   3.271   1.094   4.007 -0.0165  0.7961 -0.2611
 2120SOL    HW116829   3.367   1.107   3.982  0.3721 -0.0966  0.7179
 2120SOL    HW216830   3.231   1.022   3.950 -0.0900  1.1079 -0.6086
 2121SOL     OW16831   4.167   1.252   0.299  0.2034  0.7269 -0.0859
 2121SOL    HW116832   4.142   1.327   0.238  2.1160  0.4109 -1.3167
 2121SOL    HW216833   4.087   1.223   0.351 -2.0507 -0.2796 -3.8906
 2122SOL     OW16834   9.471   1.275   2.817 -0.0957 -0.4279 -0.5136
 2122SOL    HW116835   9.517   1.302   2.733 -0.5390 -0.2839 -0.7114
 2122SOL    HW216836   9.436   1.182   2.808 -0.3325 -0.3335 -0.5679
 2123SOL     OW16837   9.234   8.406   0.993  0.0846 -0.1448  0.0472
 2123SOL    HW116838   9.147   8.440   1.027 -1.3541 -1.7434 -1.9020
 2123SOL    HW216839   9.234   8.306   0.995  2.5033 -0.1408  1.5198
 2124SOL     OW16840   1.692   7.882   0.886 -0.4804 -0.5762 -0.4701
 2124SOL    HW116841   1.653   7.880   0.978  1.1018  2.5120  0.3155
 2124SOL    HW216842   1.622   7.912   0.821 -0.4776  1.2346  0.3517
 2125SOL     OW16843   2.770   5.796   1.947 -0.0578 -0.0537  0.5338
 2125SOL    HW116844   2.846   5.859   1.938 -0.5290  0.4945  0.3859
 2125SOL    HW216845   2.750   5.782   2.044  1.7053 -1.9898  0.6655
 2126SOL     OW16846   3.534   0.247   4.209 -0.1302  0.2165 -0.3892
 2126SOL    HW116847   3.571   0.340   4.197  2.4033 -0.5527  0.9877
 2126SOL    HW216848   3.539   0.198   4.122  1.9649  0.2244 -0.3027
 2127SOL     OW16849   9.850   0.999   2.013  0.8029  0.3764 -0.1760
 2127SOL    HW116850   9.916   0.924   2.018  2.4966  1.8467  0.1506
 2127SOL    HW216851   9.814   1.005   1.919  1.8020  0.0989 -0.5852
 2128SOL     OW16852   9.507   8.276   2.479 -0.0967  1.1454  0.1491
 2128SOL    HW116853   9.517   8.350   2.546 -0.9600  0.0257  1.5346
 2128SOL    HW216854   9.595   8.262   2.433  0.5393  1.8832  1.0982
 2129SOL     OW16855   1.689   3.994   1.554  0.0728 -0.6292 -0.0868
 2129SOL    HW116856   1.745   3.924   1.599  0.7310  0.7570  1.3001
 2129SOL    HW216857   1.683   3.974   1.457  1.3430 -1.8872  0.0688
 2130SOL     OW16858   1.386   9.017   1.143  0.2567  0.3502 -0.2030
 2130SOL    HW116859   1.412   9.068   1.225  1.9326  0.5682 -0.8490
 2130SOL    HW216860   1.399   8.919   1.158  1.8104  0.4834 -0.6379
 2131SOL     OW16861   2.705   7.250   0.407 -0.5344  0.0577  0.0777
 2131SOL    HW116862   2.769   7.326   0.396 -1.3392  0.9639  1.4803
 2131SOL    HW216863   2.708   7.217   0.501 -1.9730 -0.0399  0.1040
 2132SOL     OW16864   3.898   0.131   3.589  0.1383 -0.0247 -0.0614
 2132SOL    HW116865   3.887   0.084   3.677 -1.5458  1.2314  0.4258
 2132SOL    HW216866   3.955   0.212   3.601 -1.1312  0.8504  0.1505
 2133SOL     OW16867   7.931   7.970   3.408  0.1659 -0.2041  0.0115
 2133SOL    HW116868   7.935   7.911   3.489  1.2333 -0.9846 -0.6103
 2133SOL    HW216869   8.022   8.007   3.389 -0.1904  0.4114 -0.5329
 2134SOL     OW16870   9.276   7.311   3.817  0.7543 -0.2139 -0.4587
 2134SOL    HW116871   9.340   7.320   3.740  0.8909 -0.9132 -0.4272
 2134SOL    HW216872   9.213   7.389   3.817 -0.7770 -1.4162 -2.6662
 2135SOL     OW16873   4.582   2.543   2.191 -0.6462  0.2488 -0.3691
 2135SOL    HW116874   4.533   2.458   2.206 -1.5399  0.9741  0.8490
 2135SOL    HW216875   4.662   2.547   2.252 -0.7105  0.3643 -0.2923
 2136SOL     OW16876   9.283   7.307   1.485 -0.4611  0.1872 -0.3684
 2136SOL    HW116877   9.260   7.220   1.441  0.8208 -0.8572  0.9688
 2136SOL    HW216878   9.244   7.309   1.577 -1.7666  1.6777 -0.9347
 2137SOL     OW16879   0.335   2.565   0.504  0.1046 -0.4711 -0.1052
 2137SOL    HW116880   0.305   2.587   0.412 -1.2241  0.5886  0.5687
 2137SOL    HW216881   0.366   2.470   0.507 -0.1265 -0.5990 -1.5657
 2138SOL     OW16882   8.279   9.412   0.533  0.2585  0.0125  0.0756
 2138SOL    HW116883   8.187   9.378   0.552 -0.0780  1.0707  0.3112
 2138SOL    HW216884   8.274   9.489   0.470  1.0398 -0.4312 -0.5352
 2139SOL     OW16885   8.834   6.150   2.234 -0.1657  0.1189 -0.0608
 2139SOL    HW116886   8.774   6.193   2.166 -0.4661  2.1860  1.4538
 2139SOL    HW216887   8.786   6.072   2.276 -0.2575 -0.7108 -1.6515
 2140SOL     OW16888   5.466   8.282   2.860  0.0011  0.0215 -0.1195
 2140SOL    HW116889   5.500   8.200   2.815  0.0894 -0.6737  1.1953
 2140SOL    HW216890   5.539   8.325   2.912  0.0402  1.1310 -1.0559
 2141SOL     OW16891   0.631   5.974   0.596  0.8495 -0.1952 -0.1334
 2141SOL    HW116892   0.624   5.888   0.544 -0.0271 -0.7594  0.8831
 2141SOL    HW216893   0.640   5.952   0.693 -1.2567  0.8821  0.3303
 2142SOL     OW16894   0.690   2.592   4.531 -0.1725 -0.3905  0.0828
 2142SOL    HW116895   0.725   2.619   4.441  0.3013  0.3892  0.4876
 2142SOL    HW216896   0.604   2.542   4.521  0.3051 -1.0314 -0.8480
 2143SOL     OW16897   0.621   5.572   0.742 -0.5418  0.3819  0.1839
 2143SOL    HW116898   0.660   5.504   0.681  1.6113  2.1174 -0.4396
 2143SOL    HW216899   0.664   5.564   0.833 -0.2872  0.8979  0.1096
 2144SOL     OW16900   9.790   4.335   2.147  0.0599 -0.6995 -0.7808
 2144SOL    HW116901   9.702   4.301   2.112  0.0864 -2.2546  0.5775
 2144SOL    HW216902   9.864   4.279   2.109  0.2486 -1.0164  0.0357
 2145SOL     OW16903   0.572   8.423   4.166  0.4974  0.3477 -0.6873
 2145SOL    HW116904   0.544   8.480   4.244 -0.5050 -0.2243 -0.6278
 2145SOL    HW216905   0.635   8.353   4.198  2.3321  1.8695 -0.8860
 2146SOL     OW16906   9.210   6.671   4.703 -0.6668 -0.2288  0.0760
 2146SOL    HW116907   9.222   6.596   4.768  0.2543 -0.2521 -0.1060
 2146SOL    HW216908   9.260   6.751   4.736  0.5560 -0.5121 -1.0324
 2147SOL     OW16909   7.903   6.952   1.508 -0.6809 -0.0604 -0.1692
 2147SOL    HW116910   7.841   7.030   1.512 -0.9136 -0.0902 -2.5267
 2147SOL    HW216911   7.884   6.890   1.584 -1.5544  1.3702  0.8068
 2148SOL     OW16912   4.089   2.796   3.383 -0.1151 -0.1869 -0.7907
 2148SOL    HW116913   4.055   2.805   3.476 -0.6410 -0.5197 -0.9445
 2148SOL    HW216914   4.164   2.860   3.368 -0.2934  0.1470 -0.2643
 2149SOL     OW16915   0.705   5.194   2.354  0.6154 -0.2607 -0.0221
 2149SOL    HW116916   0.673   5.101   2.375  0.6918  0.0462  1.5324
 2149SOL    HW216917   0.754   5.231   2.433  1.4637  0.7349 -0.9960
 2150SOL     OW16918   2.378   6.890   0.625 -0.2016 -0.5133 -0.3417
 2150SOL    HW116919   2.313   6.938   0.566 -0.5257  0.2897  0.6402
 2150SOL    HW216920   2.347   6.897   0.720  2.8087  2.4772  0.5441
 2151SOL     OW16921   1.868   4.477   0.631 -0.5140  0.0180 -0.3617
 2151SOL    HW116922   1.848   4.549   0.565  2.1427 -0.6505 -1.9379
 2151SOL    HW216923   1.956   4.494   0.674 -0.1713 -1.9107 -0.2536
 2152SOL     OW16924   2.319   9.773   2.126  0.2456 -0.7387 -0.0444
 2152SOL    HW116925   2.391   9.704   2.134 -0.7342 -2.0849 -2.1893
 2152SOL    HW216926   2.234   9.737   2.164  0.4477  0.4474  1.5428
 2153SOL     OW16927   1.061   3.873   4.623  0.0613 -0.4112  0.3825
 2153SOL    HW116928   0.979   3.923   4.593 -0.0959  0.3315  2.0265
 2153SOL    HW216929   1.039   3.775   4.630 -0.4328 -0.3337 -0.0540
 2154SOL     OW16930   3.062   2.512   1.346 -0.3121  0.6571  0.5147
 2154SOL    HW116931   3.122   2.538   1.270 -0.3491  2.2013  0.9946
 2154SOL    HW216932   3.112   2.451   1.407  0.9237  2.2016  1.0909
 2155SOL     OW16933   5.304   9.822   1.713  0.2783 -0.5681 -0.4336
 2155SOL    HW116934   5.212   9.809   1.751 -0.2559 -0.9939 -1.8413
 2155SOL    HW216935   5.315   9.917   1.684  0.8205 -0.1460  1.0857
 2156SOL     OW16936   2.006   3.417   0.498  0.8156 -0.2895  0.3778
 2156SOL    HW116937   1.988   3.438   0.594 -2.2887 -1.7745  0.1777
 2156SOL    HW216938   1.994   3.319   0.482  1.4681 -0.0864 -1.5012
 2157SOL     OW16939   6.081   8.061   2.053 -0.7487  0.3180 -0.3836
 2157SOL    HW116940   6.118   7.999   1.984  0.1869  0.7492 -0.2773
 2157SOL    HW216941   6.065   8.010   2.138 -0.5658  0.0917 -0.4835
 2158SOL     OW16942   4.069   7.878   2.421  0.0873 -0.3063  0.3858
 2158SOL    HW116943   4.101   7.970   2.398  0.0898 -0.2191  0.7326
 2158SOL    HW216944   4.022   7.838   2.342  0.7945 -0.3224 -0.0395
 2159SOL     OW16945   4.067   1.839   2.685 -0.3500 -0.2466 -0.1784
 2159SOL    HW116946   4.146   1.868   2.740  0.6472 -0.6400 -1.3825
 2159SOL    HW216947   3.983   1.867   2.731  0.4941  0.5623  0.9135
 2160SOL     OW16948   8.304   6.492   0.138 -0.4503 -0.7039 -0.1276
 2160SOL    HW116949   8.245   6.463   0.062 -0.8615 -0.8766  0.2583
 2160SOL    HW216950   8.280   6.585   0.165  0.1437 -0.3962 -0.6494
 2161SOL     OW16951   2.888   5.583   1.031  0.3282 -0.7356  0.1975
 2161SOL    HW116952   2.923   5.491   1.013  0.6879 -0.6848  0.6332
 2161SOL    HW216953   2.950   5.650   0.991  0.3233 -0.6660  0.3088
 2162SOL     OW16954   0.759   6.246   2.444  0.1774 -0.9294  0.1876
 2162SOL    HW116955   0.849   6.282   2.468 -1.4061  2.8277  0.9205
 2162SOL    HW216956   0.737   6.271   2.349 -0.6930 -0.4537  0.5029
 2163SOL     OW16957   1.513   9.374   4.024  0.5134 -0.3544 -0.0270
 2163SOL    HW116958   1.479   9.399   3.934  0.8225 -2.8695 -0.8956
 2163SOL    HW216959   1.439   9.335   4.078 -0.0384  2.5371  1.4158
 2164SOL     OW16960   0.608   9.827   4.265  0.1222  0.6962  0.6436
 2164SOL    HW116961   0.606   9.792   4.358  0.7793 -0.7068  0.1411
 2164SOL    HW216962   0.680   9.782   4.213  0.1039  1.8323 -0.4127
 2165SOL     OW16963   3.726   6.412   2.255 -0.3069 -0.1410 -0.1010
 2165SOL    HW116964   3.775   6.382   2.336 -1.1786 -1.0135  0.1136
 2165SOL    HW216965   3.787   6.464   2.196  0.4391  0.1295  0.9118
 2166SOL     OW16966   1.401   1.647   1.887  0.2804 -0.2324 -0.5193
 2166SOL    HW116967   1.439   1.720   1.944 -1.6906 -0.2193  0.8395
 2166SOL    HW216968   1.315   1.677   1.847  1.6029 -0.2785 -3.5147
 2167SOL     OW16969   1.602   7.116   3.804  0.1747 -0.4094 -0.0258
 2167SOL    HW116970   1.610   7.076   3.895  1.1072 -1.3937 -0.5295
 2167SOL    HW216971   1.694   7.137   3.769 -0.2372  1.1859 -0.2068
 2168SOL     OW16972   9.173   9.160   4.414 -0.4282 -0.0766 -0.1525
 2168SOL    HW116973   9.221   9.142   4.328  2.3271 -0.0524  1.2948
 2168SOL    HW216974   9.085   9.113   4.414  0.6590 -2.2008 -1.9437
 2169SOL     OW16975   4.820   0.239   2.843  0.1670 -0.5543 -0.1053
 2169SOL    HW116976   4.883   0.277   2.776 -0.6157 -1.7666 -1.5773
 2169SOL    HW216977   4.780   0.313   2.897  1.4117  0.3766 -0.4389
 2170SOL     OW16978   0.681   9.629   2.685 -0.3644 -0.0633  0.1033
 2170SOL    HW116979   0.583   9.622   2.669 -0.2006  0.6707 -1.3119
 2170SOL    HW216980   0.701   9.716   2.731 -0.2027  0.6262 -1.2413
 2171SOL     OW16981   3.866   0.812   1.615 -0.0709 -0.0593  0.5855
 2171SOL    HW116982   3.773   0.791   1.583  0.1691 -1.3249  0.6946
 2171SOL    HW216983   3.925   0.830   1.536 -0.3528  0.5191  0.5054
 2172SOL     OW16984   1.602   7.787   2.766 -0.5904  0.5002  0.3841
 2172SOL    HW116985   1.654   7.774   2.851  1.2686  1.1839 -0.6267
 2172SOL    HW216986   1.635   7.869   2.719 -0.7258 -0.5824 -1.6416
 2173SOL     OW16987   2.288   0.004   1.648  0.5770 -0.3017 -0.0860
 2173SOL    HW116988   2.248  -0.050   1.723 -0.6013  1.0667  0.3090
 2173SOL    HW216989   2.374   0.045   1.679  1.3634 -1.7482 -0.3147
 2174SOL     OW16990   2.921   9.665   4.495 -0.1573  0.4187  0.7151
 2174SOL    HW116991   2.892   9.735   4.561 -2.1567  0.3435 -0.0661
 2174SOL    HW216992   2.879   9.683   4.407  0.8753 -0.6791 -0.0133
 2175SOL     OW16993   7.457   8.488   3.791  0.1212 -0.5534  0.0487
 2175SOL    HW116994   7.546   8.504   3.748  0.1882 -2.5661 -0.6052
 2175SOL    HW216995   7.387   8.541   3.743  0.7355 -0.0769 -0.3300
 2176SOL     OW16996   0.952   8.608   3.457 -0.1015 -0.2331  0.5661
 2176SOL    HW116997   0.921   8.525   3.505  1.5322 -0.0884  1.9189
 2176SOL    HW216998   1.051   8.616   3.466 -0.1053  1.2361 -0.6002
 2177SOL     OW16999   3.176   4.263   3.408 -0.4941 -0.2003 -0.1718
 2177SOL    HW117000   3.097   4.321   3.390 -0.7999 -0.0445  1.6127
 2177SOL    HW217001   3.234   4.305   3.477 -0.9234 -2.1538  1.4513
 2178SOL     OW17002   3.801   8.779   3.164  0.0038  0.1145  0.0392
 2178SOL    HW117003   3.765   8.849   3.103  0.7979  1.7597  1.4173
 2178SOL    HW217004   3.731   8.752   3.230  0.3252  1.1445  0.8226
 2179SOL     OW17005   3.121   1.902   4.549 -0.1947  0.5590  0.3013
 2179SOL    HW117006   3.129   1.979   4.611  0.3564  0.0211  0.9120
 2179SOL    HW217007   3.208   1.853   4.545 -0.9044 -0.7850  0.9352
 2180SOL     OW17008   4.147   8.606   4.172  0.3543  0.4851  0.1990
 2180SOL    HW117009   4.167   8.649   4.084  0.6541 -0.1618 -0.0508
 2180SOL    HW217010   4.194   8.518   4.178 -2.0517 -0.8622 -0.2155
 2181SOL     OW17011   9.218   5.288   1.222 -0.3063 -0.2973 -0.0467
 2181SOL    HW117012   9.171   5.320   1.305  1.7757  2.7919  0.0051
 2181SOL    HW217013   9.315   5.278   1.240  0.0791 -0.2015 -1.9727
 2182SOL     OW17014   8.150   6.075   2.111 -0.3246  0.5318  0.0263
 2182SOL    HW117015   8.121   6.074   2.016 -2.3964  1.9455  0.6154
 2182SOL    HW217016   8.146   5.982   2.149 -0.0803  0.0685 -1.0656
 2183SOL     OW17017   3.603   5.117   2.064  0.2435  0.0200 -0.1405
 2183SOL    HW117018   3.592   5.098   2.161  1.9688  0.6138  0.1992
 2183SOL    HW217019   3.516   5.149   2.026  0.3165  2.9754  1.9611
 2184SOL     OW17020   0.042   9.113   3.726 -0.2597 -0.3277 -0.4202
 2184SOL    HW117021  -0.042   9.148   3.686 -1.3430 -0.0655  2.0454
 2184SOL    HW217022   0.098   9.072   3.654 -1.8881  0.6530 -2.2868
 2185SOL     OW17023   1.630   7.314   2.263  0.0273  0.4146  0.2572
 2185SOL    HW117024   1.641   7.336   2.166  0.0196 -0.9531 -0.0613
 2185SOL    HW217025   1.589   7.392   2.311 -1.2456  0.5833 -1.0899
 2186SOL     OW17026   0.428   8.278   2.243 -0.9932  0.2849 -0.3404
 2186SOL    HW117027   0.334   8.252   2.262 -1.1882  1.2431  0.0292
 2186SOL    HW217028   0.430   8.342   2.166 -0.6651  0.4438 -0.1997
 2187SOL     OW17029   3.543   8.194   4.749  0.6570  0.3530 -0.3544
 2187SOL    HW117030   3.599   8.151   4.821 -0.9484 -0.4241  0.4690
 2187SOL    HW217031   3.512   8.123   4.685  2.2771  1.0781 -1.9784
 2188SOL     OW17032   3.867   8.970   2.275 -0.4688  0.1797 -0.0951
 2188SOL    HW117033   3.803   8.977   2.199 -0.3084 -1.3430 -0.3823
 2188SOL    HW217034   3.856   8.881   2.320  0.6356  0.3709  0.5805
 2189SOL     OW17035   0.361   6.577   4.134  0.4032 -0.1423 -0.7062
 2189SOL    HW117036   0.412   6.662   4.145 -0.8281  0.5283 -0.0429
 2189SOL    HW217037   0.415   6.501   4.170 -0.1580  0.9303  2.6421
 2190SOL     OW17038   1.100   1.379   2.373 -0.0702  0.7418 -0.1132
 2190SOL    HW117039   1.040   1.327   2.433 -1.9373  1.3271 -1.4116
 2190SOL    HW217040   1.155   1.317   2.317  0.6647  0.2029  1.1873
 2191SOL     OW17041   8.600   8.999   1.466 -0.0956  0.0610  0.2302
 2191SOL    HW117042   8.521   8.960   1.513  0.8017 -0.2627  1.5044
 2191SOL    HW217043   8.654   8.926   1.425 -0.7688  0.3292 -1.1701
 2192SOL     OW17044   2.536   5.342   4.083  0.2747 -0.1609 -0.3358
 2192SOL    HW117045   2.456   5.340   4.142 -0.8012  1.8889 -1.6466
 2192SOL    HW217046   2.616   5.311   4.134 -0.6202  1.5045  2.2029
 2193SOL     OW17047   9.579   0.360   1.239 -0.0110 -0.7616 -0.0436
 2193SOL    HW117048   9.522   0.397   1.166 -1.7483  1.4468  2.3299
 2193SOL    HW217049   9.539   0.275   1.273 -0.1147 -0.9206 -0.5701
 2194SOL     OW17050   2.077   9.542   2.391 -0.2427  0.3456  0.0374
 2194SOL    HW117051   2.063   9.640   2.376  0.7242  0.3407 -0.9342
 2194SOL    HW217052   2.172   9.525   2.417 -0.9638 -0.0882  2.5437
 2195SOL     OW17053   9.748   8.745   0.584  0.4078  0.4296  0.2271
 2195SOL    HW117054   9.694   8.668   0.615  0.0676  0.4884 -0.2185
 2195SOL    HW217055   9.788   8.725   0.495 -3.3597  2.4666 -2.0451
 2196SOL     OW17056   8.177   0.215   3.682 -0.6645 -0.1394 -0.3489
 2196SOL    HW117057   8.143   0.161   3.760  1.4809  0.4695  1.0623
 2196SOL    HW217058   8.164   0.163   3.598 -2.3120 -1.1554  0.4880
 2197SOL     OW17059   0.755   5.898   3.035 -0.3012 -0.1741  0.2785
 2197SOL    HW117060   0.768   5.841   3.116 -0.0229 -1.2297 -0.5086
 2197SOL    HW217061   0.701   5.848   2.967 -0.1846  0.5577 -0.3629
 2198SOL     OW17062   7.320   7.584   1.535  0.7582 -0.2718 -0.8358
 2198SOL    HW117063   7.408   7.562   1.577 -0.1512 -0.9318  0.7875
 2198SOL    HW217064   7.324   7.673   1.491  1.9069  0.1910  0.2022
 2199SOL     OW17065   2.902   4.363   3.627  0.2430 -0.3255  0.0085
 2199SOL    HW117066   2.809   4.392   3.605  0.0160  0.6692  2.1260
 2199SOL    HW217067   2.937   4.419   3.702  2.2192 -1.2948 -0.1605
 2200SOL     OW17068   2.254   2.564   2.041 -0.0676  0.4504  0.1967
 2200SOL    HW117069   2.346   2.572   2.080  0.0654  1.2974 -0.2808
 2200SOL    HW217070   2.193   2.629   2.087  0.2775  2.0378 -1.5439
 2201SOL     OW17071   9.174   9.897   0.126  0.3348  0.2914 -0.3971
 2201SOL    HW117072   9.178   9.800   0.147  0.3729  0.5094  0.6303
 2201SOL    HW217073   9.265   9.937   0.130 -0.1076  1.1389  3.0249
 2202SOL     OW17074   7.841   8.174   0.121 -0.3396  0.7240 -0.1804
 2202SOL    HW117075   7.939   8.192   0.114 -0.4708  1.5501 -0.0114
 2202SOL    HW217076   7.790   8.258   0.100 -0.9975  0.4031  0.1132
 2203SOL     OW17077   9.796   8.285   4.188 -0.0855 -0.3566 -0.2752
 2203SOL    HW117078   9.850   8.201   4.177  0.1027 -0.4997  1.6737
 2203SOL    HW217079   9.715   8.265   4.244  0.5130  0.9904  1.0962
 2204SOL     OW17080   1.334   9.063   0.700 -0.6313 -0.4887 -0.6182
 2204SOL    HW117081   1.377   8.996   0.760 -0.3063 -0.6826 -1.0673
 2204SOL    HW217082   1.403   9.127   0.666 -1.3857  1.9105  2.1544
 2205SOL     OW17083   0.398   0.635   1.449 -0.0175 -0.8944 -0.0711
 2205SOL    HW117084   0.457   0.712   1.426  0.5879 -0.8567  1.5379
 2205SOL    HW217085   0.385   0.577   1.368 -0.1708  0.6807 -1.1867
 2206SOL     OW17086   6.050   9.209   3.214 -0.0576 -0.1986 -0.3269
 2206SOL    HW117087   5.993   9.240   3.138  0.9891  2.6036 -0.0218
 2206SOL    HW217088   6.018   9.251   3.299  1.0372 -0.4526  0.2147
 2207SOL     OW17089   3.119   8.622   3.732 -0.2924  0.4634 -0.1313
 2207SOL    HW117090   3.129   8.625   3.831 -0.4250  0.0487 -0.1053
 2207SOL    HW217091   3.201   8.581   3.692 -0.1635  0.7923 -0.2076
 2208SOL     OW17092   2.311   9.360   3.418 -0.2055  0.0884  0.1866
 2208SOL    HW117093   2.230   9.405   3.454 -1.2917 -2.3988  0.9384
 2208SOL    HW217094   2.368   9.328   3.494  1.5552  1.8811 -0.3285
 2209SOL     OW17095   3.556   0.570   0.429  0.2752  0.3762 -0.3404
 2209SOL    HW117096   3.581   0.640   0.362 -2.3515  1.6798  0.0219
 2209SOL    HW217097   3.547   0.482   0.382  1.6067  0.6514 -1.1350
 2210SOL     OW17098   2.357   1.334   1.177  0.3329 -0.6176  0.2469
 2210SOL    HW117099   2.446   1.369   1.146 -0.5375 -0.4342 -2.1137
 2210SOL    HW217100   2.301   1.410   1.210 -0.2026 -0.2451 -1.4728
 2211SOL     OW17101   1.584   0.674   4.084 -0.2460 -0.2575  0.1042
 2211SOL    HW117102   1.633   0.722   4.157 -1.9700  1.9999 -0.1797
 2211SOL    HW217103   1.602   0.576   4.091  3.8942  0.4028  0.3230
 2212SOL     OW17104   6.856   0.199   3.959  0.2704  0.0503  0.6306
 2212SOL    HW117105   6.955   0.205   3.973  0.7281 -3.0718 -1.0944
 2212SOL    HW217106   6.825   0.279   3.906  2.5497 -1.0079 -2.4232
 2213SOL     OW17107   8.663   9.036   0.670  0.2671 -0.3132 -0.0123
 2213SOL    HW117108   8.720   9.045   0.588 -1.0528 -0.9810 -1.0188
 2213SOL    HW217109   8.569   9.059   0.648 -0.5894 -2.9708  0.6519
 2214SOL     OW17110   1.544   4.974   3.633  0.0555 -0.4609  0.0266
 2214SOL    HW117111   1.544   4.875   3.627  1.2763 -0.5601  1.3234
 2214SOL    HW217112   1.450   5.007   3.641 -0.4464 -1.3924 -1.9252
 2215SOL     OW17113   0.236   6.471   2.452  0.3541  0.3190 -0.0056
 2215SOL    HW117114   0.249   6.373   2.440  1.9565  0.5154  0.0379
 2215SOL    HW217115   0.216   6.491   2.548 -1.7541 -0.1227 -0.3089
 2216SOL     OW17116   3.096   0.278   3.006 -0.5830  0.0337 -0.2392
 2216SOL    HW117117   3.017   0.216   3.006 -1.5900  1.2614  1.5459
 2216SOL    HW217118   3.149   0.265   2.923 -3.5537  0.2981 -2.2473
 2217SOL     OW17119   1.415   0.865   2.079 -0.4087  0.2400 -0.2438
 2217SOL    HW117120   1.505   0.870   2.124  0.2913  0.6115 -1.6668
 2217SOL    HW217121   1.344   0.868   2.149  0.6530  1.1708  0.8414
 2218SOL     OW17122   9.640   8.103   1.780 -0.0809  0.7814 -0.2409
 2218SOL    HW117123   9.566   8.060   1.831 -0.1233  0.8418 -0.2513
 2218SOL    HW217124   9.727   8.088   1.828 -0.0519  0.4179 -0.4102
 2219SOL     OW17125   9.084   7.924   2.185  0.1857 -0.7777  0.3336
 2219SOL    HW117126   9.143   7.993   2.226  1.5995 -1.3393 -0.7181
 2219SOL    HW217127   9.003   7.967   2.147  0.9295  0.2687 -0.0767
 2220SOL     OW17128   3.351   3.030   4.143  0.1522  0.1944 -0.1370
 2220SOL    HW117129   3.276   3.060   4.084  0.1558 -1.5536 -1.0823
 2220SOL    HW217130   3.438   3.066   4.109  0.4563 -2.7749 -2.6962
 2221SOL     OW17131   3.723   7.854   3.007 -0.0638 -0.0571 -0.0841
 2221SOL    HW117132   3.741   7.760   3.035 -1.5387 -0.1699  0.4850
 2221SOL    HW217133   3.716   7.912   3.089  2.0160  0.7842 -0.4549
 2222SOL     OW17134   3.420   6.455   1.533 -0.0331 -0.0630  0.0332
 2222SOL    HW117135   3.497   6.518   1.530  1.0967 -1.4184 -0.6618
 2222SOL    HW217136   3.347   6.487   1.472  0.7913  0.2389 -0.7981
 2223SOL     OW17137   8.593   8.155   4.452  0.0886  0.0544 -0.5639
 2223SOL    HW117138   8.553   8.176   4.363  1.2408  1.0793 -0.8544
 2223SOL    HW217139   8.546   8.207   4.523  2.1551  2.8041 -1.1397
 2224SOL     OW17140   8.979   8.929   4.712  0.5388  0.2436 -0.4418
 2224SOL    HW117141   8.914   8.914   4.786  0.5611 -1.7008 -0.7925
 2224SOL    HW217142   9.070   8.943   4.750  0.3088  0.6183 -0.0390
 2225SOL     OW17143   2.635   9.110   3.778  0.1911 -0.0462 -0.0881
 2225SOL    HW117144   2.594   9.087   3.866 -0.0457  1.4538  0.2067
 2225SOL    HW217145   2.719   9.057   3.766  0.5053  0.1197  1.2757
 2226SOL     OW17146   1.617   8.677   2.288 -0.0136  0.5642  0.1402
 2226SOL    HW117147   1.559   8.734   2.231  0.2933  0.3496 -0.3845
 2226SOL    HW217148   1.566   8.598   2.321 -0.0395  0.4163 -0.2582
 2227SOL     OW17149   3.757   9.675   3.843  0.0790  0.3452 -0.0143
 2227SOL    HW117150   3.761   9.600   3.908  1.5355 -0.8813 -1.4674
 2227SOL    HW217151   3.669   9.675   3.796 -0.1504 -0.0763  0.4194
 2228SOL     OW17152   0.221   5.224   1.345 -0.1234 -0.0390  0.5404
 2228SOL    HW117153   0.128   5.251   1.370 -1.0621 -2.2527 -0.4417
 2228SOL    HW217154   0.243   5.260   1.254 -0.1103  0.2920  0.6751
 2229SOL     OW17155   9.682   8.949   0.184 -0.0118  0.1710  0.0738
 2229SOL    HW117156   9.701   8.992   0.095  1.2464 -0.9215 -0.2068
 2229SOL    HW217157   9.659   9.019   0.251  1.4698  1.2461 -0.5123
 2230SOL     OW17158   4.625   1.682   1.925  0.1082  0.4331 -1.1353
 2230SOL    HW117159   4.724   1.694   1.914  0.4078  0.1673  1.1129
 2230SOL    HW217160   4.603   1.585   1.919  0.3515  0.2250  1.0155
 2231SOL     OW17161   2.343   6.949   1.786 -0.0850  0.7114 -0.8710
 2231SOL    HW117162   2.343   6.902   1.697  0.5150  2.1039 -1.6227
 2231SOL    HW217163   2.419   7.014   1.790 -1.5467  2.4482 -0.3094
 2232SOL     OW17164   2.064   0.321   2.901  0.4137 -0.4938 -0.0214
 2232SOL    HW117165   2.132   0.249   2.913  1.5657  0.7127  0.7805
 2232SOL    HW217166   2.086   0.398   2.961  0.0007  1.1270 -1.9084
 2233SOL     OW17167   0.218   4.432   1.027  0.4849 -0.3822  0.6729
 2233SOL    HW117168   0.188   4.527   1.039 -0.8284 -0.4028 -2.0110
 2233SOL    HW217169   0.303   4.430   0.975  0.5679 -0.6737  0.8185
 2234SOL     OW17170   5.879   0.152   1.363  0.1843 -0.3602 -0.3134
 2234SOL    HW117171   5.809   0.222   1.355  1.6382  1.0849 -0.5732
 2234SOL    HW217172   5.904   0.142   1.460  0.5943  0.1051 -0.3689
 2235SOL     OW17173   1.904   8.334   1.326  0.4911  0.4942  0.3088
 2235SOL    HW117174   1.845   8.257   1.354  1.1971  0.4820  1.7842
 2235SOL    HW217175   1.965   8.303   1.253  0.2169 -0.1304  0.3358
 2236SOL     OW17176   6.598   7.393   2.917 -0.4159  0.2024 -0.1238
 2236SOL    HW117177   6.508   7.355   2.895 -0.1183 -0.3686 -0.3612
 2236SOL    HW217178   6.668   7.322   2.908 -0.1328  0.2256  1.5944
 2237SOL     OW17179   9.486   5.897   0.450  0.4364  0.1559  0.9497
 2237SOL    HW117180   9.534   5.861   0.530  1.9260 -2.0916 -0.9153
 2237SOL    HW217181   9.431   5.825   0.409 -0.4657  1.3439  0.0375
 2238SOL     OW17182   2.661   4.779   4.415 -0.6848  0.0856 -0.0963
 2238SOL    HW117183   2.672   4.859   4.356 -2.0397  0.9025  0.7361
 2238SOL    HW217184   2.745   4.766   4.469 -0.9466  1.7854  0.7645
 2239SOL     OW17185   1.862   2.255   2.116  0.7723  0.0382  0.1005
 2239SOL    HW117186   1.785   2.282   2.057 -0.4874 -2.2533  0.6189
 2239SOL    HW217187   1.929   2.204   2.062 -1.5634 -4.2424  1.0039
 2240SOL     OW17188   0.718   6.135   1.359  1.1664 -0.5322 -0.5608
 2240SOL    HW117189   0.664   6.214   1.388  3.8034  0.6247  1.4581
 2240SOL    HW217190   0.684   6.053   1.404  1.1606  0.2065  0.8096
 2241SOL     OW17191   2.305   0.526   3.571 -0.2273  0.5169 -0.3486
 2241SOL    HW117192   2.211   0.561   3.562 -0.5593 -0.5683 -1.2449
 2241SOL    HW217193   2.363   0.570   3.503 -0.1601  0.9118 -0.0413
 2242SOL     OW17194   8.419   9.630   4.564 -0.0354 -0.7558 -0.0791
 2242SOL    HW117195   8.357   9.698   4.523  1.7924 -0.1108 -1.8805
 2242SOL    HW217196   8.489   9.677   4.617  0.1447 -1.3518  0.2113
 2243SOL     OW17197   2.455   3.748   1.524 -0.3769 -0.0093  0.2173
 2243SOL    HW117198   2.404   3.671   1.564 -0.9858  0.7624  0.9580
 2243SOL    HW217199   2.463   3.735   1.425  0.9772 -1.8553  0.5461
 2244SOL     OW17200   9.400   6.273   1.671 -0.3376  0.9307 -0.3146
 2244SOL    HW117201   9.428   6.356   1.623 -0.5626  0.8577 -0.5736
 2244SOL    HW217202   9.441   6.272   1.763  2.3126 -0.2504 -1.4693
 2245SOL     OW17203   2.400   6.226   3.085  0.4886  0.3180  0.2512
 2245SOL    HW117204   2.498   6.203   3.089  0.7706  1.0647 -1.8086
 2245SOL    HW217205   2.390   6.325   3.075 -0.5106  0.2916  0.9667
 2246SOL     OW17206   2.766   5.435   2.057  0.1484 -0.2659 -0.0631
 2246SOL    HW117207   2.761   5.389   2.145  0.5540  0.1664  0.1878
 2246SOL    HW217208   2.678   5.478   2.037  0.1873  0.0051  0.3352
 2247SOL     OW17209   1.941   0.399   1.659  0.8037  0.1183 -0.3441
 2247SOL    HW117210   1.993   0.457   1.722 -0.8986  0.3420  0.8888
 2247SOL    HW217211   1.869   0.453   1.615 -0.4460 -0.9151  0.3937
 2248SOL     OW17212   0.537   6.530   0.773 -0.1394  0.2984 -0.2407
 2248SOL    HW117213   0.487   6.610   0.807 -1.5701 -0.6429 -0.0912
 2248SOL    HW217214   0.476   6.474   0.717  0.0137 -2.2055  2.0284
 2249SOL     OW17215   6.813   9.897   3.490  0.1369 -0.2500 -0.0006
 2249SOL    HW117216   6.849   9.888   3.397  3.2298 -1.5609  1.2528
 2249SOL    HW217217   6.877   9.951   3.545 -2.0535  1.2083  1.2049
 2250SOL     OW17218   1.846   8.646   2.896 -0.6452 -0.4150  0.2822
 2250SOL    HW117219   1.780   8.571   2.896  0.5902 -1.5274  0.8078
 2250SOL    HW217220   1.805   8.727   2.855 -1.8863 -1.4877 -0.6239
 2251SOL     OW17221   0.454   3.771   1.552 -0.9191  0.1921  0.0946
 2251SOL    HW117222   0.358   3.780   1.578 -1.5279 -0.9420 -1.6616
 2251SOL    HW217223   0.467   3.689   1.497  1.5093 -0.9370  2.2333
 2252SOL     OW17224   1.192   9.549   0.815 -0.3054 -0.5759 -0.1877
 2252SOL    HW117225   1.201   9.637   0.863  0.7755 -0.1168 -1.2073
 2252SOL    HW217226   1.121   9.494   0.859 -0.9606  0.7939  0.4925
 2253SOL     OW17227   1.146   2.068   4.312  0.2789  0.3130 -0.2004
 2253SOL    HW117228   1.080   2.080   4.237  0.5472 -0.2815 -0.5310
 2253SOL    HW217229   1.099   2.084   4.399 -0.0279  1.0411 -0.4869
 2254SOL     OW17230   2.577   4.232   1.579 -0.7962  0.0409  0.4048
 2254SOL    HW117231   2.653   4.186   1.625  0.3378 -2.3347 -3.5916
 2254SOL    HW217232   2.592   4.331   1.582  1.2006 -0.2639  1.7102
 2255SOL     OW17233   3.009   7.972   0.170  0.0128 -0.2182  0.0953
 2255SOL    HW117234   3.084   8.022   0.128 -1.2703  0.9932 -0.8161
 2255SOL    HW217235   2.962   7.917   0.101 -0.5981 -0.1252  0.4311
 2256SOL     OW17236   2.560   2.620   4.306  0.1962 -0.4001  0.4971
 2256SOL    HW117237   2.657   2.605   4.287  0.0059 -0.9488 -0.0581
 2256SOL    HW217238   2.520   2.535   4.342 -0.1216 -0.2403  0.5195
 2257SOL     OW17239   3.765   2.059   1.904 -0.3325 -0.1276 -0.2444
 2257SOL    HW117240   3.784   1.968   1.868 -0.9391  0.1444 -1.2643
 2257SOL    HW217241   3.848   2.115   1.896  0.8137 -1.2811  2.6555
 2258SOL     OW17242   9.099   8.068   0.527  0.4162 -0.5638  0.3835
 2258SOL    HW117243   9.046   8.011   0.589 -1.5577  0.6496 -0.1644
 2258SOL    HW217244   9.107   8.021   0.438  0.6179 -0.9154  0.5844
 2259SOL     OW17245   3.416   3.407   1.134 -0.6027 -0.0912 -0.2248
 2259SOL    HW117246   3.349   3.400   1.209 -0.2606 -0.9544  0.0037
 2259SOL    HW217247   3.507   3.387   1.169 -0.6313 -1.8914 -1.1666
 2260SOL     OW17248   2.704   2.892   0.838 -0.0671  0.3745  0.3094
 2260SOL    HW117249   2.783   2.904   0.899  1.5533  0.5859 -1.7580
 2260SOL    HW217250   2.718   2.811   0.782 -0.3299  1.5972 -1.5460
 2261SOL     OW17251   4.062   9.956   2.850 -0.3115 -0.2801  0.5304
 2261SOL    HW117252   3.990   9.887   2.867 -0.9560  0.6310  1.5912
 2261SOL    HW217253   4.061  10.023   2.924 -0.6857  1.7332 -1.2788
 2262SOL     OW17254   8.718   9.711   3.492 -0.1417  0.8868 -0.4520
 2262SOL    HW117255   8.660   9.783   3.530  0.9852  0.7992  1.4843
 2262SOL    HW217256   8.665   9.657   3.427 -2.5086  0.2356  1.9309
 2263SOL     OW17257   4.849   2.264   1.570  0.3561 -0.0282 -0.0050
 2263SOL    HW117258   4.778   2.299   1.631  1.3116  0.7786  0.6589
 2263SOL    HW217259   4.859   2.324   1.491 -0.7742 -0.9898 -0.8986
 2264SOL     OW17260   1.094   2.432   1.608  0.1299  0.2495 -0.1885
 2264SOL    HW117261   1.108   2.351   1.666 -3.1623  0.7321  1.4069
 2264SOL    HW217262   1.140   2.511   1.649 -0.5078  0.1498  0.7499
 2265SOL     OW17263   1.279   6.023   3.370  0.3344 -0.6693  0.2552
 2265SOL    HW117264   1.303   5.926   3.381  1.1556 -0.5568 -0.5645
 2265SOL    HW217265   1.360   6.080   3.383 -0.0097 -0.1256  0.0548
 2266SOL     OW17266   0.993   1.631   0.260  0.1554 -0.4140 -0.0991
 2266SOL    HW117267   0.938   1.586   0.190 -0.0274 -1.1491  0.5139
 2266SOL    HW217268   1.063   1.688   0.216  0.1968 -1.0627 -0.8728
 2267SOL     OW17269   1.831   5.800   0.557 -0.0825 -0.4649 -0.4660
 2267SOL    HW117270   1.768   5.726   0.531  0.8573 -2.1866  1.9488
 2267SOL    HW217271   1.779   5.882   0.578 -1.3000 -0.9878 -1.3395
 2268SOL     OW17272   2.959   3.390   1.467  0.1180 -0.5131 -0.5174
 2268SOL    HW117273   2.987   3.485   1.481 -1.3235 -0.0328 -0.8427
 2268SOL    HW217274   2.939   3.348   1.555  1.2436 -0.6871 -0.3278
 2269SOL     OW17275   3.184   7.434   1.414 -0.2868 -0.5366 -0.0453
 2269SOL    HW117276   3.284   7.431   1.420 -0.3401 -1.1008  0.5604
 2269SOL    HW217277   3.153   7.527   1.430  0.0239 -0.6926  1.5353
 2270SOL     OW17278   0.355   3.633   2.367  0.5687  0.3591  0.1430
 2270SOL    HW117279   0.434   3.676   2.412  1.1264  0.3731 -0.8297
 2270SOL    HW217280   0.376   3.537   2.348 -0.2270 -0.0446  1.2359
 2271SOL     OW17281   4.214   2.554   0.934  0.0932  0.2043 -0.5881
 2271SOL    HW117282   4.263   2.468   0.949  0.1641  0.0089 -1.9024
 2271SOL    HW217283   4.244   2.621   1.002 -0.9094 -1.1808  1.2675
 2272SOL     OW17284   3.956   8.155   0.277 -0.0756 -0.1804 -0.4759
 2272SOL    HW117285   3.993   8.156   0.371 -1.7048  0.5008  0.1682
 2272SOL    HW217286   4.014   8.212   0.218 -0.1391  0.9540  0.5387
 2273SOL     OW17287   6.116   7.892   1.805  0.3412 -0.0896 -0.1398
 2273SOL    HW117288   6.035   7.930   1.850  1.6766 -0.7402  2.9102
 2273SOL    HW217289   6.100   7.796   1.783 -0.1925  0.1343 -0.7318
 2274SOL     OW17290   2.623   6.518   2.279  0.0095  0.0578 -0.8490
 2274SOL    HW117291   2.681   6.573   2.218 -0.7296  2.0246  0.1692
 2274SOL    HW217292   2.681   6.458   2.334  0.9252  0.5315 -1.2695
 2275SOL     OW17293   0.862   4.737   0.549  0.2375 -0.5329  0.0251
 2275SOL    HW117294   0.812   4.660   0.588  0.9060 -1.5667 -1.1515
 2275SOL    HW217295   0.948   4.705   0.510 -0.2970  0.5254 -2.0727
 2276SOL     OW17296   2.099   3.097   1.784  0.4901  0.0822 -0.2764
 2276SOL    HW117297   2.058   3.011   1.814 -1.1198  0.9667  0.1147
 2276SOL    HW217298   2.105   3.160   1.861  1.1403  0.5406 -0.6874
 2277SOL     OW17299   8.161   5.516   2.461 -0.2050 -0.4080 -0.4094
 2277SOL    HW117300   8.222   5.449   2.504  1.7160  2.1239  1.0084
 2277SOL    HW217301   8.210   5.561   2.386  0.0862  2.3528  1.3810
 2278SOL     OW17302   1.807   9.263   1.333 -0.5441 -0.0242  0.1920
 2278SOL    HW117303   1.736   9.277   1.402  0.5146 -0.4770  1.3964
 2278SOL    HW217304   1.896   9.256   1.378  0.2297  0.2079 -1.2706
 2279SOL     OW17305   3.389   9.917   1.762 -0.3086  0.0950 -0.3387
 2279SOL    HW117306   3.409   9.877   1.851  2.9449  0.3412 -0.8934
 2279SOL    HW217307   3.411  10.015   1.763 -2.9514  0.7472 -0.6280
 2280SOL     OW17308   1.419   3.036   3.815 -0.4931  0.1649  0.2312
 2280SOL    HW117309   1.353   2.983   3.762 -1.4003  0.8544  0.6415
 2280SOL    HW217310   1.391   3.132   3.815  0.1593  0.3562  0.9505
 2281SOL     OW17311   2.108   7.031   2.235 -0.3397  0.6785  0.1588
 2281SOL    HW117312   2.040   6.977   2.185 -1.1654 -0.8287  2.8053
 2281SOL    HW217313   2.198   6.987   2.226 -0.4585  0.5039 -0.1770
 2282SOL     OW17314   1.747   8.468   2.117 -0.4455  0.0213  0.1360
 2282SOL    HW117315   1.716   8.386   2.166  0.3465  0.3816  1.2727
 2282SOL    HW217316   1.701   8.548   2.154  1.6007  0.5240  1.6511
 2283SOL     OW17317   2.589   4.975   4.165 -0.2768 -0.2277  0.2703
 2283SOL    HW117318   2.650   5.025   4.226  0.3143 -0.9331  0.2590
 2283SOL    HW217319   2.494   4.988   4.195  0.0603 -1.1590  1.7690
 2284SOL     OW17320   0.351   4.431   2.111 -0.6250  0.6152  0.0422
 2284SOL    HW117321   0.388   4.502   2.170  0.5925  1.4984 -1.7661
 2284SOL    HW217322   0.419   4.358   2.100 -1.9504 -1.0210  2.0927
 2285SOL     OW17323   1.400   0.257   4.119  0.4202  0.0720  0.5907
 2285SOL    HW117324   1.379   0.293   4.210  2.2106 -0.6390  1.3192
 2285SOL    HW217325   1.424   0.160   4.126 -1.2295 -0.4676 -0.9084
 2286SOL     OW17326   8.919   0.803   2.218  0.1955 -1.0817  0.1170
 2286SOL    HW117327   8.842   0.765   2.167  0.2890 -1.3508  0.1707
 2286SOL    HW217328   8.995   0.737   2.218  1.6928  0.5309 -2.7971
 2287SOL     OW17329   3.415   7.928   0.082  0.8106 -0.0547 -0.1157
 2287SOL    HW117330   3.390   7.837   0.116 -0.3076  0.6152  0.8988
 2287SOL    HW217331   3.476   7.973   0.149  0.1343  0.5258  0.1191
 2288SOL     OW17332   1.480   7.619   0.645 -0.1708  0.0482 -0.1247
 2288SOL    HW117333   1.520   7.689   0.586  0.4710 -1.2872 -1.2861
 2288SOL    HW217334   1.381   7.633   0.651  0.0786  1.7127  0.5523
 2289SOL     OW17335   4.155   2.234   0.483  0.0039  0.5665 -0.2548
 2289SOL    HW117336   4.130   2.137   0.480  1.0468  0.2670  0.4394
 2289SOL    HW217337   4.185   2.258   0.575  1.6743  1.0358 -0.8968
 2290SOL     OW17338   8.601   6.449   4.089  0.1374  0.6234  0.4725
 2290SOL    HW117339   8.656   6.470   4.169  1.6204 -0.6815 -0.1658
 2290SOL    HW217340   8.504   6.464   4.109  0.4666  0.0677  2.5912
 2291SOL     OW17341   9.163   9.610   0.154  0.3446 -0.2758  0.5203
 2291SOL    HW117342   9.205   9.545   0.217  0.3156 -0.4057  0.4060
 2291SOL    HW217343   9.194   9.591   0.060 -1.0431 -1.2634  0.2359
 2292SOL     OW17344   0.937   2.600   0.218 -0.1520  0.5056  0.1445
 2292SOL    HW117345   0.933   2.700   0.211 -0.2696  0.4052 -1.4727
 2292SOL    HW217346   0.844   2.563   0.215 -0.1061  0.3330  0.7218
 2293SOL     OW17347   2.156   8.583   4.601  0.5858 -0.2115  0.5131
 2293SOL    HW117348   2.062   8.553   4.621  1.0282 -1.2741  1.0457
 2293SOL    HW217349   2.175   8.566   4.504 -0.7206  2.6547 -0.2920
 2294SOL     OW17350   3.027   4.661   1.398 -0.0596  0.1584 -0.3580
 2294SOL    HW117351   3.022   4.567   1.432  1.8394 -0.4155 -1.5621
 2294SOL    HW217352   2.967   4.671   1.319  1.2914 -0.6447 -1.5083
 2295SOL     OW17353   8.459   6.646   2.532 -0.2449 -0.5039  0.1567
 2295SOL    HW117354   8.493   6.552   2.535  2.3608  0.3454 -1.6599
 2295SOL    HW217355   8.390   6.653   2.459 -1.0222 -1.1767  0.8186
 2296SOL     OW17356   2.802   1.180   2.151 -0.1884 -0.1353  0.3603
 2296SOL    HW117357   2.898   1.179   2.179 -0.0410 -0.3794 -0.1473
 2296SOL    HW217358   2.796   1.173   2.051 -0.7703 -1.5962  0.4774
 2297SOL     OW17359   3.887   0.612   2.967  0.1991  0.1294 -0.2066
 2297SOL    HW117360   3.863   0.538   3.029  0.3453 -0.0104 -0.3156
 2297SOL    HW217361   3.808   0.671   2.954 -0.2649 -0.6347 -0.9826
 2298SOL     OW17362   3.958   0.582   1.312  0.2782  0.2383  0.2618
 2298SOL    HW117363   3.894   0.629   1.252 -0.7021  0.3142  1.3272
 2298SOL    HW217364   4.051   0.587   1.275  0.0375  2.2074 -0.0924
 2299SOL     OW17365   9.282   5.850   2.051 -0.2531  0.1331  0.1355
 2299SOL    HW117366   9.192   5.850   2.095 -0.3045 -0.5717  0.0298
 2299SOL    HW217367   9.275   5.812   1.959  0.1978 -0.1456  0.2135
 2300SOL     OW17368   0.997   7.254   3.524  0.2398 -0.0368 -0.1616
 2300SOL    HW117369   1.074   7.264   3.462  0.2269 -0.0201 -0.1747
 2300SOL    HW217370   1.031   7.236   3.617  0.2518 -1.4451 -0.4195
 2301SOL     OW17371   8.488   7.559   3.484  0.1179  0.0793 -0.4139
 2301SOL    HW117372   8.576   7.527   3.449 -1.1342 -2.5964 -1.2240
 2301SOL    HW217373   8.457   7.499   3.557  0.1457  2.5127  1.6809
 2302SOL     OW17374   8.371   7.435   2.194 -0.1714  0.0233 -0.0205
 2302SOL    HW117375   8.345   7.526   2.160  0.8655 -0.6043 -2.5705
 2302SOL    HW217376   8.463   7.439   2.232 -1.1487  0.6146  2.3739
 2303SOL     OW17377   8.060   7.000   1.976 -0.6399 -0.2388 -1.4074
 2303SOL    HW117378   8.156   6.981   1.999 -0.8144 -0.8661 -1.1761
 2303SOL    HW217379   8.003   6.924   2.007 -1.1135 -0.2365 -2.2567
 2304SOL     OW17380   7.820   9.433   0.421 -0.4591  0.3037 -0.2793
 2304SOL    HW117381   7.849   9.437   0.326 -0.5970  0.0089 -0.3341
 2304SOL    HW217382   7.807   9.526   0.456 -1.3364  0.3944 -0.8329
 2305SOL     OW17383   3.930   2.088   4.443 -0.2337 -0.4655  0.1511
 2305SOL    HW117384   3.853   2.104   4.381  1.7264 -0.1606 -2.2599
 2305SOL    HW217385   3.924   2.153   4.519 -0.9262  1.3461 -1.4001
 2306SOL     OW17386   8.031   7.459   4.149  0.7079 -0.1543 -0.1131
 2306SOL    HW117387   8.023   7.360   4.136 -0.9269 -0.2196  1.2222
 2306SOL    HW217388   7.945   7.503   4.122  0.8314  0.7233  0.9063
 2307SOL     OW17389   0.076   6.028   0.886 -0.1130  0.0852 -0.2163
 2307SOL    HW117390   0.068   6.081   0.802  1.3155  1.5684  0.5482
 2307SOL    HW217391   0.146   6.069   0.944 -1.7000 -0.4021  2.0964
 2308SOL     OW17392   2.853   0.418   2.866  0.1396 -0.0283  0.1780
 2308SOL    HW117393   2.821   0.381   2.779 -0.0850  1.5282 -0.4189
 2308SOL    HW217394   2.946   0.453   2.855 -0.1585  0.8342  0.3768
 2309SOL     OW17395   0.977   4.018   4.097 -0.1037  0.0401 -0.4611
 2309SOL    HW117396   0.958   4.006   4.000 -0.5601  0.6084 -0.4448
 2309SOL    HW217397   0.897   4.059   4.142 -1.3565 -3.6598  0.8650
 2310SOL     OW17398   0.374   1.787   2.762  0.3732 -0.3885 -0.1024
 2310SOL    HW117399   0.293   1.789   2.821 -0.1002  0.7266 -0.7842
 2310SOL    HW217400   0.428   1.705   2.783  0.4568  0.2399  2.1888
 2311SOL     OW17401   1.458   3.918   0.595  0.6689  0.1995  0.8076
 2311SOL    HW117402   1.516   3.965   0.662  1.6960  0.0944 -0.0034
 2311SOL    HW217403   1.506   3.913   0.507 -0.4055 -0.2546  0.2456
 2312SOL     OW17404   4.625   1.128   2.374 -0.0499 -0.7687  0.3658
 2312SOL    HW117405   4.648   1.179   2.457 -0.1690  0.5902 -0.4185
 2312SOL    HW217406   4.699   1.136   2.308 -0.5984 -0.5868 -0.2336
 2313SOL     OW17407   8.887   6.389   1.007  0.0241  0.5191  0.4097
 2313SOL    HW117408   8.807   6.437   1.042  0.7038  0.8326  1.5894
 2313SOL    HW217409   8.880   6.291   1.030  0.7041  0.8038  1.9401
 2314SOL     OW17410   9.087   0.187   1.571 -0.5848  0.7046 -0.2152
 2314SOL    HW117411   9.125   0.196   1.479  0.2902  1.5114  0.2194
 2314SOL    HW217412   9.138   0.117   1.621 -1.2856  0.0201 -0.4571
 2315SOL     OW17413   7.610   9.106   1.101 -0.1281  0.8066  0.2469
 2315SOL    HW117414   7.669   9.150   1.033  0.5271  2.9700  2.1541
 2315SOL    HW217415   7.518   9.096   1.063  0.8522 -0.3809 -1.8801
 2316SOL     OW17416   2.172   4.700   3.385  0.0316 -0.1012 -0.0660
 2316SOL    HW117417   2.242   4.641   3.344 -0.1501 -1.0041  0.8743
 2316SOL    HW217418   2.145   4.771   3.320  0.6231 -0.7546 -1.0381
 2317SOL     OW17419   1.094   0.292   0.127  0.1453 -0.3829  0.1516
 2317SOL    HW117420   1.103   0.297   0.027 -0.0100  0.5399  0.1753
 2317SOL    HW217421   1.102   0.384   0.165  0.4779 -0.7694  1.0171
 2318SOL     OW17422   3.476   0.971   3.645  0.0815  0.0138  0.1621
 2318SOL    HW117423   3.478   0.936   3.551  1.8767  0.1504  0.1372
 2318SOL    HW217424   3.407   0.922   3.698 -0.0326 -0.9522 -0.8789
 2319SOL     OW17425   4.764   2.023   1.256  0.1112  0.0278 -1.1362
 2319SOL    HW117426   4.864   2.016   1.248  0.4306  3.2788 -0.4703
 2319SOL    HW217427   4.724   1.932   1.246  3.1763 -1.4188 -0.8615
 2320SOL     OW17428   9.468   9.666   0.169 -0.2271  0.0382 -0.3274
 2320SOL    HW117429   9.465   9.764   0.149  0.8564  0.1532  0.0083
 2320SOL    HW217430   9.397   9.619   0.117 -1.3418  1.1252  0.2135
 2321SOL     OW17431   4.602   3.633   4.663 -0.0132  0.0967  0.3657
 2321SOL    HW117432   4.678   3.623   4.598 -0.1188  0.6881  0.1471
 2321SOL    HW217433   4.601   3.726   4.699 -1.5026  0.5405 -0.7395
 2322SOL     OW17434   1.517   2.687   2.927 -1.0598  0.4887  0.6295
 2322SOL    HW117435   1.529   2.618   2.999  1.7694  0.3534  0.0768
 2322SOL    HW217436   1.532   2.778   2.966 -0.1460  0.4570  0.3652
 2323SOL     OW17437   3.466   2.168   3.203 -0.0689  0.0184 -0.2609
 2323SOL    HW117438   3.432   2.081   3.240  0.2961 -0.0539 -0.0959
 2323SOL    HW217439   3.552   2.192   3.248  0.4892 -0.1768 -1.2076
 2324SOL     OW17440   3.458   4.059   1.131  0.1293  0.1538 -0.2648
 2324SOL    HW117441   3.377   4.010   1.099  0.8389 -1.4910  0.3944
 2324SOL    HW217442   3.529   4.055   1.061 -0.5198  2.0980 -1.0871
 2325SOL     OW17443   1.641   5.478   1.316  0.3799 -0.3577  0.2308
 2325SOL    HW117444   1.659   5.381   1.333  2.3662 -0.5516 -2.6991
 2325SOL    HW217445   1.727   5.529   1.315 -0.6407  1.4426  1.6269
 2326SOL     OW17446   2.262   4.146   1.489  0.2653  0.1276  0.3333
 2326SOL    HW117447   2.263   4.133   1.588  2.4866  0.4507  0.3759
 2326SOL    HW217448   2.272   4.057   1.443  0.6647  0.1334  0.4122
 2327SOL     OW17449   0.979   8.888   3.794  0.0974 -0.1024 -0.4655
 2327SOL    HW117450   0.909   8.941   3.747  1.6750  2.1921 -0.3175
 2327SOL    HW217451   0.963   8.892   3.893  0.3836  0.3845 -0.4348
 2328SOL     OW17452   1.882   9.152   0.462  0.3167  0.1989  0.3913
 2328SOL    HW117453   1.841   9.150   0.553 -0.9373 -0.0658 -0.1652
 2328SOL    HW217454   1.933   9.067   0.447 -1.6705 -0.9685 -0.1071
 2329SOL     OW17455   2.480   3.513   3.161  0.7215  0.2103 -0.6506
 2329SOL    HW117456   2.436   3.434   3.203 -0.0299  0.6786 -0.5686
 2329SOL    HW217457   2.575   3.517   3.191  0.1962  0.5346  0.9806
 2330SOL     OW17458   9.799   4.195   1.458 -0.1774  0.3874  0.3219
 2330SOL    HW117459   9.712   4.145   1.464 -0.5658  1.1126  0.8032
 2330SOL    HW217460   9.869   4.134   1.422 -0.3345 -0.9391  2.1505
 2331SOL     OW17461   2.061   7.526   4.752 -0.1599 -0.2946 -0.0732
 2331SOL    HW117462   2.123   7.466   4.700 -1.3023 -1.2393 -0.3686
 2331SOL    HW217463   1.998   7.570   4.688 -0.3138  0.0375  0.3127
 2332SOL     OW17464   9.167   5.496   3.630 -0.0694  0.1875  0.4922
 2332SOL    HW117465   9.201   5.553   3.704  0.6174 -1.7842  1.7443
 2332SOL    HW217466   9.228   5.502   3.551 -0.1422  1.3478  0.5221
 2333SOL     OW17467   3.693   8.096   4.400  0.1456 -0.0003  0.1729
 2333SOL    HW117468   3.685   8.164   4.326  1.4371  0.5539  0.5338
 2333SOL    HW217469   3.602   8.063   4.424 -0.3871  0.6316 -0.9168
 2334SOL     OW17470   9.533   5.887   3.536  0.0964  0.3581  0.1027
 2334SOL    HW117471   9.523   5.986   3.524  1.4717  0.3507 -1.1747
 2334SOL    HW217472   9.490   5.840   3.459  0.8693  0.0050 -0.1113
 2335SOL     OW17473   6.523   9.709   0.272  1.3485 -0.0909  0.1609
 2335SOL    HW117474   6.594   9.641   0.255  1.5284  0.7567 -2.7326
 2335SOL    HW217475   6.440   9.684   0.221  1.2776  1.5798 -0.6012
 2336SOL     OW17476   0.218   2.771   1.902  0.1137  0.0903 -0.3443
 2336SOL    HW117477   0.202   2.707   1.978 -0.2121 -0.8168 -1.1701
 2336SOL    HW217478   0.160   2.852   1.915 -0.8562 -0.6091 -0.2644
 2337SOL     OW17479   5.243   6.597   3.085 -0.4117  0.0559  0.4714
 2337SOL    HW117480   5.309   6.568   3.154  1.3481  2.2553 -0.2105
 2337SOL    HW217481   5.248   6.536   3.006 -0.3856 -0.7675  1.1020
 2338SOL     OW17482   2.555   3.868   4.085  0.6164  0.5803 -0.1212
 2338SOL    HW117483   2.600   3.795   4.035  1.0828  0.4151  0.5331
 2338SOL    HW217484   2.563   3.851   4.183 -0.6201  0.6948  0.0102
 2339SOL     OW17485   0.490   4.597   0.409 -0.4316  0.1504  0.5336
 2339SOL    HW117486   0.489   4.568   0.314 -0.5734 -1.3331  0.9735
 2339SOL    HW217487   0.505   4.696   0.414 -1.9410  0.4687 -1.0738
 2340SOL     OW17488   2.788   1.294   3.428  0.1545 -0.1708 -0.1118
 2340SOL    HW117489   2.708   1.267   3.375  1.0399 -0.2514 -1.4379
 2340SOL    HW217490   2.856   1.335   3.367  0.7967  0.6303  1.1238
 2341SOL     OW17491   4.590   8.964   3.198  0.5161  0.0699 -0.1566
 2341SOL    HW117492   4.644   9.039   3.234  1.2787 -0.5502  0.0169
 2341SOL    HW217493   4.637   8.924   3.119  0.1739 -0.2961 -0.1813
 2342SOL     OW17494   2.503   6.336   1.774 -0.1179 -0.3105 -0.5022
 2342SOL    HW117495   2.468   6.300   1.688 -1.7945  2.0337 -0.8468
 2342SOL    HW217496   2.523   6.434   1.764  0.4043 -0.1753  1.5511
 2343SOL     OW17497   3.017   5.289   1.305 -0.5252 -0.5214 -0.2189
 2343SOL    HW117498   3.057   5.202   1.331  2.4368  1.4769  2.1956
 2343SOL    HW217499   2.975   5.333   1.384 -1.0057  0.7422 -1.1427
 2344SOL     OW17500   9.584   0.506   0.247  0.1475  1.2193  0.4838
 2344SOL    HW117501   9.674   0.503   0.205  0.0495 -2.4342  0.3849
 2344SOL    HW217502   9.519   0.454   0.191 -1.9651  3.4000  0.7785
 2345SOL     OW17503   2.126   8.951   0.166  0.1105 -0.1471  0.2835
 2345SOL    HW117504   2.095   9.044   0.146 -1.5324 -0.9138 -0.8718
 2345SOL    HW217505   2.112   8.932   0.263 -1.1924  0.2292  0.1916
 2346SOL     OW17506   3.796   1.539   4.255 -0.4799  0.5719  0.2703
 2346SOL    HW117507   3.769   1.453   4.298 -1.9867  0.1156 -1.5106
 2346SOL    HW217508   3.888   1.530   4.217  0.1843  0.4361  1.8732
 2347SOL     OW17509   1.360   9.883   2.157  0.8001  0.0205  0.0609
 2347SOL    HW117510   1.401   9.801   2.196  2.7204 -0.6139 -3.1164
 2347SOL    HW217511   1.405   9.964   2.196  2.3140 -0.5740 -0.4216
 2348SOL     OW17512   9.327   6.169   0.836  0.2005 -0.0767  0.6323
 2348SOL    HW117513   9.278   6.251   0.867  1.1083  0.4783  0.6171
 2348SOL    HW217514   9.378   6.190   0.753  0.9974 -0.4684  1.0151
 2349SOL     OW17515   5.731   9.864   3.950  0.1908 -0.0481 -0.0162
 2349SOL    HW117516   5.728   9.963   3.961 -0.9534  0.1232 -1.7179
 2349SOL    HW217517   5.638   9.827   3.960  0.6648 -1.0043  0.9979
 2350SOL     OW17518   0.172   7.946   1.030 -0.0556 -0.4935 -0.2573
 2350SOL    HW117519   0.195   7.901   1.117 -0.2632  0.4530  0.2981
 2350SOL    HW217520   0.257   7.969   0.981  0.2446  2.1317  1.3470
 2351SOL     OW17521   7.246   8.843   0.976  0.1823 -0.4514 -0.1018
 2351SOL    HW117522   7.273   8.938   0.965 -0.0813 -0.4507 -0.7585
 2351SOL    HW217523   7.198   8.831   1.063  2.1001 -0.4060  0.9940
 2352SOL     OW17524   1.483   3.840   1.198  0.1950  0.3564  0.0533
 2352SOL    HW117525   1.561   3.804   1.251  0.6790  3.5114  1.5975
 2352SOL    HW217526   1.412   3.870   1.261 -0.2264  1.9702 -1.1856
 2353SOL     OW17527   0.356   0.133   1.689  0.3715 -0.3276  0.2907
 2353SOL    HW117528   0.424   0.103   1.621  0.1052  0.6657 -0.4262
 2353SOL    HW217529   0.382   0.098   1.779  3.1829  1.9983  0.4643
 2354SOL     OW17530   3.836   3.123   0.352 -0.2155  1.0873  0.2265
 2354SOL    HW117531   3.753   3.179   0.349 -0.7535  0.2626 -0.6504
 2354SOL    HW217532   3.828   3.049   0.285  1.5994  1.5251 -0.4956
 2355SOL     OW17533   2.061   6.686   1.247 -0.0357  0.3279  0.6303
 2355SOL    HW117534   2.041   6.664   1.151  0.9682 -0.2589  0.5494
 2355SOL    HW217535   2.160   6.684   1.261 -0.1563  0.9319  1.5616
 2356SOL     OW17536   8.323   6.479   1.972 -0.3007  0.5654  0.3825
 2356SOL    HW117537   8.367   6.410   2.030 -0.4830  0.5940  0.5562
 2356SOL    HW217538   8.234   6.446   1.942 -0.1533  0.4980  0.0116
 2357SOL     OW17539   7.561   6.042   1.673  0.8629 -0.0916 -0.3058
 2357SOL    HW117540   7.571   6.134   1.636  1.8787  0.3223  0.9642
 2357SOL    HW217541   7.516   6.046   1.762  0.4555 -0.8761 -0.4664
 2358SOL     OW17542   2.604   6.948   0.757 -0.0881 -0.2337  0.1580
 2358SOL    HW117543   2.640   6.856   0.773 -1.7307 -0.8154  0.5377
 2358SOL    HW217544   2.517   6.943   0.708 -0.5748  1.0754  0.8456
 2359SOL     OW17545   8.487   7.888   0.510 -0.1554  0.5488  0.5760
 2359SOL    HW117546   8.509   7.879   0.413  0.3131 -0.2775  0.7521
 2359SOL    HW217547   8.456   7.981   0.529  0.9069  1.0581 -0.1425
 2360SOL     OW17548   9.825   8.918   4.555 -0.0411  0.6282  0.2609
 2360SOL    HW117549   9.795   8.970   4.635  1.4314 -0.6183  1.6717
 2360SOL    HW217550   9.919   8.888   4.569  0.5498  1.1898 -2.3797
 2361SOL     OW17551   0.113   9.595   0.116 -0.1413 -0.1944 -0.1752
 2361SOL    HW117552   0.156   9.573   0.028  1.3473 -1.2373  0.7672
 2361SOL    HW217553   0.143   9.528   0.185 -2.5041 -0.3309  0.7818
 2362SOL     OW17554   7.257   0.010   3.998 -0.3780  0.2349 -0.4129
 2362SOL    HW117555   7.285  -0.031   4.084 -1.3305  0.7612  0.1518
 2362SOL    HW217556   7.337   0.020   3.938  0.2690 -0.1770  0.3797
 2363SOL     OW17557   0.518   5.157   2.617 -0.4583 -0.1988  0.6708
 2363SOL    HW117558   0.569   5.227   2.667 -0.7054  0.0093  0.6301
 2363SOL    HW217559   0.436   5.197   2.577  0.1976 -0.1662 -0.6516
 2364SOL     OW17560   8.136   9.966   0.611  0.6081 -0.2914 -0.2719
 2364SOL    HW117561   8.153  10.054   0.655  1.1043 -0.9192  0.8009
 2364SOL    HW217562   8.217   9.908   0.621 -0.8859 -2.0432  1.8277
 2365SOL     OW17563   6.630   0.729   2.898 -0.2238 -0.1521 -0.3477
 2365SOL    HW117564   6.692   0.685   2.833 -0.9961 -0.5857 -0.7996
 2365SOL    HW217565   6.582   0.805   2.852 -1.5741 -1.1416 -0.6101
 2366SOL     OW17566   3.467   7.350   2.268 -0.1778 -0.7383 -0.0623
 2366SOL    HW117567   3.377   7.308   2.283 -0.3567 -0.2495  0.2339
 2366SOL    HW217568   3.455   7.444   2.237  0.2374  0.2366  2.6141
 2367SOL     OW17569   9.499   5.361   3.951  0.1174  0.0935  0.1706
 2367SOL    HW117570   9.530   5.267   3.933  0.4006 -0.1117  1.6863
 2367SOL    HW217571   9.498   5.377   4.049 -0.0265  1.6616 -0.0831
 2368SOL     OW17572   3.520   0.627   4.531 -0.1913  0.0749 -0.3903
 2368SOL    HW117573   3.425   0.631   4.561 -0.1469  1.3723 -0.3978
 2368SOL    HW217574   3.528   0.666   4.440  0.5002  0.8834  0.0085
 2369SOL     OW17575   1.262   9.968   3.234  0.6247 -0.5558 -0.6580
 2369SOL    HW117576   1.188   9.934   3.176  0.5094 -0.2231 -0.7117
 2369SOL    HW217577   1.287   9.899   3.302  0.7167 -0.9244 -1.0655
 2370SOL     OW17578   4.024   1.868   3.131  0.2399 -0.5205 -0.1472
 2370SOL    HW117579   4.074   1.954   3.143 -0.5456  0.0700 -1.0437
 2370SOL    HW217580   3.938   1.886   3.083 -0.1204 -1.7517  0.0246
 2371SOL     OW17581   3.130   4.666   3.398  0.0386  0.9461  0.1866
 2371SOL    HW117582   3.128   4.606   3.478  0.7255 -1.2962 -1.4145
 2371SOL    HW217583   3.076   4.625   3.325 -1.0466  3.2400 -0.3348
 2372SOL     OW17584   0.057   6.692   4.760  0.0734 -0.0806  0.1730
 2372SOL    HW117585  -0.009   6.622   4.731 -0.7046  0.6370  0.1716
 2372SOL    HW217586   0.128   6.650   4.816  0.7827 -1.2224 -1.5535
 2373SOL     OW17587   1.907   8.907   3.059  0.3955  0.2131 -0.3433
 2373SOL    HW117588   1.955   8.975   3.004  1.2968 -0.3579 -0.2573
 2373SOL    HW217589   1.838   8.861   3.003 -1.1499  2.1094 -0.0682
 2374SOL     OW17590   9.617   0.747   2.100 -0.0650 -0.0680 -0.0003
 2374SOL    HW117591   9.522   0.775   2.089  0.1585  1.1931  1.1425
 2374SOL    HW217592   9.629   0.701   2.188  0.1254 -1.4271 -0.7132
 2375SOL     OW17593   2.344   7.635   1.523 -0.5914 -0.5253 -0.3508
 2375SOL    HW117594   2.357   7.568   1.450  1.2784  1.0583 -1.5383
 2375SOL    HW217595   2.403   7.611   1.600  0.6364  0.1322 -1.0682
 2376SOL     OW17596   1.191   6.973   2.927 -1.0794 -0.1486 -0.0453
 2376SOL    HW117597   1.165   6.892   2.980 -2.6045  1.0895  1.1609
 2376SOL    HW217598   1.137   6.976   2.843 -1.3351 -0.1601  0.1167
 2377SOL     OW17599   7.824   0.192   4.676  0.2262  0.3902 -0.5345
 2377SOL    HW117600   7.814   0.268   4.611  0.6389  1.4695  0.6556
 2377SOL    HW217601   7.842   0.108   4.625 -0.7769  0.9738 -1.9042
 2378SOL     OW17602   0.349   8.751   1.022  0.0976 -0.2139  0.1153
 2378SOL    HW117603   0.396   8.684   1.078 -1.4857 -0.5894  1.0272
 2378SOL    HW217604   0.357   8.726   0.925  1.8793 -0.1707  0.2378
 2379SOL     OW17605   3.714   8.882   4.127 -0.2718  0.0359  0.2554
 2379SOL    HW117606   3.743   8.907   4.035 -0.8820  1.0305  0.3189
 2379SOL    HW217607   3.787   8.831   4.173  1.5857  2.8922  0.5930
 2380SOL     OW17608   2.170   5.014   3.998 -0.0373  0.0958 -0.1899
 2380SOL    HW117609   2.072   5.036   3.998  0.7811  4.1975 -2.0148
 2380SOL    HW217610   2.212   5.051   4.081 -0.2305 -3.0728  1.3936
 2381SOL     OW17611   0.787   9.750   3.101  0.2270  1.1441 -0.4015
 2381SOL    HW117612   0.769   9.659   3.064  0.2530  0.9578  0.0389
 2381SOL    HW217613   0.715   9.774   3.167  2.3227 -0.2161  2.4870
 2382SOL     OW17614   9.831   9.069   1.421  0.0196 -0.1222  1.2520
 2382SOL    HW117615   9.803   9.162   1.446 -0.9244  0.0154 -0.2582
 2382SOL    HW217616   9.752   9.008   1.425 -0.0414 -0.2112 -0.7828
 2383SOL     OW17617   8.847   9.175   1.869 -0.0045  0.3256  0.2847
 2383SOL    HW117618   8.842   9.215   1.777  0.5275  1.8403  0.9030
 2383SOL    HW217619   8.919   9.106   1.871 -0.4013 -0.1248 -0.5894
 2384SOL     OW17620   2.239   0.085   3.680  0.2608 -0.8376 -0.6912
 2384SOL    HW117621   2.311   0.150   3.656  0.6832 -1.0804 -0.1231
 2384SOL    HW217622   2.260  -0.004   3.640  0.0592 -0.8045 -0.8700
 2385SOL     OW17623   3.541   7.529   4.023 -0.0747  0.6149 -1.0316
 2385SOL    HW117624   3.569   7.446   4.072 -0.8269  0.1431 -1.3806
 2385SOL    HW217625   3.582   7.529   3.932 -0.9210  0.0873 -1.4218
 2386SOL     OW17626   9.008   8.753   2.579  0.0983 -0.0137  0.0901
 2386SOL    HW117627   9.025   8.658   2.605 -1.0588 -0.4413 -0.6908
 2386SOL    HW217628   8.982   8.758   2.483 -1.7990  0.8607  0.6170
 2387SOL     OW17629   9.100   8.351   0.205  0.0864 -0.1722  0.6995
 2387SOL    HW117630   9.117   8.394   0.117  1.0311 -0.5817  0.6766
 2387SOL    HW217631   9.182   8.356   0.262 -0.2452 -0.6610  1.2350
 2388SOL     OW17632   8.770   9.462   0.315 -0.2507  0.1802 -0.5431
 2388SOL    HW117633   8.738   9.371   0.341 -0.4304  0.1133 -1.0130
 2388SOL    HW217634   8.777   9.519   0.398  0.2752 -0.3864 -0.1948
 2389SOL     OW17635   3.712   7.640   2.539  0.1058  0.8433  0.2407
 2389SOL    HW117636   3.673   7.730   2.557  0.4615  1.0047  0.2064
 2389SOL    HW217637   3.809   7.640   2.565  0.6664  1.1109 -1.7781
 2390SOL     OW17638   1.148   8.051   3.047 -0.1011  0.1797 -0.1395
 2390SOL    HW117639   1.057   8.065   3.086 -0.8640 -2.4985 -0.7951
 2390SOL    HW217640   1.172   8.129   2.989 -1.8282  1.0997  0.3328
 2391SOL     OW17641   3.551   7.093   4.475 -0.0817 -0.0528 -0.3805
 2391SOL    HW117642   3.475   7.046   4.519 -0.1444  1.5693  1.2715
 2391SOL    HW217643   3.554   7.067   4.378 -0.8495 -2.4885  0.2098
 2392SOL     OW17644   1.805   4.049   0.416 -0.4400 -0.3957 -0.3414
 2392SOL    HW117645   1.846   4.060   0.326 -0.1724  0.0183 -0.1652
 2392SOL    HW217646   1.810   3.953   0.443 -1.5632 -0.7397 -1.2712
 2393SOL     OW17647   0.460   2.707   1.523 -0.0362 -0.3339  0.3424
 2393SOL    HW117648   0.439   2.630   1.464  1.0709  0.1530 -0.6900
 2393SOL    HW217649   0.539   2.685   1.580  0.0963 -0.0636  0.2606
 2394SOL     OW17650   3.129   7.470   3.843 -0.0818 -0.6583  0.2412
 2394SOL    HW117651   3.058   7.427   3.899 -0.4997  0.7214  0.7891
 2394SOL    HW217652   3.205   7.499   3.901 -0.5318  0.8133  0.1299
 2395SOL     OW17653   8.719   8.863   4.199  0.2985  0.2800  0.2580
 2395SOL    HW117654   8.731   8.875   4.101  1.7648  0.8170  0.4955
 2395SOL    HW217655   8.704   8.766   4.219  1.2441 -0.0003 -0.3783
 2396SOL     OW17656   7.907   8.108   2.412 -0.5735 -0.1648  0.0913
 2396SOL    HW117657   7.860   8.189   2.376  1.1479  0.5730 -0.5576
 2396SOL    HW217658   8.006   8.125   2.413 -0.2686 -1.9094  0.8627
 2397SOL     OW17659   8.123   9.194   3.511  0.7609  0.0205 -0.1216
 2397SOL    HW117660   8.101   9.136   3.433  1.9080  0.8493 -1.0816
 2397SOL    HW217661   8.213   9.169   3.547  1.3871  1.3680 -0.7156
 2398SOL     OW17662   3.854   8.680   3.917 -0.2191 -0.0562  0.5595
 2398SOL    HW117663   3.878   8.678   4.014  1.0976 -0.8541  0.2270
 2398SOL    HW217664   3.847   8.775   3.887 -0.2852  0.1938  1.3475
 2399SOL     OW17665   6.558   8.861   3.258  0.1801 -0.0058  0.3278
 2399SOL    HW117666   6.541   8.779   3.204 -0.2550 -0.4220  1.0969
 2399SOL    HW217667   6.591   8.835   3.349 -0.0009  0.6673  0.5875
 2400SOL     OW17668   3.755   0.331   2.628  1.0914  0.6875 -0.6338
 2400SOL    HW117669   3.823   0.355   2.698  1.2072 -1.7798  0.1262
 2400SOL    HW217670   3.672   0.298   2.672  1.1537 -0.8697 -1.6675
 2401SOL     OW17671   4.909   8.944   3.270 -0.5187 -0.2029  0.0667
 2401SOL    HW117672   4.881   8.857   3.311 -1.7176 -0.3007 -0.9269
 2401SOL    HW217673   4.843   9.014   3.295 -0.8260 -0.0915 -1.0339
 2402SOL     OW17674   9.612   4.883   2.654 -0.1031  0.0168 -0.1281
 2402SOL    HW117675   9.710   4.897   2.638 -0.3621  0.9369 -1.0226
 2402SOL    HW217676   9.573   4.832   2.578 -0.4697  0.3733 -0.1823
 2403SOL     OW17677   1.204   2.980   3.649 -0.9774 -0.5166  0.1207
 2403SOL    HW117678   1.204   3.030   3.562  0.3099  0.0022  0.4108
 2403SOL    HW217679   1.147   2.898   3.640 -1.7489  0.1182 -0.8712
 2404SOL     OW17680   3.259   1.562   2.368 -0.3801  0.2516  0.4538
 2404SOL    HW117681   3.310   1.625   2.310  0.8577 -0.0107  1.2455
 2404SOL    HW217682   3.320   1.490   2.402 -1.3558 -0.2902  1.0964
 2405SOL     OW17683   2.893   7.811   3.426  0.1526  0.0941  0.3720
 2405SOL    HW117684   2.821   7.881   3.421 -0.6930 -0.9232 -2.3874
 2405SOL    HW217685   2.905   7.783   3.521 -0.4579  2.9650  1.3610
 2406SOL     OW17686   2.940   2.377   0.162  0.2117 -0.2600  0.0388
 2406SOL    HW117687   2.928   2.279   0.151 -0.4460 -0.1232 -0.5064
 2406SOL    HW217688   2.850   2.421   0.169  0.4796  0.4087 -0.6775
 2407SOL     OW17689   1.480   1.705   3.958 -0.4726 -0.4790  0.2169
 2407SOL    HW117690   1.564   1.666   3.996 -0.2945  0.3662  0.7146
 2407SOL    HW217691   1.418   1.632   3.930  0.6282 -1.1044 -0.5874
 2408SOL     OW17692   1.438   3.220   3.434 -0.4854 -0.1445  0.5236
 2408SOL    HW117693   1.356   3.164   3.425  0.9641 -2.0892 -0.9253
 2408SOL    HW217694   1.449   3.248   3.530 -2.7102 -0.0155  0.7586
 2409SOL     OW17695   4.366   6.854   2.184  0.3153  0.1741 -0.1594
 2409SOL    HW117696   4.365   6.756   2.165  2.1621  0.4073 -1.6509
 2409SOL    HW217697   4.300   6.900   2.124  0.6699  0.0253 -0.6682
 2410SOL     OW17698   4.511   9.490   1.144 -0.9226 -0.0461  0.0698
 2410SOL    HW117699   4.610   9.473   1.143 -1.3790 -3.2169  1.4468
 2410SOL    HW217700   4.492   9.582   1.110  2.5893  1.0831  0.9952
 2411SOL     OW17701   2.807   5.109   2.499 -0.0209 -0.5490  0.3746
 2411SOL    HW117702   2.842   5.025   2.458  0.4938  0.0840 -0.5034
 2411SOL    HW217703   2.777   5.091   2.593 -0.3979 -1.8231  0.0181
 2412SOL     OW17704   0.642   4.598   4.411 -0.1395  0.9136 -0.0608
 2412SOL    HW117705   0.595   4.584   4.324  0.2172  1.2594 -0.3083
 2412SOL    HW217706   0.731   4.640   4.395  0.1636  0.4578  0.4290
 2413SOL     OW17707   9.456   7.845   3.625 -0.2171  0.0600  0.6043
 2413SOL    HW117708   9.551   7.835   3.598 -0.2386  3.9971 -1.3258
 2413SOL    HW217709   9.450   7.869   3.722  0.5809 -2.0506  1.2028
 2414SOL     OW17710   1.286   0.303   1.125  0.1775 -0.4033  0.2398
 2414SOL    HW117711   1.276   0.308   1.026 -0.5888 -1.1666  0.2736
 2414SOL    HW217712   1.207   0.256   1.165  0.4297 -0.0216  1.2225
 2415SOL     OW17713   4.623   2.194   0.561  0.3475 -0.1822 -0.2769
 2415SOL    HW117714   4.683   2.165   0.636  0.9383  2.1640  0.1891
 2415SOL    HW217715   4.644   2.140   0.480 -0.6483 -3.1115  1.3420
 2416SOL     OW17716   9.987   4.257   2.799 -0.0780 -0.6967 -0.3867
 2416SOL    HW117717   9.923   4.183   2.820  0.9591 -1.4536  0.1760
 2416SOL    HW217718   9.978   4.283   2.703 -2.3706  0.3472  0.0807
 2417SOL     OW17719   4.016   7.051   1.765  0.0868 -0.2175  0.0968
 2417SOL    HW117720   4.070   6.993   1.704 -0.7048 -0.6747 -0.1798
 2417SOL    HW217721   3.971   7.123   1.712  1.5580  1.0413  0.5234
 2418SOL     OW17722   3.286   3.773   4.522 -0.0853 -0.0627 -0.4171
 2418SOL    HW117723   3.307   3.785   4.620 -0.6032 -0.3984 -0.2666
 2418SOL    HW217724   3.202   3.822   4.500  0.0206 -0.0074 -0.6942
 2419SOL     OW17725   1.428   9.440   1.685  0.0943 -0.2271 -0.0424
 2419SOL    HW117726   1.513   9.492   1.684 -0.4173  0.6235  0.0980
 2419SOL    HW217727   1.393   9.434   1.779 -0.4523  0.1871 -0.2126
 2420SOL     OW17728   1.711   7.266   1.282 -0.1405  0.1640 -0.2481
 2420SOL    HW117729   1.644   7.231   1.348 -1.1727 -0.9108 -1.8310
 2420SOL    HW217730   1.797   7.285   1.329 -1.5157  1.5153  1.8201
 2421SOL     OW17731   5.802   9.656   1.886  0.1406 -0.0462  0.1170
 2421SOL    HW117732   5.797   9.750   1.851  1.4824  0.3925  1.0813
 2421SOL    HW217733   5.888   9.643   1.935 -0.4114 -1.5342  0.7186
 2422SOL     OW17734   9.264   0.037   1.145  0.2566 -0.1163  0.2034
 2422SOL    HW117735   9.315   0.099   1.085  2.2015 -2.0982 -0.2578
 2422SOL    HW217736   9.260  -0.053   1.103 -1.6877 -0.5751  1.3262
 2423SOL     OW17737   8.095   6.930   3.705 -0.5024  0.0925  0.4135
 2423SOL    HW117738   8.191   6.912   3.685 -0.5002 -0.1816  0.6729
 2423SOL    HW217739   8.066   7.013   3.656  0.1185  0.6995  1.0577
 2424SOL     OW17740   2.662   8.194   4.012 -0.0221  0.6087  0.9436
 2424SOL    HW117741   2.696   8.279   3.972  1.7598 -0.4067  0.2310
 2424SOL    HW217742   2.566   8.182   3.989 -0.3156  2.4536  1.1115
 2425SOL     OW17743   6.901   8.555   1.036  0.1970  0.0006  0.2832
 2425SOL    HW117744   6.966   8.528   0.965  0.8583  0.1479  0.8233
 2425SOL    HW217745   6.948   8.611   1.105 -0.6445  0.6294  0.3593
 2426SOL     OW17746   4.259   4.382   0.843  0.0065  0.2030 -0.6468
 2426SOL    HW117747   4.313   4.376   0.926  2.1373 -0.6662 -2.0655
 2426SOL    HW217748   4.242   4.291   0.806 -0.9957  0.5740 -1.1436
 2427SOL     OW17749   2.329   3.090   4.250  0.2753 -0.1021  0.0853
 2427SOL    HW117750   2.338   2.992   4.265 -0.2038 -0.3153 -1.0054
 2427SOL    HW217751   2.417   3.128   4.219  0.3936 -0.2202  0.2729
 2428SOL     OW17752   1.275   5.107   4.136 -0.1058  0.0773  0.5079
 2428SOL    HW117753   1.315   5.141   4.221  0.5776 -1.6713  0.9120
 2428SOL    HW217754   1.287   5.175   4.064 -0.7076  1.5827  1.8018
 2429SOL     OW17755   3.635   0.076   4.658  0.1327  0.3728 -0.5879
 2429SOL    HW117756   3.630  -0.022   4.641 -0.0117  0.5843 -1.7488
 2429SOL    HW217757   3.585   0.098   4.742  2.9005 -0.9954  1.5067
 2430SOL     OW17758   5.513   9.850   2.339  0.5780 -0.5521 -0.5544
 2430SOL    HW117759   5.422   9.810   2.347  1.2211 -1.8612  0.3265
 2430SOL    HW217760   5.579   9.779   2.313  1.2957  0.4450 -1.5120
 2431SOL     OW17761   0.391   4.517   4.597  0.3365 -0.2865  0.2520
 2431SOL    HW117762   0.484   4.534   4.565 -0.5348  1.3202 -1.5905
 2431SOL    HW217763   0.350   4.604   4.626 -0.4255 -1.0559  1.5035
 2432SOL     OW17764   7.325   9.518   0.459  0.3344  0.1572  0.0225
 2432SOL    HW117765   7.227   9.520   0.442  0.6703  2.4020 -1.8308
 2432SOL    HW217766   7.352   9.598   0.512  1.1847 -0.4848  0.5822
 2433SOL     OW17767   3.699   2.895   2.851 -0.6155  0.2473  0.8082
 2433SOL    HW117768   3.654   2.831   2.788 -1.2104 -0.8070  2.2720
 2433SOL    HW217769   3.635   2.968   2.875 -1.4768 -1.0712  2.6299
 2434SOL     OW17770   7.325   0.298   3.329  0.0895  0.2865  0.0500
 2434SOL    HW117771   7.306   0.286   3.232  0.0017 -1.2218  0.2405
 2434SOL    HW217772   7.249   0.346   3.373 -0.8877 -1.0224 -0.1956
 2435SOL     OW17773   8.344   9.453   4.365 -0.4466  0.1247 -0.3615
 2435SOL    HW117774   8.245   9.444   4.348 -0.1968 -1.5370 -0.9517
 2435SOL    HW217775   8.358   9.494   4.455 -1.6811  1.2723 -0.6640
 2436SOL     OW17776   9.007   7.713   1.037  0.5659 -0.4030 -0.4910
 2436SOL    HW117777   9.080   7.646   1.018  0.1774 -0.8395 -0.4523
 2436SOL    HW217778   8.939   7.710   0.964 -0.4049 -1.3630  0.4457
 2437SOL     OW17779   0.411   7.288   1.967  0.0200  0.4707 -0.0859
 2437SOL    HW117780   0.406   7.244   1.877  0.9648  0.6439 -0.2355
 2437SOL    HW217781   0.497   7.262   2.012 -0.5283  0.2493  0.8445
 2438SOL     OW17782   5.803   7.018   2.099 -0.6477  0.7069 -0.0563
 2438SOL    HW117783   5.792   7.105   2.149 -1.1669  1.7920 -2.0070
 2438SOL    HW217784   5.730   7.009   2.031  0.3554 -0.4826 -0.9957
 2439SOL     OW17785   4.543   0.550   2.605  0.5769  0.0657 -0.0301
 2439SOL    HW117786   4.639   0.526   2.589  1.4263  2.7880  0.6526
 2439SOL    HW217787   4.510   0.605   2.528  0.2461  0.9935  0.7724
 2440SOL     OW17788   3.570   9.617   0.884  0.4550  0.3767  0.5647
 2440SOL    HW117789   3.523   9.621   0.796  2.4878 -2.3634 -0.6937
 2440SOL    HW217790   3.651   9.675   0.882  0.7884 -0.0913  0.4455
 2441SOL     OW17791   3.356   1.627   2.926 -0.6050  0.5682  0.0666
 2441SOL    HW117792   3.279   1.628   2.861 -3.0468 -1.1291  2.7630
 2441SOL    HW217793   3.368   1.718   2.965 -2.4944  0.5046  0.9005
 2442SOL     OW17794   6.788   9.442   2.389 -0.5021 -0.0241 -0.8340
 2442SOL    HW117795   6.862   9.391   2.433  0.2077  0.3853 -1.5618
 2442SOL    HW217796   6.796   9.539   2.412 -0.3310  0.1423 -1.5869
 2443SOL     OW17797   8.449   7.378   3.671  0.3193  0.1526 -0.0819
 2443SOL    HW117798   8.486   7.365   3.762  1.4951  0.8153 -0.4621
 2443SOL    HW217799   8.422   7.289   3.633  2.3630 -0.4675 -0.1564
 2444SOL     OW17800   4.478   8.122   2.361  0.0005 -0.9247  0.4948
 2444SOL    HW117801   4.482   8.041   2.419 -0.4850 -2.2073 -1.2458
 2444SOL    HW217802   4.413   8.187   2.400 -1.3841 -2.3692  0.6502
 2445SOL     OW17803   2.446   6.261   1.494  0.3709  0.2908 -0.1913
 2445SOL    HW117804   2.412   6.304   1.410 -0.7351 -1.4226 -0.6291
 2445SOL    HW217805   2.485   6.172   1.473 -0.8996 -0.6297  1.2616
 2446SOL     OW17806   1.036   7.174   1.029  0.1169  0.0906  0.5159
 2446SOL    HW117807   1.130   7.184   1.061 -0.4069  1.0768  1.7743
 2446SOL    HW217808   0.983   7.121   1.096 -1.4214  3.6148  2.2396
 2447SOL     OW17809   2.540   1.855   2.850 -0.0634  0.3305  0.0526
 2447SOL    HW117810   2.630   1.814   2.869 -0.6141 -0.9955 -0.1936
 2447SOL    HW217811   2.468   1.788   2.866 -0.8367  0.5009 -2.5232
 2448SOL     OW17812   9.518   0.225   2.481  0.2954  0.3264  0.1013
 2448SOL    HW117813   9.467   0.192   2.560 -0.2472  0.3187 -0.2470
 2448SOL    HW217814   9.465   0.297   2.435  1.0625  1.0601  0.3370
 2449SOL     OW17815   7.746   8.338   3.116 -0.2673 -0.1247 -1.1060
 2449SOL    HW117816   7.712   8.430   3.097  2.0088  0.7995 -0.8882
 2449SOL    HW217817   7.825   8.318   3.058  1.0222 -0.8291  0.8167
 2450SOL     OW17818   5.354   0.280   2.982  0.7553  0.3383 -0.5930
 2450SOL    HW117819   5.425   0.254   3.048  0.0029  0.8326  0.4403
 2450SOL    HW217820   5.265   0.280   3.028  0.0673 -0.4103 -1.9093
 2451SOL     OW17821   6.759   8.141   3.560 -0.4895  0.1563 -0.4169
 2451SOL    HW117822   6.670   8.131   3.517 -1.1641  0.5470  0.8653
 2451SOL    HW217823   6.818   8.065   3.531 -1.2073 -0.0822 -1.3049
 2452SOL     OW17824   2.095   7.320   0.412  0.2366 -0.5457 -0.5446
 2452SOL    HW117825   2.015   7.379   0.412  0.3343 -0.3861 -2.6312
 2452SOL    HW217826   2.177   7.375   0.426  0.1497 -0.4698 -0.3266
 2453SOL     OW17827   0.753   7.904   0.328 -0.0756 -0.5032 -0.3997
 2453SOL    HW117828   0.847   7.913   0.297  1.2576 -0.1186  3.5592
 2453SOL    HW217829   0.734   7.973   0.398 -3.2603 -0.7496 -0.9174
 2454SOL     OW17830   4.249   7.718   2.971 -0.5997  0.1946 -0.3681
 2454SOL    HW117831   4.159   7.680   2.995 -0.8566  0.5825 -0.7069
 2454SOL    HW217832   4.272   7.792   3.035  0.3646 -1.1986  0.9310
 2455SOL     OW17833   3.508   2.058   2.013  0.3928  0.9677  0.1952
 2455SOL    HW117834   3.595   2.039   1.968 -0.2214 -0.4884 -0.4104
 2455SOL    HW217835   3.522   2.060   2.112  0.7856 -1.1034  0.1970
 2456SOL     OW17836   1.762   0.176   4.050  0.6831 -0.6567  0.0846
 2456SOL    HW117837   1.794   0.108   4.116  0.5369  0.4336  1.2995
 2456SOL    HW217838   1.754   0.265   4.095 -2.3936 -0.5277 -0.6076
 2457SOL     OW17839   6.555   8.705   1.617  0.9875 -0.3054  0.2023
 2457SOL    HW117840   6.496   8.628   1.593  1.3912 -0.8751  1.0309
 2457SOL    HW217841   6.581   8.699   1.713  0.1933  1.4401  0.5272
 2458SOL     OW17842   6.544   9.534   4.096  0.1031 -0.3091 -0.3755
 2458SOL    HW117843   6.596   9.489   4.168 -0.8746 -1.7983 -0.5749
 2458SOL    HW217844   6.534   9.631   4.118  1.1179 -0.4345  0.7155
 2459SOL     OW17845   9.036   5.386   0.731  0.5202 -0.3594  0.1674
 2459SOL    HW117846   9.068   5.376   0.825  0.4813  0.6681  0.2933
 2459SOL    HW217847   8.992   5.475   0.720  0.6147 -0.4336 -0.8528
 2460SOL     OW17848   7.551   0.487   1.151  0.2019  0.3772  0.6048
 2460SOL    HW117849   7.534   0.583   1.173 -1.2071  0.2869 -0.1107
 2460SOL    HW217850   7.553   0.474   1.052 -1.3992 -0.6374  0.6832
 2461SOL     OW17851   3.095   1.153   2.174  0.2574 -0.1583 -0.5447
 2461SOL    HW117852   3.122   1.058   2.158 -0.6375 -0.2907 -1.3475
 2461SOL    HW217853   3.113   1.177   2.269  0.2287 -1.2170 -0.2613
 2462SOL     OW17854   2.209   0.813   0.879 -0.3953 -0.0298  0.1538
 2462SOL    HW117855   2.288   0.774   0.832  0.4125 -0.1808  1.5918
 2462SOL    HW217856   2.240   0.864   0.960 -1.6924  0.8063  0.1483
 2463SOL     OW17857   1.775   2.759   0.917  0.2572 -0.0046 -0.6161
 2463SOL    HW117858   1.717   2.841   0.919 -1.8791 -1.4394 -2.0321
 2463SOL    HW217859   1.852   2.775   0.856 -0.2509  0.8887 -1.0386
 2464SOL     OW17860   7.717   9.175   3.690 -0.0438  0.3304  0.2944
 2464SOL    HW117861   7.665   9.199   3.607  0.0556 -1.7419 -0.3960
 2464SOL    HW217862   7.659   9.187   3.770 -0.7626  0.5131 -0.2434
 2465SOL     OW17863   2.109   3.081   3.840  0.2641 -0.1012  0.2660
 2465SOL    HW117864   2.042   3.016   3.875 -0.5621  0.4554 -0.2567
 2465SOL    HW217865   2.174   3.104   3.912 -0.3641 -0.3181  0.9037
 2466SOL     OW17866   9.091   7.487   1.724  0.1293  0.1437 -0.1591
 2466SOL    HW117867   9.059   7.492   1.629  1.7766  0.7855 -0.7005
 2466SOL    HW217868   9.135   7.398   1.739 -1.5744 -0.5982  0.4804
 2467SOL     OW17869   2.767   8.482   4.650 -0.4180 -0.4499  0.1442
 2467SOL    HW117870   2.851   8.471   4.596 -0.5712 -0.1241 -0.1592
 2467SOL    HW217871   2.778   8.558   4.714 -1.5409  1.5102 -1.9388
 2468SOL     OW17872   1.834   1.793   2.540 -0.3977 -0.0096 -0.4539
 2468SOL    HW117873   1.798   1.881   2.570 -0.2060 -0.6965  1.9283
 2468SOL    HW217874   1.908   1.807   2.475  1.0264  1.6610  1.4764
 2469SOL     OW17875   1.232   8.751   0.617  0.3205 -0.4304  0.1812
 2469SOL    HW117876   1.162   8.741   0.545  0.9889  0.5796 -0.6208
 2469SOL    HW217877   1.187   8.755   0.706 -0.6255 -0.2205 -0.2956
 2470SOL     OW17878   4.806   9.940   2.046  0.3186 -0.0465 -0.4712
 2470SOL    HW117879   4.816  10.023   2.102  2.2989 -0.1142 -0.6637
 2470SOL    HW217880   4.804   9.966   1.949  1.0584 -0.2110 -0.5369
 2471SOL     OW17881   0.550   2.278   3.182  0.1378 -0.3523 -0.4392
 2471SOL    HW117882   0.630   2.300   3.126  0.3165  0.7854  0.2501
 2471SOL    HW217883   0.563   2.313   3.275 -1.6115  0.8145 -0.6106
 2472SOL     OW17884   3.297   8.734   0.462  0.0909 -0.1659 -0.2163
 2472SOL    HW117885   3.333   8.647   0.493  1.4290  0.8892  1.2612
 2472SOL    HW217886   3.215   8.719   0.407  1.1018 -2.4215 -1.1573
 2473SOL     OW17887   1.291   9.655   2.657 -0.5294  0.1865  0.2845
 2473SOL    HW117888   1.340   9.592   2.596 -1.2764 -1.0455  0.9235
 2473SOL    HW217889   1.213   9.694   2.609 -1.2670 -0.9796  0.5170
 2474SOL     OW17890   2.244   9.336   3.837 -0.3259 -0.0477  0.2688
 2474SOL    HW117891   2.291   9.397   3.773  0.0050 -0.3317  0.2448
 2474SOL    HW217892   2.146   9.334   3.815 -0.1645 -0.3893 -0.4160
 2475SOL     OW17893   4.089   1.894   1.613  0.3184  0.3705  0.9662
 2475SOL    HW117894   4.034   1.811   1.624 -0.6441  0.1569 -4.0973
 2475SOL    HW217895   4.161   1.878   1.545  2.6071  2.6107  2.7188
 2476SOL     OW17896   3.857   2.449   1.481  0.1807 -0.0898  0.0824
 2476SOL    HW117897   3.879   2.534   1.530  1.2845 -0.3072 -0.0047
 2476SOL    HW217898   3.833   2.378   1.546  2.5798 -0.6467  0.4065
 2477SOL     OW17899   0.728   5.246   3.146  0.1803  0.0846 -0.3274
 2477SOL    HW117900   0.773   5.302   3.076  0.4668  0.0720 -0.1516
 2477SOL    HW217901   0.642   5.289   3.173 -0.4555 -0.4402 -1.4542
 2478SOL     OW17902   6.083   8.093   2.773  0.9282  0.2847  0.0764
 2478SOL    HW117903   6.168   8.139   2.798  1.0578  0.2412 -0.2764
 2478SOL    HW217904   6.102   7.997   2.752  0.5886 -0.0551  1.2680
 2479SOL     OW17905   6.308   8.666   3.293 -0.3315  0.1273  0.1416
 2479SOL    HW117906   6.384   8.642   3.233  0.1290  0.0793  0.7349
 2479SOL    HW217907   6.325   8.630   3.385 -2.3290 -2.2283 -0.3460
 2480SOL     OW17908   4.256   0.003   4.286  0.2721 -0.0719  0.4353
 2480SOL    HW117909   4.190   0.045   4.348 -0.2399  1.1766 -0.9458
 2480SOL    HW217910   4.212  -0.018   4.199  1.5164  0.1200 -0.2525
 2481SOL     OW17911   5.074   7.166   3.509  0.6052 -0.1448  0.5121
 2481SOL    HW117912   5.159   7.158   3.456  1.3554 -0.1151  1.6959
 2481SOL    HW217913   5.095   7.164   3.606 -0.8472 -0.9867  0.8219
 2482SOL     OW17914   3.175   7.585   2.848 -0.3948 -0.0188 -0.4607
 2482SOL    HW117915   3.202   7.669   2.895  0.7249 -0.8966  0.4865
 2482SOL    HW217916   3.136   7.521   2.913  0.4453 -0.9434 -0.8515
 2483SOL     OW17917   3.176   1.662   1.301  0.3050  0.1913 -0.9004
 2483SOL    HW117918   3.227   1.658   1.215 -0.1738 -1.6960 -1.1229
 2483SOL    HW217919   3.133   1.573   1.318  0.1868  0.6231  1.1744
 2484SOL     OW17920   8.753   8.612   1.736  0.2002  0.0390 -0.2198
 2484SOL    HW117921   8.843   8.575   1.713 -0.1705 -2.3373  1.8931
 2484SOL    HW217922   8.702   8.632   1.652  1.3145 -2.0825 -1.4428
 2485SOL     OW17923   6.400   9.777   4.418  0.5086 -0.1196 -0.0446
 2485SOL    HW117924   6.405   9.763   4.319  2.4368  0.7509 -0.0942
 2485SOL    HW217925   6.385   9.874   4.437  0.5386 -0.2262  0.5270
 2486SOL     OW17926   9.719   6.683   4.485 -0.0970 -0.2262 -0.0276
 2486SOL    HW117927   9.711   6.750   4.559 -0.0681  1.5595 -1.6080
 2486SOL    HW217928   9.631   6.636   4.473 -0.2744 -0.0942  0.7292
 2487SOL     OW17929   0.779   7.149   3.744  0.1226  0.1831 -0.2112
 2487SOL    HW117930   0.760   7.239   3.705 -1.2027 -0.1405 -0.3368
 2487SOL    HW217931   0.878   7.134   3.746  0.3137  1.2563 -1.0472
 2488SOL     OW17932   8.290   9.212   0.824 -0.5656  0.8551 -0.2019
 2488SOL    HW117933   8.330   9.141   0.766 -2.5464 -0.2460 -0.2576
 2488SOL    HW217934   8.230   9.269   0.769 -2.3051 -0.0794  0.7063
 2489SOL     OW17935   5.885   9.211   2.797 -0.3811 -0.2049 -0.2819
 2489SOL    HW117936   5.867   9.255   2.885 -0.8862 -0.1116 -0.4307
 2489SOL    HW217937   5.865   9.275   2.723 -0.2449 -0.3858 -0.4759
 2490SOL     OW17938   1.101   2.198   1.014  0.1689 -0.4573 -0.5408
 2490SOL    HW117939   1.073   2.197   0.918 -2.4813  3.0973  0.0818
 2490SOL    HW217940   1.027   2.163   1.071 -0.1641  1.8439  0.5199
 2491SOL     OW17941   3.301   3.693   1.294  0.1270 -0.4812 -0.2184
 2491SOL    HW117942   3.390   3.686   1.249 -0.4892  0.4978 -1.6446
 2491SOL    HW217943   3.272   3.789   1.296 -0.9712 -0.8120  0.0708
 2492SOL     OW17944   0.049   4.675   4.567  0.7036  0.0887 -0.8777
 2492SOL    HW117945   0.071   4.634   4.478  0.5449  0.9435 -1.3143
 2492SOL    HW217946   0.068   4.773   4.564  1.8048 -0.0849  0.4129
 2493SOL     OW17947   2.559   2.426   2.011 -0.3447 -0.0066  0.2376
 2493SOL    HW117948   2.574   2.518   2.048  2.7030 -0.2196 -0.3847
 2493SOL    HW217949   2.544   2.433   1.912  1.0478 -0.2533 -0.0015
 2494SOL     OW17950   3.579   9.346   0.290  0.3563 -0.2785 -0.0904
 2494SOL    HW117951   3.611   9.428   0.339 -1.7202  0.1186  0.6713
 2494SOL    HW217952   3.559   9.274   0.357 -0.8749 -0.3063 -0.4797
 2495SOL     OW17953   1.354   8.341   3.881  0.3525  0.4967 -0.4781
 2495SOL    HW117954   1.446   8.311   3.855  0.1667 -0.4606 -0.0224
 2495SOL    HW217955   1.351   8.441   3.878  1.6864  0.5843  0.4091
 2496SOL     OW17956   0.098   0.224   2.454  0.3220  0.2184  0.0087
 2496SOL    HW117957   0.085   0.259   2.546 -1.0336  2.2584 -0.9343
 2496SOL    HW217958   0.189   0.181   2.447  0.0212 -0.9040  2.5429
 2497SOL     OW17959   4.179   8.088   3.426  0.1934 -0.1951  0.0271
 2497SOL    HW117960   4.234   8.137   3.359 -0.8066  1.6957  0.5551
 2497SOL    HW217961   4.205   8.116   3.519  0.2652 -1.3857  0.3818
 2498SOL     OW17962   8.986   6.885   1.462  0.0314 -0.3112 -0.1829
 2498SOL    HW117963   8.933   6.935   1.530  0.7741  0.6868 -0.3260
 2498SOL    HW217964   8.936   6.803   1.434  0.4831 -1.6455  2.8024
 2499SOL     OW17965   4.132   7.635   1.412 -0.5838  0.3678  0.3906
 2499SOL    HW117966   4.145   7.727   1.373 -0.0125  1.1454  2.3477
 2499SOL    HW217967   4.037   7.625   1.442 -1.5321 -0.9134 -2.8189
 2500SOL     OW17968   2.835   3.727   1.343 -0.3240 -0.0229 -0.6953
 2500SOL    HW117969   2.827   3.758   1.248 -0.6228  2.2541  0.0644
 2500SOL    HW217970   2.807   3.800   1.405 -1.9877 -2.1189  1.1140
 2501SOL     OW17971   9.835   0.861   3.878 -0.0998  0.0964 -0.2913
 2501SOL    HW117972   9.810   0.764   3.872  2.0290 -0.4586 -0.5806
 2501SOL    HW217973   9.848   0.897   3.786  0.2133  0.3675 -0.1382
 2502SOL     OW17974   2.656   9.455   2.946 -0.1630 -0.5536 -0.2254
 2502SOL    HW117975   2.646   9.364   2.986  0.3647  0.1547  1.5417
 2502SOL    HW217976   2.710   9.448   2.862  0.4767 -1.7745  0.2693
 2503SOL     OW17977   0.636   9.243   0.419 -0.1169  0.4435  0.6938
 2503SOL    HW117978   0.731   9.266   0.440  0.3689  0.8572 -1.8340
 2503SOL    HW217979   0.613   9.277   0.328 -2.6817  0.3084  1.2702
 2504SOL     OW17980   0.808   2.152   0.185  0.7553 -0.2635  0.3593
 2504SOL    HW117981   0.751   2.210   0.127  0.1360 -1.1667  0.0539
 2504SOL    HW217982   0.835   2.070   0.134 -0.4785 -1.4725  1.6034
 2505SOL     OW17983   0.201   3.301   1.714 -0.2524 -0.7404 -0.0141
 2505SOL    HW117984   0.176   3.362   1.638  0.2640 -1.6055 -0.8862
 2505SOL    HW217985   0.215   3.208   1.679 -0.9104 -1.3443  1.2831
 2506SOL     OW17986   1.160   0.409   3.488  0.2557  0.1732 -0.4473
 2506SOL    HW117987   1.087   0.392   3.555 -0.9485  0.2324 -1.7135
 2506SOL    HW217988   1.206   0.495   3.510 -0.2111  0.2535  0.2266
 2507SOL     OW17989   9.602   9.726   4.457 -0.2781  0.0228 -0.2891
 2507SOL    HW117990   9.578   9.648   4.514  0.9350  0.4618  0.8524
 2507SOL    HW217991   9.674   9.700   4.392  1.9852  0.8233  1.8284
 2508SOL     OW17992   0.563   0.640   0.760  0.2985 -0.1236 -0.1845
 2508SOL    HW117993   0.624   0.677   0.831 -1.6107 -1.9753  2.5387
 2508SOL    HW217994   0.479   0.693   0.757 -0.2772 -0.9941  0.0973
 2509SOL     OW17995   2.107   4.180   0.825 -0.1362 -0.4910 -0.2304
 2509SOL    HW117996   2.031   4.191   0.890 -0.4986 -0.3465 -0.6737
 2509SOL    HW217997   2.071   4.186   0.731  0.2921 -1.3121 -0.4434
 2510SOL     OW17998   8.048   6.983   3.067 -0.3282 -0.0199  0.3702
 2510SOL    HW117999   8.011   6.997   3.159 -0.4102  2.3200  0.0284
 2510SOL    HW218000   7.988   7.027   3.000  1.4310  1.1839 -0.4708
 2511SOL     OW18001   3.212   9.955   0.259 -0.0779  0.3095 -0.6156
 2511SOL    HW118002   3.198   9.909   0.172 -0.8095  0.6290 -0.6625
 2511SOL    HW218003   3.306   9.991   0.263  0.1814 -0.3140 -0.9780
 2512SOL     OW18004   8.167   8.468   2.474 -0.3418 -0.3669 -0.2994
 2512SOL    HW118005   8.088   8.512   2.432  0.1690  1.4767  0.6415
 2512SOL    HW218006   8.231   8.438   2.403 -0.2954  1.1529 -0.9067
 2513SOL     OW18007   2.302   1.575   3.317  0.2763 -0.0990  0.2526
 2513SOL    HW118008   2.396   1.604   3.298 -0.7077  2.2599 -1.2754
 2513SOL    HW218009   2.247   1.655   3.341 -1.3243 -1.4727  1.2440
 2514SOL     OW18010   3.072   0.699   4.434  0.7208 -0.0100 -0.4039
 2514SOL    HW118011   3.086   0.751   4.350 -0.5063  0.5679 -0.2604
 2514SOL    HW218012   3.003   0.745   4.490  0.2454 -1.3410  0.1173
 2515SOL     OW18013   9.910   9.424   4.178  0.1477 -0.1958  0.1906
 2515SOL    HW118014   9.893   9.466   4.089 -0.0820  3.3928  1.8207
 2515SOL    HW218015   9.828   9.375   4.208 -0.9602  1.4298 -0.1074
 2516SOL     OW18016   1.613   9.253   3.138 -0.6610  0.2976  0.6484
 2516SOL    HW118017   1.623   9.257   3.038 -0.1301 -0.2608  0.6766
 2516SOL    HW218018   1.624   9.345   3.175  0.3911  0.3298  0.2966
 2517SOL     OW18019   0.994   4.643   3.184 -0.4679  0.1807  0.4455
 2517SOL    HW118020   1.062   4.709   3.151  1.0133 -1.0853  0.8871
 2517SOL    HW218021   0.917   4.639   3.119  0.8602  0.1235 -1.1672
 2518SOL     OW18022   2.763   5.151   4.343 -0.0589 -0.3507  0.5674
 2518SOL    HW118023   2.851   5.116   4.375  0.2464  0.1200  0.2428
 2518SOL    HW218024   2.773   5.245   4.312 -0.7857 -0.1208  1.0020
 2519SOL     OW18025   1.605   1.856   4.647 -0.4328  0.0846 -0.3261
 2519SOL    HW118026   1.561   1.935   4.690  0.5310  0.8411 -0.7017
 2519SOL    HW218027   1.539   1.807   4.591 -0.9266  0.8909 -0.4548
 2520SOL     OW18028   9.961   8.986   1.886  0.3638 -0.4413 -0.9082
 2520SOL    HW118029   9.980   9.084   1.898  1.8369 -0.6467 -1.5216
 2520SOL    HW218030   9.986   8.959   1.793 -0.9270 -1.2075 -1.0426
 2521SOL     OW18031   2.584   3.181   0.922  0.2058 -0.0353 -0.1295
 2521SOL    HW118032   2.613   3.097   0.877  1.7129  0.1934  0.3967
 2521SOL    HW218033   2.484   3.183   0.928  0.1343 -1.4625 -0.7389
 2522SOL     OW18034   7.990   7.227   3.619 -0.3001 -0.3749  0.3116
 2522SOL    HW118035   7.899   7.253   3.584 -0.6043 -1.0979  0.5511
 2522SOL    HW218036   7.986   7.220   3.719 -0.1647 -1.0856  0.2721
 2523SOL     OW18037   8.015   0.045   0.189  0.1620  0.2375  0.0671
 2523SOL    HW118038   7.938  -0.015   0.213  0.9396 -0.3233  1.2176
 2523SOL    HW218039   7.999   0.136   0.227 -0.2577  0.3154 -0.2910
 2524SOL     OW18040   8.435   9.049   0.237  0.2496 -0.6589 -0.4523
 2524SOL    HW118041   8.364   9.006   0.294  0.1811  0.5344  0.3853
 2524SOL    HW218042   8.419   9.026   0.141 -0.8205 -1.0319 -0.1923
 2525SOL     OW18043   0.604   8.282   2.734  0.1519  0.3769  0.0916
 2525SOL    HW118044   0.674   8.340   2.692 -0.3157 -0.6357 -2.1974
 2525SOL    HW218045   0.632   8.187   2.730 -0.6506  0.1110  0.6226
 2526SOL     OW18046   0.957   7.814   4.578  0.6566 -0.3162 -0.3338
 2526SOL    HW118047   0.949   7.737   4.515 -0.8464 -0.8015  0.4367
 2526SOL    HW218048   0.969   7.899   4.526 -1.0806 -0.6463 -1.3009
 2527SOL     OW18049   0.560   0.646   2.453 -0.1883  0.4154  0.2623
 2527SOL    HW118050   0.473   0.623   2.498  0.3981  0.4764  1.4653
 2527SOL    HW218051   0.543   0.711   2.379 -1.2508 -0.0885  0.0523
 2528SOL     OW18052   4.536   2.697   1.233 -0.3785 -0.2064 -0.5924
 2528SOL    HW118053   4.592   2.690   1.151  0.0440 -1.0156 -0.2421
 2528SOL    HW218054   4.500   2.606   1.256 -0.7234  0.0683 -0.0473
 2529SOL     OW18055   9.007   0.012   0.525  0.1437  0.6051  0.4192
 2529SOL    HW118056   9.052   0.077   0.587  1.5441  0.6811 -0.6638
 2529SOL    HW218057   9.036   0.029   0.431 -0.2434 -0.9557  0.0018
 2530SOL     OW18058   2.832   7.138   3.228 -0.5873  0.1341 -0.4506
 2530SOL    HW118059   2.930   7.152   3.214 -0.3534 -0.2279  0.7403
 2530SOL    HW218060   2.803   7.186   3.311 -1.1328 -0.8991 -0.0384
 2531SOL     OW18061   3.883   2.250   4.725  0.3708  0.1863  0.5581
 2531SOL    HW118062   3.854   2.343   4.747  0.0496  0.0293  0.8006
 2531SOL    HW218063   3.802   2.194   4.708  0.4989 -0.4542  2.0002
 2532SOL     OW18064   7.702   0.433   1.762 -0.3614  0.0598 -0.4575
 2532SOL    HW118065   7.639   0.510   1.769 -0.4333 -0.1147  0.9910
 2532SOL    HW218066   7.759   0.429   1.844  1.8067  0.4451 -1.9069
 2533SOL     OW18067   0.893   3.704   4.377  0.6051 -0.3508  0.1169
 2533SOL    HW118068   0.972   3.743   4.330 -0.0470  2.5420  1.2837
 2533SOL    HW218069   0.917   3.688   4.473 -1.2392  4.1102  1.4342
 2534SOL     OW18070   3.924   4.176   4.202  0.7382 -0.3779  0.6136
 2534SOL    HW118071   3.970   4.253   4.245 -1.8070  1.6027 -0.0807
 2534SOL    HW218072   3.941   4.178   4.103  2.6530 -2.1498  0.8784
 2535SOL     OW18073   4.002   8.418   1.524 -0.1008 -0.4941  0.4392
 2535SOL    HW118074   3.972   8.460   1.438 -0.9143 -3.6015 -0.8795
 2535SOL    HW218075   4.100   8.397   1.518 -0.3125 -1.3942 -0.0770
 2536SOL     OW18076   1.328   5.623   2.485  0.1659 -0.1186  0.0870
 2536SOL    HW118077   1.327   5.582   2.576 -0.2799 -2.6448 -1.0057
 2536SOL    HW218078   1.421   5.621   2.448  0.8880  3.3893  1.5006
 2537SOL     OW18079   2.948   8.114   2.702  0.3562  0.1535 -0.4753
 2537SOL    HW118080   3.038   8.088   2.665 -1.0727 -1.6591 -2.8487
 2537SOL    HW218081   2.911   8.038   2.755 -1.0360 -0.2481 -1.9925
 2538SOL     OW18082   3.381   7.667   4.585  0.3507  0.3903 -0.4572
 2538SOL    HW118083   3.420   7.592   4.531 -1.2786 -0.0797 -1.0060
 2538SOL    HW218084   3.382   7.643   4.682  1.7737  0.5539 -0.4190
 2539SOL     OW18085   0.872   5.948   0.223  0.4830  0.2193  0.6996
 2539SOL    HW118086   0.843   6.043   0.215  1.1473  0.5246  1.8379
 2539SOL    HW218087   0.954   5.934   0.166  1.1848  0.6792  1.5786
 2540SOL     OW18088   4.605   9.696   4.403  0.1309  0.1776  0.0104
 2540SOL    HW118089   4.650   9.730   4.320  1.3847  0.1997  0.6805
 2540SOL    HW218090   4.551   9.615   4.380  0.2279  0.3599 -0.8875
 2541SOL     OW18091   0.874   1.861   2.729  0.6948 -0.1500 -0.6251
 2541SOL    HW118092   0.871   1.872   2.828 -0.0579  0.9009 -0.7662
 2541SOL    HW218093   0.933   1.783   2.707  4.0432  1.9486  0.4619
 2542SOL     OW18094   2.717   7.471   0.991 -0.3529  0.6456 -0.2618
 2542SOL    HW118095   2.628   7.514   1.005 -0.8570 -0.1423 -1.0123
 2542SOL    HW218096   2.770   7.525   0.926  0.0901  1.6295  0.9023
 2543SOL     OW18097   1.420   0.858   1.791 -0.4929 -0.4835 -0.4793
 2543SOL    HW118098   1.422   0.842   1.889 -1.2925 -0.6658 -0.4883
 2543SOL    HW218099   1.490   0.802   1.746 -0.1343 -0.4044 -0.0215
 2544SOL     OW18100   9.314   0.161   2.680 -0.1403  0.5856  0.2738
 2544SOL    HW118101   9.350   0.074   2.714 -0.1344  0.6944  0.5491
 2544SOL    HW218102   9.275   0.213   2.757 -1.5826  0.1327 -0.1204
 2545SOL     OW18103   0.421   5.545   2.777 -0.3512 -0.1836 -0.3569
 2545SOL    HW118104   0.375   5.548   2.866 -0.7070  0.9126 -0.5635
 2545SOL    HW218105   0.356   5.572   2.705  0.3729  0.5274 -0.7547
 2546SOL     OW18106   9.906   5.827   0.441 -0.4683  0.1052 -0.1844
 2546SOL    HW118107   9.894   5.755   0.509  1.7652 -0.9266 -0.8170
 2546SOL    HW218108   9.836   5.818   0.369 -1.5316 -0.0724  0.8636
 2547SOL     OW18109   2.859   1.733   4.654 -0.3318 -0.1003 -0.1078
 2547SOL    HW118110   2.830   1.763   4.745 -0.6484 -0.0084 -0.2362
 2547SOL    HW218111   2.873   1.812   4.595 -2.3313 -0.2256 -0.7951
 2548SOL     OW18112   2.425   0.682   1.181 -0.3303  0.2786 -0.1524
 2548SOL    HW118113   2.473   0.629   1.251 -1.3571 -1.7510 -0.9432
 2548SOL    HW218114   2.338   0.713   1.219  0.0499  0.9780  0.1502
 2549SOL     OW18115   9.335   8.893   1.979  0.1917 -0.6823 -0.3865
 2549SOL    HW118116   9.321   8.981   1.934 -1.4386 -0.1917  0.9944
 2549SOL    HW218117   9.430   8.865   1.971  0.7265  1.2242 -0.8001
 2550SOL     OW18118   9.043   7.410   0.677 -0.7465  0.1178 -0.0824
 2550SOL    HW118119   9.118   7.400   0.613 -2.2768  0.8646 -2.0517
 2550SOL    HW218120   9.045   7.336   0.744  0.6532 -0.8926 -1.2380
 2551SOL     OW18121   9.243   7.013   3.280  0.0637  0.0775 -0.6908
 2551SOL    HW118122   9.194   6.982   3.362 -0.5888  1.9572 -0.3429
 2551SOL    HW218123   9.215   6.958   3.202  0.9470 -1.9668  0.3977
 2552SOL     OW18124   2.995   1.933   4.334  0.1461  0.0670  0.5952
 2552SOL    HW118125   2.941   2.017   4.336 -0.3676 -0.2637  0.7367
 2552SOL    HW218126   3.040   1.921   4.423  0.1412  0.1410  0.6076
 2553SOL     OW18127   8.496   0.233   1.336  0.3780  0.1124  0.6191
 2553SOL    HW118128   8.435   0.312   1.326  0.7719  0.4116  0.5847
 2553SOL    HW218129   8.531   0.207   1.246 -0.1162 -0.3938  0.5681
 2554SOL     OW18130   7.753   8.577   0.443  0.7222  0.4340 -0.0206
 2554SOL    HW118131   7.807   8.495   0.461  0.4093  0.5330  1.4236
 2554SOL    HW218132   7.790   8.624   0.363  0.8801 -1.1189 -0.8706
 2555SOL     OW18133   7.066   0.224   2.827 -0.1610  0.3792 -0.4666
 2555SOL    HW118134   7.092   0.217   2.730  2.1423 -0.3456  0.1735
 2555SOL    HW218135   6.981   0.172   2.842  0.6123 -1.2985 -1.6972
 2556SOL     OW18136   9.795   5.184   1.209 -0.6829 -0.2017  0.2790
 2556SOL    HW118137   9.731   5.256   1.183  0.0885 -0.5276 -2.6152
 2556SOL    HW218138   9.888   5.213   1.190 -0.1696 -1.0068  1.4597
 2557SOL     OW18139   1.091   7.760   0.829  0.1703  1.3537  0.4055
 2557SOL    HW118140   1.039   7.823   0.887 -2.2647 -1.6714  1.6438
 2557SOL    HW218141   1.129   7.687   0.886 -2.1581 -1.6217 -1.7630
 2558SOL     OW18142   9.255   7.089   3.618 -0.2002  0.5381 -0.0435
 2558SOL    HW118143   9.218   7.090   3.711 -0.6497  4.6478 -0.1912
 2558SOL    HW218144   9.314   7.169   3.604  2.1440 -1.4961 -2.4587
 2559SOL     OW18145   2.619   5.216   1.537 -0.6805  0.1221  0.4019
 2559SOL    HW118146   2.531   5.191   1.496 -1.6130  1.1756  1.7372
 2559SOL    HW218147   2.667   5.133   1.567 -1.4273 -0.4187  0.1035
 2560SOL     OW18148   9.648   6.439   3.044  0.5459  0.4294  0.4614
 2560SOL    HW118149   9.629   6.356   2.991 -0.7737  0.6431  0.5750
 2560SOL    HW218150   9.737   6.432   3.087  0.8765 -0.5026 -0.3573
 2561SOL     OW18151   2.472   2.291   1.093  0.7199  0.2749  0.2035
 2561SOL    HW118152   2.394   2.245   1.134  1.1941 -1.4897 -0.8117
 2561SOL    HW218153   2.507   2.360   1.156 -1.2509  0.6389  0.9219
 2562SOL     OW18154   4.787   9.478   1.164  0.3870 -0.1097 -0.4987
 2562SOL    HW118155   4.790   9.440   1.256  0.2688 -0.9335 -0.8270
 2562SOL    HW218156   4.846   9.423   1.104  0.8275  0.6951 -0.8112
 2563SOL     OW18157   4.718   5.571   1.724 -0.2459  0.2784  0.1230
 2563SOL    HW118158   4.809   5.583   1.684  0.2078 -2.9363  0.0480
 2563SOL    HW218159   4.726   5.554   1.822 -0.6687 -1.3238 -0.1154
 2564SOL     OW18160   0.722   1.922   1.590  0.6463 -0.0674  0.2591
 2564SOL    HW118161   0.655   1.854   1.618  1.2122 -0.0256  1.7353
 2564SOL    HW218162   0.690   2.013   1.613  1.2298 -0.0525  1.0468
 2565SOL     OW18163   1.078   9.694   3.661 -0.0800 -0.4141  0.4251
 2565SOL    HW118164   1.125   9.772   3.621 -0.3981 -2.1278 -3.5986
 2565SOL    HW218165   0.982   9.718   3.679 -0.1417  0.1951 -0.6544
 2566SOL     OW18166   2.278   9.832   3.562  0.3237 -0.2508  0.1611
 2566SOL    HW118167   2.367   9.817   3.519  0.4547  1.7240 -0.2787
 2566SOL    HW218168   2.278   9.790   3.653  1.8621  0.1415  0.3500
 2567SOL     OW18169   1.143   6.643   0.103 -0.0210 -0.2788  0.2367
 2567SOL    HW118170   1.177   6.638   0.197  0.4046  0.6405  0.1407
 2567SOL    HW218171   1.175   6.728   0.061 -0.1826 -0.6990 -0.7484
 2568SOL     OW18172   1.042   5.077   4.294 -0.1359 -0.2388  0.5187
 2568SOL    HW118173   1.065   5.150   4.358 -1.3007  0.8492 -0.2829
 2568SOL    HW218174   1.115   5.068   4.226  1.1219 -1.4198  1.9645
 2569SOL     OW18175   1.468   4.544   4.650  0.0515 -0.5281  0.3701
 2569SOL    HW118176   1.459   4.643   4.660  1.1346 -0.0525 -2.6361
 2569SOL    HW218177   1.560   4.516   4.675  0.0129 -0.6372  0.3913
 2570SOL     OW18178   2.969   6.015   1.944  0.7403  0.2304 -0.2915
 2570SOL    HW118179   2.919   6.096   1.971  0.0278 -0.6431  1.0648
 2570SOL    HW218180   3.067   6.032   1.951  0.5970  0.2508  2.3177
 2571SOL     OW18181   9.908   6.451   3.123  0.2238  0.3007 -0.5729
 2571SOL    HW118182   9.978   6.488   3.184  0.8015  1.9186 -2.1781
 2571SOL    HW218183   9.951   6.412   3.041 -0.7174  1.2452 -1.5351
 2572SOL     OW18184   9.053   1.143   1.985  0.5169  0.4638  0.3055
 2572SOL    HW118185   9.132   1.193   2.019 -0.8305  2.6705  0.2980
 2572SOL    HW218186   8.977   1.154   2.049 -0.9730  1.7146 -1.5964
 2573SOL     OW18187   6.620   9.124   0.753  0.3013 -0.6759  0.1711
 2573SOL    HW118188   6.546   9.187   0.729  0.1963 -0.4484  1.0806
 2573SOL    HW218189   6.680   9.111   0.675 -0.2356 -0.2175 -0.3195
 2574SOL     OW18190   0.624   4.020   2.365 -0.4678 -0.3996 -0.1001
 2574SOL    HW118191   0.619   3.924   2.394  1.5071 -0.5494 -0.1871
 2574SOL    HW218192   0.622   4.079   2.446  0.6928 -0.6225  0.0936
 2575SOL     OW18193   0.489   6.251   2.034  0.7149 -0.7804 -0.2339
 2575SOL    HW118194   0.516   6.274   1.940  1.2356 -0.1356  0.0745
 2575SOL    HW218195   0.396   6.284   2.051  1.2040  0.5018 -0.0153
 2576SOL     OW18196   1.077   7.381   0.871 -1.1229  0.2004  0.0287
 2576SOL    HW118197   1.114   7.457   0.924 -2.0713 -0.2231  1.3339
 2576SOL    HW218198   1.073   7.299   0.929 -2.3861 -0.2096 -0.6237
 2577SOL     OW18199   3.480   1.397   4.610  0.5024  0.0572  0.1770
 2577SOL    HW118200   3.486   1.309   4.563  0.6834 -0.0131  0.3322
 2577SOL    HW218201   3.533   1.465   4.560  1.1645 -0.1536  0.5974
 2578SOL     OW18202   0.156   7.375   3.386  0.4416  0.3607 -0.2388
 2578SOL    HW118203   0.205   7.409   3.466 -1.1203  0.7992  0.5610
 2578SOL    HW218204   0.057   7.373   3.406  0.1334 -0.6011 -1.7561
 2579SOL     OW18205   0.350   2.903   3.485 -0.3065 -0.4096 -0.0949
 2579SOL    HW118206   0.290   2.982   3.472  0.1234 -0.0336  0.1960
 2579SOL    HW218207   0.334   2.863   3.575  0.2927  0.0501  0.2215
 2580SOL     OW18208   7.369   9.237   0.473 -0.2094  1.2060 -0.0014
 2580SOL    HW118209   7.338   9.332   0.464 -0.8592  0.8823 -1.3618
 2580SOL    HW218210   7.417   9.210   0.390 -1.5757 -0.2025 -0.3699
 2581SOL     OW18211   3.222   4.884   4.211  0.6048 -0.1637  0.1824
 2581SOL    HW118212   3.286   4.825   4.261  0.5809  0.7531  1.3199
 2581SOL    HW218213   3.169   4.937   4.276  0.0943  0.5644 -0.8211
 2582SOL     OW18214   4.025   1.480   4.117 -0.2757  0.4867  0.2707
 2582SOL    HW118215   4.075   1.523   4.043  2.7640 -0.1415  1.8839
 2582SOL    HW218216   4.024   1.381   4.105 -0.7108  0.4569  0.5088
 2583SOL     OW18217   2.792   8.639   4.027  0.0998  0.1611 -0.5737
 2583SOL    HW118218   2.875   8.693   4.043  0.2935 -0.1200 -0.6231
 2583SOL    HW218219   2.812   8.568   3.960  0.1092 -0.5899  0.2190
 2584SOL     OW18220   6.174   0.279   1.646  0.6396 -0.1169 -0.2296
 2584SOL    HW118221   6.223   0.208   1.595  1.1831 -0.0404  0.1869
 2584SOL    HW218222   6.091   0.241   1.686  1.0425 -0.5684  0.1722
 2585SOL     OW18223   3.404   0.209   1.732 -0.2601 -0.0765 -0.2606
 2585SOL    HW118224   3.400   0.266   1.650  4.1633 -1.9492 -1.9355
 2585SOL    HW218225   3.452   0.259   1.804 -0.8979  0.1842 -0.0099
 2586SOL     OW18226   8.787   9.994   2.646 -0.4168  0.2072  0.0267
 2586SOL    HW118227   8.765  10.077   2.698  1.2617  0.7511 -0.0782
 2586SOL    HW218228   8.826   9.926   2.708 -0.8029 -0.1063 -0.0749
 2587SOL     OW18229   2.043   1.843   1.000 -0.1143  0.0371  0.1938
 2587SOL    HW118230   1.994   1.848   0.913  0.1479  1.1536  0.0973
 2587SOL    HW218231   2.027   1.928   1.052  0.3433 -0.3027  0.9009
 2588SOL     OW18232   1.527   6.652   3.339 -0.1839 -0.2345  0.0621
 2588SOL    HW118233   1.450   6.611   3.386 -0.0263 -2.4677 -1.5693
 2588SOL    HW218234   1.603   6.663   3.403 -1.0218 -0.2701  1.0814
 2589SOL     OW18235   2.171   8.662   0.419  0.1763 -0.0103 -0.1720
 2589SOL    HW118236   2.217   8.712   0.346 -0.1621 -1.6039 -1.5083
 2589SOL    HW218237   2.207   8.569   0.424 -1.0415 -0.4614  0.5140
 2590SOL     OW18238   7.237   8.828   0.685  0.0034 -0.0616  0.3922
 2590SOL    HW118239   7.221   8.842   0.783  2.0310  0.7906  0.6246
 2590SOL    HW218240   7.149   8.820   0.638 -1.0136  0.5470  2.1273
 2591SOL     OW18241   7.885   9.119   1.870  0.5617 -0.6847 -0.5453
 2591SOL    HW118242   7.794   9.153   1.896  1.0346 -0.8611  1.4515
 2591SOL    HW218243   7.954   9.182   1.905  1.1868  0.3375 -3.4703
 2592SOL     OW18244   3.436   8.979   2.317  0.1681  0.7366 -0.3223
 2592SOL    HW118245   3.351   8.934   2.346  0.6636 -1.5646 -2.2493
 2592SOL    HW218246   3.423   9.021   2.228  1.0089  0.4909 -0.5629
 2593SOL     OW18247   7.975   8.297   2.957 -0.4285 -0.1618 -0.0728
 2593SOL    HW118248   8.042   8.353   3.006 -2.1504  0.1647  2.0040
 2593SOL    HW218249   7.985   8.311   2.859  2.0259  0.4413  0.2341
 2594SOL     OW18250   2.139   2.240   4.126 -0.2102  0.0110 -0.7738
 2594SOL    HW118251   2.210   2.272   4.064  1.9387 -0.0876  1.5529
 2594SOL    HW218252   2.114   2.313   4.189 -2.2353  0.0537 -1.5785
 2595SOL     OW18253   0.587   7.741   3.032  0.2986 -0.4348  0.1393
 2595SOL    HW118254   0.524   7.800   2.981  0.4681  0.0803  0.5256
 2595SOL    HW218255   0.562   7.741   3.128  0.9559 -0.1402  0.3102
 2596SOL     OW18256   3.372   0.641   2.389  1.1734 -0.2906 -0.5167
 2596SOL    HW118257   3.444   0.658   2.322  1.6647 -1.0830 -0.1928
 2596SOL    HW218258   3.315   0.565   2.358 -0.2614  1.0782 -1.3519
 2597SOL     OW18259   5.925   0.052   3.703  0.4472  0.1127  0.1088
 2597SOL    HW118260   5.944   0.116   3.777  0.6594 -1.6469  1.5935
 2597SOL    HW218261   5.996  -0.019   3.700 -0.2509 -0.5629 -0.9554
 2598SOL     OW18262   3.019   2.314   2.286  0.0374 -0.2054 -0.1486
 2598SOL    HW118263   2.932   2.297   2.334 -1.1391  2.2885 -1.3034
 2598SOL    HW218264   3.003   2.314   2.187  1.7990 -1.8892 -0.4643
 2599SOL     OW18265   2.229   6.600   1.594  0.0315 -0.2285 -0.3234
 2599SOL    HW118266   2.246   6.696   1.574  1.0562 -0.7800 -2.1712
 2599SOL    HW218267   2.291   6.570   1.668 -0.7216  0.6660  0.6901
 2600SOL     OW18268   1.939   4.186   3.768  0.4137  0.0124  0.2281
 2600SOL    HW118269   1.887   4.222   3.691  0.8255  0.9910  0.4014
 2600SOL    HW218270   1.939   4.086   3.765  0.2068  0.0465 -0.8844
 2601SOL     OW18271   3.443   3.422   2.500  0.1920 -0.0467 -0.2596
 2601SOL    HW118272   3.471   3.514   2.530 -0.2710  0.4853 -1.4446
 2601SOL    HW218273   3.387   3.429   2.417  1.7878 -1.5498 -1.4857
 2602SOL     OW18274   0.694   4.376   3.258  0.1160  0.5939  0.7739
 2602SOL    HW118275   0.649   4.466   3.262  0.4917  0.8156  0.1117
 2602SOL    HW218276   0.775   4.377   3.316  1.0717  1.2318 -0.5528
 2603SOL     OW18277   8.833   5.039   2.064  0.6039 -0.1603  0.2382
 2603SOL    HW118278   8.902   5.037   2.136  1.0152 -2.4220 -0.1658
 2603SOL    HW218279   8.829   4.949   2.019  0.6204  1.2904 -2.8028
 2604SOL     OW18280   1.722   1.040   4.099 -0.4953  0.2466  0.1952
 2604SOL    HW118281   1.812   1.080   4.086 -1.0731  1.8933  1.0775
 2604SOL    HW218282   1.710   0.963   4.037  1.9472 -0.7301  0.9003
 2605SOL     OW18283   0.335   6.218   2.496  0.1352 -0.3975  0.2368
 2605SOL    HW118284   0.416   6.162   2.474  1.2586 -0.3915  3.9523
 2605SOL    HW218285   0.263   6.159   2.531  0.1498  0.0800  1.0909
 2606SOL     OW18286   6.715   0.710   3.151 -0.3823  0.2665  0.4708
 2606SOL    HW118287   6.813   0.697   3.140  0.0638  2.3596  1.5989
 2606SOL    HW218288   6.673   0.726   3.062  0.2679 -0.7656 -0.0300
 2607SOL     OW18289   9.928   9.158   2.656 -0.3760 -0.4968  0.0267
 2607SOL    HW118290   9.941   9.257   2.657 -2.7122 -0.1774  0.7575
 2607SOL    HW218291   9.956   9.122   2.567 -0.1840  0.8966 -0.4971
 2608SOL     OW18292   1.711   2.989   2.097 -0.0627  0.0966 -0.4150
 2608SOL    HW118293   1.650   2.948   2.165  1.0444 -0.1888  0.4192
 2608SOL    HW218294   1.799   3.011   2.140  0.8728 -0.6650 -1.9133
 2609SOL     OW18295   9.244   7.594   3.817 -0.5348  0.1534  0.9369
 2609SOL    HW118296   9.238   7.651   3.735 -0.7545  0.3684  1.1033
 2609SOL    HW218297   9.160   7.601   3.870  0.0531  0.9469  1.7942
 2610SOL     OW18298   9.526   8.435   2.700 -0.2995  0.5171  0.3651
 2610SOL    HW118299   9.607   8.450   2.757 -1.9238  0.2847  2.8169
 2610SOL    HW218300   9.465   8.514   2.707 -0.5513  0.4699 -1.0573
 2611SOL     OW18301   1.612   9.855   3.528 -0.6072  0.2889 -0.0133
 2611SOL    HW118302   1.616   9.767   3.575 -0.4304  0.3779  0.1404
 2611SOL    HW218303   1.619   9.929   3.595  0.9230  0.4154 -0.3014
 2612SOL     OW18304   0.807   3.497   3.506  0.2879  0.6614  0.0253
 2612SOL    HW118305   0.713   3.527   3.520 -0.2105 -0.5786 -0.5742
 2612SOL    HW218306   0.825   3.485   3.408  0.0324 -2.2648  0.2868
 2613SOL     OW18307   2.071   2.141   2.458  0.1285 -0.0216 -0.6268
 2613SOL    HW118308   2.060   2.240   2.462  0.4479 -0.0542  1.6677
 2613SOL    HW218309   2.154   2.119   2.406  2.4419  1.1183  2.4080
 2614SOL     OW18310   1.781   2.647   0.484 -0.6885  0.1102  0.7047
 2614SOL    HW118311   1.702   2.701   0.511 -0.6395  0.7132 -0.3218
 2614SOL    HW218312   1.750   2.561   0.443 -0.8547  0.9238 -0.9088
 2615SOL     OW18313   8.409   6.883   1.695 -0.3075  0.0392 -0.7018
 2615SOL    HW118314   8.505   6.862   1.712 -0.7400 -1.0195  0.5185
 2615SOL    HW218315   8.397   6.982   1.688  0.5954  0.2788  0.9414
 2616SOL     OW18316   3.336   7.206   1.183 -0.2206  0.2727 -0.3186
 2616SOL    HW118317   3.405   7.261   1.231  0.4269 -0.5152 -0.3359
 2616SOL    HW218318   3.310   7.252   1.099 -1.2765  1.6104  0.7210
 2617SOL     OW18319   8.425   0.397   3.985  0.2266 -0.1519  0.1393
 2617SOL    HW118320   8.371   0.481   3.976  1.9604  0.7745 -1.8407
 2617SOL    HW218321   8.376   0.333   4.045 -2.8405  0.8521 -1.1772
 2618SOL     OW18322   5.172   9.617   3.587  0.0691 -0.7331  0.5312
 2618SOL    HW118323   5.245   9.592   3.523  0.2464 -0.1213  0.4830
 2618SOL    HW218324   5.101   9.668   3.538  0.8296  0.8738  1.0615
 2619SOL     OW18325   3.893   6.429   3.058 -0.2172  0.1613  0.0618
 2619SOL    HW118326   3.948   6.498   3.011 -1.7937  2.0171  0.8718
 2619SOL    HW218327   3.903   6.341   3.011 -0.3749  1.5518 -2.6822
 2620SOL     OW18328   7.245   8.412   2.285  0.3951 -0.0081 -0.1835
 2620SOL    HW118329   7.320   8.356   2.321  1.5442  1.5263 -0.1108
 2620SOL    HW218330   7.202   8.364   2.209  1.0886 -1.1701  0.1382
 2621SOL     OW18331   9.717   4.865   4.460  0.2348 -0.2283 -0.2868
 2621SOL    HW118332   9.663   4.908   4.533 -0.7892 -0.4277 -0.9184
 2621SOL    HW218333   9.699   4.766   4.460  0.6538 -0.3038 -0.4595
 2622SOL     OW18334   8.645   9.837   1.097 -0.6298 -0.2713 -0.3635
 2622SOL    HW118335   8.734   9.838   1.053 -0.8519  1.3022 -0.7787
 2622SOL    HW218336   8.591   9.760   1.061  0.9337 -1.9181  0.7056
 2623SOL     OW18337   1.600   2.366   4.261  0.1480 -0.3277  0.1052
 2623SOL    HW118338   1.577   2.301   4.333 -0.0470 -0.2511  0.1105
 2623SOL    HW218339   1.656   2.440   4.299 -0.8942  0.3107  0.4118
 2624SOL     OW18340   4.349   2.323   0.325 -0.0395 -0.5822  0.0761
 2624SOL    HW118341   4.278   2.289   0.387  0.0490 -1.9209 -0.5408
 2624SOL    HW218342   4.308   2.349   0.238  0.5061 -3.7050 -1.1813
 2625SOL     OW18343   0.837   2.868   0.201  0.5387  0.0426 -0.7705
 2625SOL    HW118344   0.778   2.876   0.121 -2.6633 -1.2329  1.3694
 2625SOL    HW218345   0.869   2.959   0.227 -2.2827  1.0765 -0.7162
 2626SOL     OW18346   4.448   2.369   1.576  0.1384 -0.1380  0.0429
 2626SOL    HW118347   4.460   2.272   1.555  0.1111 -0.1496  0.0829
 2626SOL    HW218348   4.360   2.384   1.620 -0.4863  0.1192 -1.2962
 2627SOL     OW18349   9.235   5.107   0.228  0.8348  0.2045  0.1983
 2627SOL    HW118350   9.231   5.077   0.323 -1.2530 -0.0584  0.0534
 2627SOL    HW218351   9.179   5.046   0.172  1.6109  0.6812 -1.1150
 2628SOL     OW18352   2.372   0.609   3.257  0.0551 -0.7180  0.0162
 2628SOL    HW118353   2.440   0.536   3.263  0.7678 -0.0306  0.3234
 2628SOL    HW218354   2.415   0.693   3.225 -0.6149 -0.2360  0.3688
 2629SOL     OW18355   8.309   7.159   3.913  0.2982  0.0778 -0.5398
 2629SOL    HW118356   8.408   7.152   3.928  0.0492 -0.6684  0.8613
 2629SOL    HW218357   8.290   7.158   3.815  1.4496 -3.5822 -0.8116
 2630SOL     OW18358   2.169   4.066   0.156 -0.3374 -0.2798  0.5327
 2630SOL    HW118359   2.232   3.991   0.137 -0.6733 -0.3677 -0.2693
 2630SOL    HW218360   2.208   4.151   0.122 -1.7575 -0.7084 -2.3341
 2631SOL     OW18361   2.857   5.533   4.024 -0.1745 -0.0835 -0.3498
 2631SOL    HW118362   2.851   5.539   3.924  0.7491  1.3358 -0.3353
 2631SOL    HW218363   2.953   5.531   4.051 -0.3795  2.3982  0.6462
 2632SOL     OW18364   0.609   5.771   1.267 -0.4497  0.4115  0.3320
 2632SOL    HW118365   0.516   5.741   1.244  0.0550  0.8253 -2.5366
 2632SOL    HW218366   0.665   5.690   1.287 -0.4867 -0.2152 -1.8642
 2633SOL     OW18367   6.944   8.960   2.666 -0.6663 -0.0904 -0.9598
 2633SOL    HW118368   7.041   8.964   2.688 -1.2138 -0.1098  1.5592
 2633SOL    HW218369   6.891   8.999   2.741 -2.6439 -0.4855 -2.1118
 2634SOL     OW18370   1.577   4.026   3.217  0.0383 -0.0573 -0.4537
 2634SOL    HW118371   1.525   4.077   3.285 -0.8772 -1.7668  0.1517
 2634SOL    HW218372   1.547   3.931   3.216  1.2128 -0.4376 -2.0771
 2635SOL     OW18373   1.065   2.654   2.413 -0.8771 -0.3912 -0.1879
 2635SOL    HW118374   1.161   2.645   2.440 -0.6596 -0.3709 -0.9528
 2635SOL    HW218375   1.021   2.564   2.416 -0.6545 -0.5109 -0.5049
 2636SOL     OW18376   5.102   8.915   2.361 -0.0144 -0.3740 -0.3850
 2636SOL    HW118377   5.089   8.979   2.436 -0.0179 -1.0702  0.2155
 2636SOL    HW218378   5.200   8.902   2.345 -0.0136 -0.2452 -0.4791
 2637SOL     OW18379   3.356   8.498   3.128 -0.4602 -0.2228  0.2054
 2637SOL    HW118380   3.384   8.433   3.057  1.2385  0.4189  0.2580
 2637SOL    HW218381   3.343   8.450   3.215  1.2051 -0.4492  0.3427
 2638SOL     OW18382   2.735   3.142   1.784  0.2248 -0.4426 -0.5672
 2638SOL    HW118383   2.731   3.044   1.763 -2.2669 -0.5290  0.1542
 2638SOL    HW218384   2.672   3.192   1.725 -1.1493  0.2517  1.4195
 2639SOL     OW18385   1.425   9.536   4.335  0.3152  0.3021 -0.4860
 2639SOL    HW118386   1.379   9.623   4.353 -0.0986 -0.0373  0.1000
 2639SOL    HW218387   1.400   9.503   4.244  0.2326  0.6432 -0.5882
 2640SOL     OW18388   2.932   3.574   3.771 -0.2027 -0.2772 -0.3274
 2640SOL    HW118389   3.026   3.607   3.763  0.2700 -1.8060 -1.3173
 2640SOL    HW218390   2.916   3.501   3.705 -1.4070 -1.5904  1.3679
 2641SOL     OW18391   2.231   9.337   4.373  0.0578 -0.2482  0.3960
 2641SOL    HW118392   2.262   9.299   4.286 -0.3706 -0.7512  0.4624
 2641SOL    HW218393   2.193   9.428   4.358 -0.2516 -0.4410  0.0180
 2642SOL     OW18394   0.225   3.810   1.690  1.4524 -0.1574 -0.3240
 2642SOL    HW118395   0.255   3.881   1.753 -0.2659  0.6789 -0.4333
 2642SOL    HW218396   0.237   3.720   1.733  0.5625  0.3851  1.1074
 2643SOL     OW18397   1.472   3.318   3.742 -0.1708 -0.3997 -0.2441
 2643SOL    HW118398   1.568   3.305   3.768 -0.2419  0.7159  0.5818
 2643SOL    HW218399   1.420   3.352   3.820 -1.0310 -0.0032 -0.9758
 2644SOL     OW18400   5.239   7.162   2.163  0.5476  0.1286 -0.6412
 2644SOL    HW118401   5.305   7.093   2.191 -0.4827 -0.7758 -0.4192
 2644SOL    HW218402   5.264   7.250   2.204  1.1454 -0.3758  0.0988
 2645SOL     OW18403   0.430   4.861   3.202  0.3913  0.1654 -0.0558
 2645SOL    HW118404   0.370   4.918   3.146 -0.9071 -2.3382 -1.3221
 2645SOL    HW218405   0.407   4.874   3.299 -0.8350  0.7259 -0.4085
 2646SOL     OW18406   3.282   6.523   2.088 -0.0951  0.5879 -0.3657
 2646SOL    HW118407   3.275   6.432   2.129  0.3498 -0.1573 -1.9231
 2646SOL    HW218408   3.317   6.515   1.995 -1.3826  2.2447 -1.0044
 2647SOL     OW18409   8.772   8.731   3.691  0.2147 -0.5013 -0.2545
 2647SOL    HW118410   8.721   8.790   3.628 -0.2124  0.5567  1.0505
 2647SOL    HW218411   8.817   8.658   3.639  0.9737  1.1078 -1.9291
 2648SOL     OW18412   3.188   2.308   1.475  0.0469  0.2310  0.9990
 2648SOL    HW118413   3.191   2.283   1.572 -0.4616 -0.3561  0.8598
 2648SOL    HW218414   3.185   2.226   1.419  1.1709  0.5531  0.4486
 2649SOL     OW18415   6.586   9.770   0.996 -0.2660 -0.6351  0.4228
 2649SOL    HW118416   6.578   9.859   0.952  0.3514 -0.8758 -0.1999
 2649SOL    HW218417   6.607   9.782   1.093  1.9787 -0.1000 -0.1031
 2650SOL     OW18418   1.380   5.155   4.387 -0.7067  0.4211  0.7442
 2650SOL    HW118419   1.291   5.171   4.431 -0.7810 -0.8048  1.0462
 2650SOL    HW218420   1.429   5.242   4.380 -1.8291  1.0788  0.7846
 2651SOL     OW18421   0.230   1.002   1.182  0.2565 -0.0475  1.0697
 2651SOL    HW118422   0.279   0.962   1.260  1.2156  3.1429  2.1902
 2651SOL    HW218423   0.173   1.078   1.213  0.1255  0.8530 -1.2369
 2652SOL     OW18424   9.100   4.718   2.122  0.0587 -0.3361  0.0527
 2652SOL    HW118425   9.200   4.727   2.121 -0.0034  0.8204  1.9859
 2652SOL    HW218426   9.073   4.658   2.198 -0.7220 -0.6176 -0.4470
 2653SOL     OW18427   4.073   7.179   3.611  0.2228  0.1147 -0.9798
 2653SOL    HW118428   4.155   7.129   3.641  0.0382  0.0319 -0.6082
 2653SOL    HW218429   4.014   7.196   3.690  2.0869  4.3550 -0.3990
 2654SOL     OW18430   7.456   7.150   3.243  0.0646 -0.3286 -0.0492
 2654SOL    HW118431   7.539   7.147   3.297  1.3680 -0.2167 -2.0075
 2654SOL    HW218432   7.377   7.163   3.303  1.6499  1.9077  1.6082
 2655SOL     OW18433   9.498   8.185   0.420 -0.2212  0.3822  0.1841
 2655SOL    HW118434   9.414   8.229   0.388 -0.9125 -0.8157  0.3017
 2655SOL    HW218435   9.476   8.120   0.492  0.9930  1.0654  1.1936
 2656SOL     OW18436   7.335   8.195   3.001  0.7238  0.1772  0.0658
 2656SOL    HW118437   7.349   8.263   2.929 -2.8144  1.2649  0.3310
 2656SOL    HW218438   7.292   8.239   3.080  1.6031 -1.6838  1.6271
 2657SOL     OW18439   3.522   7.032   3.797 -0.3350  0.1819 -0.0375
 2657SOL    HW118440   3.523   7.097   3.721 -0.7880 -0.2944 -0.4521
 2657SOL    HW218441   3.616   7.010   3.824 -0.1594 -0.4910 -1.1813
 2658SOL     OW18442   3.080   8.285   2.011  0.1498  0.4283  0.1757
 2658SOL    HW118443   3.019   8.296   2.090 -0.2343  2.0392 -0.3384
 2658SOL    HW218444   3.051   8.346   1.938  0.2562 -1.3407 -1.3850
 2659SOL     OW18445   0.431   9.529   0.992  0.2999  0.1387  0.1083
 2659SOL    HW118446   0.394   9.557   0.904  0.9516  0.0728 -0.1863
 2659SOL    HW218447   0.437   9.608   1.053  0.6394  0.3416 -0.1888
 2660SOL     OW18448   4.038   1.265   3.388 -0.2235  0.6148 -0.3074
 2660SOL    HW118449   4.127   1.243   3.430 -0.7554  1.0130  1.0607
 2660SOL    HW218450   4.045   1.350   3.337 -0.0496  1.1547  0.6040
 2661SOL     OW18451   3.444   5.460   1.626 -0.4801  0.3106 -0.1783
 2661SOL    HW118452   3.371   5.400   1.657 -0.6895  0.4355 -0.4256
 2661SOL    HW218453   3.453   5.454   1.526  0.7549 -0.7227 -0.0161
 2662SOL     OW18454   2.264   8.101   3.580  0.4021 -0.6101  0.2062
 2662SOL    HW118455   2.320   8.018   3.582 -1.1391 -1.7388 -1.6473
 2662SOL    HW218456   2.173   8.081   3.616 -0.0914  0.1539 -0.5814
 2663SOL     OW18457   2.848   1.064   3.149 -0.1677  0.3375 -0.2285
 2663SOL    HW118458   2.863   1.050   3.246 -0.4369  1.4432 -0.0229
 2663SOL    HW218459   2.753   1.093   3.133 -0.0657  0.3826 -0.7955
 2664SOL     OW18460   4.550   2.144   1.037  0.0598 -1.0897  0.1869
 2664SOL    HW118461   4.506   2.221   0.990 -0.8873 -1.3326  0.6623
 2664SOL    HW218462   4.592   2.177   1.121  0.4026 -0.9341 -0.0461
 2665SOL     OW18463   2.108   8.599   3.520 -0.2239  0.0278 -0.0884
 2665SOL    HW118464   2.079   8.523   3.462 -1.5653  0.6283 -0.2070
 2665SOL    HW218465   2.126   8.680   3.464  4.4800 -1.0678 -0.3938
 2666SOL     OW18466   1.879   7.127   0.565 -0.4981 -0.6846 -0.3439
 2666SOL    HW118467   1.797   7.165   0.608 -0.0373 -0.4237  0.3167
 2666SOL    HW218468   1.917   7.195   0.502 -1.3065 -1.1548 -1.3651
 2667SOL     OW18469   0.453   6.634   2.195  0.7832  0.4230  0.2105
 2667SOL    HW118470   0.361   6.670   2.208 -0.1530 -1.6081 -0.4641
 2667SOL    HW218471   0.466   6.553   2.252  0.6739 -1.7216 -2.6638
 2668SOL     OW18472   9.949   4.981   1.649  0.1654 -0.6833 -0.2611
 2668SOL    HW118473   9.887   4.999   1.573  0.7504 -1.9840 -1.0583
 2668SOL    HW218474   9.898   4.939   1.724 -0.1323 -0.7348 -0.4898
 2669SOL     OW18475   3.582   3.309   4.529 -0.5819  0.4628 -0.4292
 2669SOL    HW118476   3.652   3.379   4.542 -0.8492  0.4577  1.1377
 2669SOL    HW218477   3.507   3.324   4.594  0.1676 -2.2983  1.1489
 2670SOL     OW18478   4.055   0.679   2.399  0.2877 -0.3724 -0.0237
 2670SOL    HW118479   4.060   0.584   2.369 -2.3101 -0.0579 -1.6393
 2670SOL    HW218480   3.985   0.688   2.470 -0.0606  0.4431 -0.4550
 2671SOL     OW18481   9.968   6.017   3.801 -0.1804 -1.0031  0.3719
 2671SOL    HW118482  10.014   5.993   3.715  0.0226  0.6066  0.0123
 2671SOL    HW218483   9.883   5.965   3.808  0.1146 -1.6292 -0.4958
 2672SOL     OW18484   2.060   9.915   1.489 -0.1591 -0.1602  0.4098
 2672SOL    HW118485   2.012   9.996   1.455 -0.2818  0.1794  1.3760
 2672SOL    HW218486   2.148   9.942   1.527  0.6554 -0.7402 -1.0439
 2673SOL     OW18487   4.770   8.571   3.162 -0.3441  0.3102 -0.1010
 2673SOL    HW118488   4.743   8.618   3.078  0.5996  0.2019 -0.4680
 2673SOL    HW218489   4.834   8.497   3.140 -0.3713  0.0523  0.6717
 2674SOL     OW18490   1.491   1.226   1.095  0.0913  0.4487 -0.2340
 2674SOL    HW118491   1.427   1.153   1.119  0.4739  0.2955  0.3234
 2674SOL    HW218492   1.472   1.307   1.151 -0.3314  0.7823 -0.8496
 2675SOL     OW18493   0.054   0.535   3.862 -0.2764  0.5350 -0.4709
 2675SOL    HW118494   0.065   0.606   3.792  1.1748  0.7292 -0.0636
 2675SOL    HW218495   0.144   0.499   3.887 -0.7905  0.4073  1.2403
 2676SOL     OW18496   6.554   8.523   1.325 -0.4129 -0.1627 -0.2645
 2676SOL    HW118497   6.507   8.523   1.413 -1.1739  0.9407 -0.6633
 2676SOL    HW218498   6.645   8.483   1.336 -0.5392 -0.1117  1.0003
 2677SOL     OW18499   4.269   1.383   1.105  0.0556 -0.0156  0.3569
 2677SOL    HW118500   4.205   1.372   1.029  0.2426  1.2733 -0.0024
 2677SOL    HW218501   4.328   1.303   1.111 -0.6288 -0.5729 -0.2151
 2678SOL     OW18502   4.516   8.948   3.835  0.1519  0.2310  0.3796
 2678SOL    HW118503   4.491   8.969   3.930  0.9644  0.3718  0.5635
 2678SOL    HW218504   4.600   8.996   3.811 -0.0938  0.2601 -0.4441
 2679SOL     OW18505   3.647   3.688   1.514  0.0574 -0.4322 -0.5579
 2679SOL    HW118506   3.747   3.693   1.518  0.0614  0.9813 -1.8219
 2679SOL    HW218507   3.608   3.752   1.581  0.0192 -0.2980 -0.7060
 2680SOL     OW18508   1.743   5.497   3.251  0.0319 -0.2622 -0.1722
 2680SOL    HW118509   1.751   5.513   3.350 -3.4856 -1.1874  0.3163
 2680SOL    HW218510   1.719   5.401   3.235  0.6477 -0.1358 -1.9671
 2681SOL     OW18511   2.323   0.462   3.883 -0.0636 -0.3137 -0.2405
 2681SOL    HW118512   2.244   0.490   3.936  1.7614  0.6149  2.0791
 2681SOL    HW218513   2.304   0.475   3.785 -2.3464  0.8923  0.3273
 2682SOL     OW18514   9.651   8.472   0.635 -0.7428  0.0068  0.4250
 2682SOL    HW118515   9.666   8.374   0.624  1.3326  0.2526  0.8208
 2682SOL    HW218516   9.553   8.492   0.630 -1.0688 -1.8689 -1.3085
 2683SOL     OW18517   0.825   0.857   3.091 -0.5094 -0.0891 -0.4407
 2683SOL    HW118518   0.726   0.871   3.098 -0.5572  0.3578 -1.8817
 2683SOL    HW218519   0.851   0.852   2.995  0.8335 -0.5209 -0.0617
 2684SOL     OW18520   3.248   5.676   3.323  0.2310 -0.2562 -0.1688
 2684SOL    HW118521   3.294   5.609   3.264 -1.4899 -2.0419  0.4539
 2684SOL    HW218522   3.299   5.687   3.408 -0.8405 -2.8378  0.8624
 2685SOL     OW18523   1.973   4.315   3.237  0.4457  0.5812  0.1598
 2685SOL    HW118524   1.900   4.263   3.281  0.0746  2.0110  1.2887
 2685SOL    HW218525   2.025   4.365   3.307  0.3641  2.2298 -0.9177
 2686SOL     OW18526   1.103   5.363   2.734 -0.5306 -0.1803 -0.1949
 2686SOL    HW118527   1.165   5.286   2.717  1.7242  1.1834  1.5414
 2686SOL    HW218528   1.035   5.367   2.661 -0.2311 -3.3419 -0.7263
 2687SOL     OW18529   6.181   9.844   2.717 -0.1653 -0.5097  0.0203
 2687SOL    HW118530   6.155   9.768   2.658  2.7493 -2.6900  1.3983
 2687SOL    HW218531   6.251   9.899   2.671  0.2521 -0.7235  0.3888
 2688SOL     OW18532   1.385   3.762   0.960 -0.1568 -0.1064 -1.1730
 2688SOL    HW118533   1.410   3.757   1.057 -0.5243 -0.1928 -1.0818
 2688SOL    HW218534   1.459   3.724   0.905 -0.4032 -1.0602 -0.8578
 2689SOL     OW18535   3.119   5.559   1.334  0.3018 -0.4904 -0.5213
 2689SOL    HW118536   3.149   5.591   1.244  1.5999  1.0666  0.4389
 2689SOL    HW218537   3.088   5.465   1.328  1.2253 -0.6822 -2.4239
 2690SOL     OW18538   3.156   1.961   2.651 -0.0435  0.0618  0.0491
 2690SOL    HW118539   3.202   2.047   2.673 -0.7150  0.2100  0.9281
 2690SOL    HW218540   3.057   1.975   2.653 -0.2066 -1.0681  1.7600
 2691SOL     OW18541   3.306   8.093   1.992 -0.5662 -0.2223  0.8671
 2691SOL    HW118542   3.318   8.065   1.897  0.7453  0.3783  0.8390
 2691SOL    HW218543   3.226   8.152   2.000 -0.7769 -0.4115  0.1722
 2692SOL     OW18544   1.130   2.061   2.833 -0.6517 -0.4548  0.2030
 2692SOL    HW118545   1.215   2.042   2.782  0.1756  1.8290  0.6837
 2692SOL    HW218546   1.065   1.987   2.816  0.5760 -1.0976 -2.0304
 2693SOL     OW18547   4.159   2.074   1.004  0.7394  0.6546  0.3443
 2693SOL    HW118548   4.114   1.985   1.002  0.6841  0.5462  3.6886
 2693SOL    HW218549   4.093   2.147   0.987  0.6443  0.1356 -1.6162
 2694SOL     OW18550   2.218   3.878   0.598 -0.1075 -0.0408  0.5711
 2694SOL    HW118551   2.130   3.840   0.626  0.1877 -0.3189  1.1261
 2694SOL    HW218552   2.202   3.954   0.534 -0.7825  0.4933  1.3578
 2695SOL     OW18553   7.863   9.944   4.545 -0.2078 -0.2167 -0.5652
 2695SOL    HW118554   7.944   9.950   4.486 -0.6629 -1.7440 -1.3968
 2695SOL    HW218555   7.865   9.858   4.595 -1.8452 -0.7840 -1.4272
 2696SOL     OW18556   4.066   2.742   2.052  0.6908  0.2931  0.5310
 2696SOL    HW118557   4.040   2.715   1.959 -1.7455 -2.5929  1.9481
 2696SOL    HW218558   4.166   2.740   2.061  0.9221  0.1196 -1.8769
 2697SOL     OW18559   5.713   8.412   2.619  0.1451 -0.0686 -0.0147
 2697SOL    HW118560   5.640   8.478   2.636  0.3932  0.7357 -1.8780
 2697SOL    HW218561   5.674   8.320   2.611 -0.5099  0.1896  0.1785
 2698SOL     OW18562   3.703   7.095   3.415  0.8316 -0.6017 -0.3887
 2698SOL    HW118563   3.650   7.083   3.499  1.1785  0.6461  0.0225
 2698SOL    HW218564   3.642   7.123   3.341  0.3991 -2.4801 -0.7646
 2699SOL     OW18565   1.779   5.915   4.327  0.1337 -0.5373 -0.4356
 2699SOL    HW118566   1.832   5.888   4.247  0.7851 -0.4749 -0.0307
 2699SOL    HW218567   1.709   5.982   4.300 -1.5384 -2.6431 -1.4482
 2700SOL     OW18568   3.214   3.533   1.993  0.3714 -0.6093  0.2946
 2700SOL    HW118569   3.168   3.533   2.082  0.8749  0.4534  0.5563
 2700SOL    HW218570   3.312   3.548   2.006  0.7280 -2.3240 -0.3050
 2701SOL     OW18571   3.631   9.825   3.011  0.0737 -0.4026  0.1540
 2701SOL    HW118572   3.663   9.867   3.097 -0.9622  3.3103 -1.1843
 2701SOL    HW218573   3.533   9.839   3.002 -0.0334 -1.8804 -1.0823
 2702SOL     OW18574   1.468   6.950   0.772  0.2282 -0.1599  0.1349
 2702SOL    HW118575   1.468   7.049   0.774  1.8824 -0.1220 -0.7131
 2702SOL    HW218576   1.422   6.914   0.854  0.3446  1.2897  0.8394
 2703SOL     OW18577   6.788   0.012   4.410  0.3022 -0.0894  0.6552
 2703SOL    HW118578   6.745   0.043   4.325  0.0612  0.1417  0.8615
 2703SOL    HW218579   6.732   0.038   4.488  1.3790  1.2597  1.0053
 2704SOL     OW18580   1.578   7.872   1.224  0.6594  0.6508 -0.3719
 2704SOL    HW118581   1.624   7.786   1.243 -0.0425  0.2843 -0.3210
 2704SOL    HW218582   1.598   7.937   1.297 -0.3289 -0.0769  0.5621
 2705SOL     OW18583   9.100   5.660   2.875  0.1552 -0.5620  0.0295
 2705SOL    HW118584   9.050   5.585   2.917  0.7276 -0.4042  1.0261
 2705SOL    HW218585   9.089   5.743   2.930 -0.8728  0.2194 -1.3249
 2706SOL     OW18586   4.586   9.704   3.786 -0.1170  0.6184  0.2934
 2706SOL    HW118587   4.534   9.789   3.792 -1.7523 -0.3390  0.0639
 2706SOL    HW218588   4.619   9.678   3.877 -1.0965  0.5931  0.6449
 2707SOL     OW18589   4.779   7.581   1.642 -0.3912 -0.0686  0.5952
 2707SOL    HW118590   4.777   7.598   1.543 -1.0066 -0.0534  0.6085
 2707SOL    HW218591   4.686   7.591   1.679 -0.1038  0.2460  1.2279
 2708SOL     OW18592   3.259   2.789   1.325  0.2051 -0.0283  0.0749
 2708SOL    HW118593   3.203   2.863   1.289 -1.1858 -0.4061  1.4259
 2708SOL    HW218594   3.263   2.715   1.258 -0.3597  0.2877 -0.3119
 2709SOL     OW18595   1.354   7.967   4.189 -0.2270  0.1965  0.0372
 2709SOL    HW118596   1.418   7.931   4.122 -0.5954  0.8229 -0.6559
 2709SOL    HW218597   1.281   7.900   4.204  1.4122 -1.2231  2.0323
 2710SOL     OW18598   3.198   8.057   3.284  0.7140  0.2478 -0.0039
 2710SOL    HW118599   3.115   8.003   3.271 -0.0655  1.2085  0.9030
 2710SOL    HW218600   3.176   8.141   3.333  2.5220 -0.3214  1.8342
 2711SOL     OW18601   1.027   2.456   3.613  0.0063 -0.0640  0.3673
 2711SOL    HW118602   1.104   2.403   3.578  0.0031  0.2583 -0.1530
 2711SOL    HW218603   1.045   2.554   3.597 -0.0972  0.0751  1.0837
 2712SOL     OW18604   1.748   3.245   2.786  0.1208 -0.2264 -0.6422
 2712SOL    HW118605   1.818   3.177   2.767  0.7206  0.3650 -0.5745
 2712SOL    HW218606   1.658   3.201   2.791  0.5724 -1.0848 -0.0707
 2713SOL     OW18607   0.311   0.410   3.868 -0.3583 -0.2833 -0.7181
 2713SOL    HW118608   0.304   0.384   3.771 -0.6312  0.0972 -0.8029
 2713SOL    HW218609   0.365   0.342   3.917  0.6019  0.0334 -1.3312
 2714SOL     OW18610   2.482   3.293   1.648 -0.1958 -0.1557  0.1836
 2714SOL    HW118611   2.543   3.371   1.632 -2.1730  1.4262  0.0942
 2714SOL    HW218612   2.455   3.253   1.561 -0.6691  0.2649  0.1324
 2715SOL     OW18613   0.137   8.550   4.716  0.0062 -0.2072 -0.5985
 2715SOL    HW118614   0.040   8.536   4.696  0.1503 -1.0534 -0.7515
 2715SOL    HW218615   0.156   8.648   4.721 -1.5526 -0.0022  2.8049
 2716SOL     OW18616   6.833   7.844   2.247 -0.1871  0.1580  0.0892
 2716SOL    HW118617   6.883   7.836   2.333  0.4452  2.1390 -0.0687
 2716SOL    HW218618   6.893   7.817   2.171 -1.4538 -3.8057  0.4086
 2717SOL     OW18619   5.114   8.078   1.818  0.3009  0.0483 -0.4940
 2717SOL    HW118620   5.180   8.141   1.776  0.4763  0.6972  0.7318
 2717SOL    HW218621   5.097   8.107   1.912 -2.4192  0.4121 -1.0672
 2718SOL     OW18622   0.876   6.616   2.965 -0.6596 -0.0991  0.2808
 2718SOL    HW118623   0.892   6.675   3.044  3.1632  0.5809 -0.9017
 2718SOL    HW218624   0.903   6.522   2.987  0.5470  0.1194 -0.2383
 2719SOL     OW18625   3.701   7.499   1.168 -0.0105  1.0021 -0.4698
 2719SOL    HW118626   3.701   7.455   1.078 -0.7934 -0.3995  0.2024
 2719SOL    HW218627   3.776   7.462   1.223  0.1501  1.4930 -0.3492
 2720SOL     OW18628   0.820   1.840   3.529 -0.0572 -0.1876  0.0355
 2720SOL    HW118629   0.899   1.779   3.521  1.7574  2.0553  0.4303
 2720SOL    HW218630   0.766   1.838   3.444  0.2792 -1.9087 -0.1411
 2721SOL     OW18631   2.816   4.252   2.804 -0.0423 -0.0216  0.1777
 2721SOL    HW118632   2.731   4.305   2.807 -1.1273 -1.6870 -0.2068
 2721SOL    HW218633   2.832   4.220   2.710  0.3654 -0.7134  0.4791
 2722SOL     OW18634   0.480   3.403   4.083  0.3050 -0.3835  0.3952
 2722SOL    HW118635   0.488   3.313   4.125  1.6900  0.0856  1.1538
 2722SOL    HW218636   0.530   3.470   4.137 -1.5612  1.0599  0.4004
 2723SOL     OW18637   9.108   8.045   2.831  0.4379  0.7951  0.1304
 2723SOL    HW118638   9.184   8.096   2.790  0.5226 -0.6195 -1.4934
 2723SOL    HW218639   9.029   8.049   2.770  1.1547 -2.9286 -1.1529
 2724SOL     OW18640   4.501   0.122   2.031 -0.1184 -0.5856  0.6622
 2724SOL    HW118641   4.552   0.046   2.072 -0.5415 -1.6574 -0.7801
 2724SOL    HW218642   4.564   0.181   1.981 -0.4415 -2.7526 -2.4128
 2725SOL     OW18643   0.164   5.471   1.713 -0.4442 -0.3544  0.1298
 2725SOL    HW118644   0.213   5.495   1.796  2.1855 -0.8143 -1.2389
 2725SOL    HW218645   0.166   5.372   1.700 -0.2797 -0.2339 -0.7973
 2726SOL     OW18646   0.938   8.882   3.401  0.2984 -0.1401 -0.0551
 2726SOL    HW118647   0.839   8.892   3.410  0.1517  0.4607 -2.1776
 2726SOL    HW218648   0.966   8.796   3.445 -0.8596  0.6746  2.3602
 2727SOL     OW18649   1.978   6.460   0.405  0.4210  0.1424 -0.2111
 2727SOL    HW118650   1.997   6.513   0.323 -0.0508 -0.3656 -0.6517
 2727SOL    HW218651   1.989   6.363   0.385 -1.6914 -0.1159 -0.2297
 2728SOL     OW18652   5.221   9.011   4.003 -0.1282  0.2337 -0.1480
 2728SOL    HW118653   5.182   9.097   4.037 -1.3223 -0.3376 -0.0365
 2728SOL    HW218654   5.320   9.013   4.014  0.0040  2.1493 -1.4053
 2729SOL     OW18655   1.681   4.022   0.725 -0.0408  0.7294  0.5801
 2729SOL    HW118656   1.670   4.119   0.701  1.2914  0.6748 -0.2788
 2729SOL    HW218657   1.739   4.014   0.806  1.6923  0.5557 -0.6597
 2730SOL     OW18658   7.661   8.888   2.067  0.1642  0.2432  0.1745
 2730SOL    HW118659   7.695   8.966   2.119  0.6332  0.7737 -0.9134
 2730SOL    HW218660   7.566   8.870   2.092  0.4033  0.4455  1.2565
 2731SOL     OW18661   7.911   9.642   2.958  0.1516  0.8156  1.1492
 2731SOL    HW118662   7.909   9.664   3.055  2.0025 -0.0586  1.4213
 2731SOL    HW218663   8.001   9.603   2.935  1.1481  4.4564 -1.6553
 2732SOL     OW18664   9.077   4.996   1.854 -0.6194  0.3529 -0.4597
 2732SOL    HW118665   9.092   5.015   1.951  0.2914 -0.7560 -0.3686
 2732SOL    HW218666   9.042   4.902   1.844 -0.1590  0.2649 -1.2453
 2733SOL     OW18667   2.431   4.186   2.725  0.2226 -0.4453  0.4213
 2733SOL    HW118668   2.417   4.282   2.703 -0.5923 -0.4026  1.1054
 2733SOL    HW218669   2.510   4.151   2.675  1.1487  0.8538  0.9537
 2734SOL     OW18670   2.639   9.458   0.675 -0.7837  0.0102  0.7562
 2734SOL    HW118671   2.624   9.524   0.602  0.9677 -1.7530 -1.2807
 2734SOL    HW218672   2.629   9.503   0.764 -0.6663  2.7283 -0.5577
 2735SOL     OW18673   2.724   9.184   1.966 -0.1436  0.2766 -0.2622
 2735SOL    HW118674   2.751   9.181   1.869 -0.0618  0.8050 -0.2560
 2735SOL    HW218675   2.763   9.105   2.013  0.8453  0.6758 -0.3972
 2736SOL     OW18676   3.974   8.587   3.047  0.2710 -0.9587 -0.3828
 2736SOL    HW118677   3.921   8.670   3.059 -0.1153 -1.0779 -1.2190
 2736SOL    HW218678   3.912   8.509   3.039  0.5308 -0.9904 -2.1865
 2737SOL     OW18679   9.456   9.691   3.711  0.6937  0.3655  0.2973
 2737SOL    HW118680   9.525   9.724   3.647 -0.3030  1.9846  0.0245
 2737SOL    HW218681   9.492   9.612   3.762  1.7791 -0.4332 -1.6698
 2738SOL     OW18682   8.971   8.567   3.550  0.0325  0.2335  0.4492
 2738SOL    HW118683   9.023   8.585   3.634  1.5392  2.1216 -0.8388
 2738SOL    HW218684   8.996   8.477   3.514 -0.9396 -0.7736  2.2373
 2739SOL     OW18685   9.620   9.236   3.334 -0.3022  0.3247  0.4226
 2739SOL    HW118686   9.565   9.288   3.270 -0.5757 -1.5876 -0.9626
 2739SOL    HW218687   9.561   9.182   3.394  0.0021  0.7408  1.1102
 2740SOL     OW18688   2.545   5.578   1.512  0.4281  0.1404 -0.0974
 2740SOL    HW118689   2.627   5.544   1.466  0.7278 -1.4084  1.5317
 2740SOL    HW218690   2.565   5.594   1.609 -1.8531 -2.9339  0.9650
 2741SOL     OW18691   4.288   9.336   1.597  0.3925  0.2648  0.1220
 2741SOL    HW118692   4.258   9.259   1.540  0.7437 -0.1008  0.4375
 2741SOL    HW218693   4.207   9.384   1.632  0.0983 -2.1845  2.9914
 2742SOL     OW18694   1.103   1.506   1.024 -0.6358 -0.1612 -0.1751
 2742SOL    HW118695   1.068   1.472   1.112  0.8385 -0.0395  0.4833
 2742SOL    HW218696   1.112   1.430   0.960 -0.8127 -0.4126  0.0987
 2743SOL     OW18697   7.946   8.312   4.265 -0.8014  0.0945 -0.0066
 2743SOL    HW118698   7.864   8.274   4.223  0.5028 -0.8950 -1.7133
 2743SOL    HW218699   8.008   8.237   4.291  0.0005  0.8734  0.3498
 2744SOL     OW18700   4.508   8.473   2.058 -0.1167  0.3154 -0.4735
 2744SOL    HW118701   4.455   8.409   2.002 -2.0758 -0.3317  2.0487
 2744SOL    HW218702   4.598   8.488   2.015 -0.6031 -2.0787 -2.4605
 2745SOL     OW18703   1.800   8.984   3.923  0.3699 -0.2555 -0.0451
 2745SOL    HW118704   1.773   9.001   3.829  0.5902 -1.9191 -0.4199
 2745SOL    HW218705   1.875   9.046   3.948  1.1277 -0.6337 -1.3417
 2746SOL     OW18706   1.259   3.401   4.184  0.7220 -0.2502 -0.0856
 2746SOL    HW118707   1.302   3.375   4.097  0.6956  0.4237 -0.3040
 2746SOL    HW218708   1.264   3.500   4.195  0.3365 -0.2933  0.4769
 2747SOL     OW18709   1.051   3.741   0.424  0.2216 -0.4974  0.4421
 2747SOL    HW118710   1.008   3.653   0.446  0.0451 -0.2310  1.1890
 2747SOL    HW218711   1.104   3.732   0.340  1.6718 -1.7965  1.4767
 2748SOL     OW18712   7.575   9.994   4.441 -0.7074  0.2923  0.0470
 2748SOL    HW118713   7.670   9.967   4.452 -0.5657  0.7553 -0.0186
 2748SOL    HW218714   7.525   9.924   4.390 -0.0178  0.8278 -1.3762
 2749SOL     OW18715   2.483   9.727   3.433 -0.5026 -0.2162  0.6828
 2749SOL    HW118716   2.495   9.736   3.335  0.9188 -1.8904  0.6733
 2749SOL    HW218717   2.572   9.732   3.478 -0.6497 -3.4604  1.5018
 2750SOL     OW18718   0.233   3.448   1.463  0.2604 -0.1565  0.1138
 2750SOL    HW118719   0.326   3.482   1.476  0.3721 -0.4721  0.1514
 2750SOL    HW218720   0.237   3.352   1.434  0.0091  0.3204 -1.5841
 2751SOL     OW18721   3.830   9.118   1.294 -0.4569  0.1212  0.1142
 2751SOL    HW118722   3.860   9.151   1.384  1.6569 -1.7440  0.1513
 2751SOL    HW218723   3.743   9.070   1.304 -0.5992  0.5444  1.0375
 2752SOL     OW18724   3.948   3.311   3.450  0.1747 -0.0735 -0.0319
 2752SOL    HW118725   3.983   3.240   3.390 -1.7829 -0.0664 -1.2279
 2752SOL    HW218726   3.939   3.275   3.543 -0.4578 -1.2992 -0.5524
 2753SOL     OW18727   5.053   9.143   2.507  0.0908 -0.4710  0.1046
 2753SOL    HW118728   4.979   9.198   2.546 -0.8929 -2.1533  0.6395
 2753SOL    HW218729   5.111   9.109   2.581 -0.1468 -1.3456 -0.1095
 2754SOL     OW18730   2.064   3.224   4.179 -0.2340  0.2389 -0.2292
 2754SOL    HW118731   2.089   3.318   4.156 -0.5010 -0.0982 -1.9351
 2754SOL    HW218732   2.147   3.174   4.205 -0.1769  1.1073  1.3394
 2755SOL     OW18733   2.170   9.535   1.359  0.0904 -0.0836 -0.0778
 2755SOL    HW118734   2.077   9.555   1.391 -0.1589 -1.5344  0.1152
 2755SOL    HW218735   2.232   9.607   1.389 -0.6631  0.0342  1.2234
 2756SOL     OW18736   7.300   8.527   0.633 -0.6427  0.3633  0.1580
 2756SOL    HW118737   7.301   8.619   0.594 -1.0336 -0.0249 -0.7830
 2756SOL    HW218738   7.390   8.507   0.672 -0.5380  1.1203  0.3067
 2757SOL     OW18739   1.992   3.483   0.766  0.0450  0.0824  1.0306
 2757SOL    HW118740   2.084   3.471   0.804  0.1893  0.9037  0.9515
 2757SOL    HW218741   1.928   3.423   0.814  0.5005  0.0001  1.5390
 2758SOL     OW18742   8.643   8.357   0.034  0.6020  0.3387  0.4371
 2758SOL    HW118743   8.654   8.449   0.071 -1.5864 -0.3937  3.1671
 2758SOL    HW218744   8.730   8.308   0.038  1.0539  1.2264  2.1142
 2759SOL     OW18745   9.835   0.020   0.346  0.6158  0.7859 -0.7058
 2759SOL    HW118746   9.803   0.101   0.396  0.5113  0.8425 -0.8637
 2759SOL    HW218747   9.921   0.042   0.300  1.8381  0.1115  1.1709
 2760SOL     OW18748   9.940   7.450   2.928 -0.0883  0.0044  0.5451
 2760SOL    HW118749   9.881   7.430   2.849  0.4085  2.1278 -0.4077
 2760SOL    HW218750  10.034   7.464   2.896 -0.2059  2.6326  1.2660
 2761SOL     OW18751   7.981   0.327   0.799  0.0180  0.0378 -0.1349
 2761SOL    HW118752   7.926   0.253   0.837  0.8600 -0.2171  0.6015
 2761SOL    HW218753   7.957   0.413   0.845  0.9366 -0.2456  0.8870
 2762SOL     OW18754   0.596   8.676   1.364 -0.1384 -0.1028  0.4706
 2762SOL    HW118755   0.559   8.768   1.368  0.2820  0.0797  0.2233
 2762SOL    HW218756   0.522   8.610   1.351 -0.4505  0.1870  0.8076
 2763SOL     OW18757   0.208   0.019   0.065 -0.3214 -0.1335  0.9874
 2763SOL    HW118758   0.142   0.004  -0.009  0.0906  3.2002 -0.1314
 2763SOL    HW218759   0.300  -0.003   0.032  0.1312  3.3439 -0.2625
 2764SOL     OW18760   7.397   7.239   1.472 -0.2303 -0.8474 -0.0140
 2764SOL    HW118761   7.442   7.325   1.496 -0.1358 -1.2119  1.1416
 2764SOL    HW218762   7.451   7.191   1.403  0.4712 -0.6628  0.4038
 2765SOL     OW18763   2.538   2.875   4.514  0.4563 -0.5386  0.3067
 2765SOL    HW118764   2.439   2.859   4.508  0.7382 -1.7479 -1.8228
 2765SOL    HW218765   2.554   2.971   4.537 -1.2320 -0.0029 -0.5804
 2766SOL     OW18766   2.663   3.526   1.195  0.1421 -0.3732  0.1741
 2766SOL    HW118767   2.616   3.561   1.114  0.7725 -0.8546 -0.4044
 2766SOL    HW218768   2.734   3.591   1.223 -0.7792  0.2922  0.9704
 2767SOL     OW18769   9.712   9.942   1.123  0.3979  0.2034  0.3359
 2767SOL    HW118770   9.793   9.976   1.171  0.2576  0.6379  0.2651
 2767SOL    HW218771   9.637   9.931   1.187  0.6190 -0.5494  0.4680
 2768SOL     OW18772   3.734   2.832   4.012  0.0084 -0.3366 -0.6002
 2768SOL    HW118773   3.665   2.904   4.010 -0.3535 -0.6984 -1.4085
 2768SOL    HW218774   3.742   2.791   3.921  1.4459 -0.1483 -0.5751
 2769SOL     OW18775   1.957   5.679   3.516  0.4867  0.2282  0.2766
 2769SOL    HW118776   1.945   5.774   3.488 -0.3980 -0.4374 -1.6975
 2769SOL    HW218777   2.054   5.661   3.532  0.7933  1.1777 -0.4346
 2770SOL     OW18778   2.471   8.817   1.880 -0.8143 -0.3360  0.0402
 2770SOL    HW118779   2.444   8.861   1.795 -0.6277  0.3183  0.3151
 2770SOL    HW218780   2.393   8.815   1.943 -0.7467 -0.1354  0.1328
 2771SOL     OW18781   3.123   3.852   3.871  0.1683  0.1212  0.0869
 2771SOL    HW118782   3.038   3.865   3.922 -0.2833 -1.6453 -0.2185
 2771SOL    HW218783   3.182   3.932   3.886 -0.8792  0.6467  1.5650
 2772SOL     OW18784   2.858   4.272   2.082 -0.0935  0.0603 -0.0844
 2772SOL    HW118785   2.949   4.313   2.082 -0.9486  2.0091  0.0386
 2772SOL    HW218786   2.789   4.343   2.095 -1.6411 -1.3982 -0.1028
 2773SOL     OW18787   7.319   9.366   3.279 -0.0154  0.1316  0.2796
 2773SOL    HW118788   7.227   9.381   3.245  1.0817 -0.9087 -3.3614
 2773SOL    HW218789   7.319   9.287   3.341 -1.5278  0.0872  0.2403
 2774SOL     OW18790   2.276   2.303   2.324  0.2752  0.4986  0.0087
 2774SOL    HW118791   2.265   2.288   2.226 -1.3669  0.5797  0.1714
 2774SOL    HW218792   2.199   2.356   2.359  1.0246  0.7768  1.2911
 2775SOL     OW18793   0.614   3.236   2.423 -0.1085  0.7106  0.0067
 2775SOL    HW118794   0.538   3.300   2.437 -0.0737  1.0679 -1.4067
 2775SOL    HW218795   0.687   3.282   2.374 -0.0547 -0.4065 -0.9673
 2776SOL     OW18796   1.620   1.990   0.337  0.2177  0.3447 -0.0803
 2776SOL    HW118797   1.686   1.934   0.288 -2.1946 -2.5474 -0.1481
 2776SOL    HW218798   1.621   1.965   0.434 -0.4372  0.6050 -0.0048
 2777SOL     OW18799   5.961   8.806   2.105  0.2666 -0.4704  0.4718
 2777SOL    HW118800   5.882   8.820   2.165  0.0961 -1.2921  0.4483
 2777SOL    HW218801   5.934   8.749   2.027  0.5062  0.5274 -0.3526
 2778SOL     OW18802   1.111   6.979   3.511 -0.3985 -0.6462 -0.2829
 2778SOL    HW118803   1.191   6.998   3.568 -1.0349 -1.4137  0.8955
 2778SOL    HW218804   1.092   7.058   3.453 -0.5183  0.7037  1.5176
 2779SOL     OW18805   0.725   0.486   2.978 -1.0045  0.3395 -0.0450
 2779SOL    HW118806   0.793   0.450   3.042  0.7666  2.1662 -0.8476
 2779SOL    HW218807   0.636   0.488   3.022 -0.1566 -0.1591  1.7374
 2780SOL     OW18808   0.922   5.655   0.140 -0.4806 -0.1051 -0.4483
 2780SOL    HW118809   0.914   5.602   0.225  3.2802 -0.8657 -0.4482
 2780SOL    HW218810   0.948   5.749   0.163  0.4319 -0.2845 -0.7221
 2781SOL     OW18811   1.879   0.100   2.282  0.5325 -0.6279  0.1546
 2781SOL    HW118812   1.787   0.097   2.240 -0.7951 -2.1207  3.0287
 2781SOL    HW218813   1.947   0.078   2.212 -1.4216 -0.9266 -1.7407
 2782SOL     OW18814   2.434   4.594   3.343 -0.4092 -0.1177 -0.6193
 2782SOL    HW118815   2.531   4.598   3.318 -0.4075  0.6074 -0.5094
 2782SOL    HW218816   2.421   4.525   3.414 -0.2049 -1.2431 -1.6575
 2783SOL     OW18817   3.138   0.408   4.683  0.3581 -0.2998  0.6980
 2783SOL    HW118818   3.205   0.335   4.673  0.6488  0.2324 -1.5451
 2783SOL    HW218819   3.183   0.497   4.674 -0.6032  0.0602 -0.8755
 2784SOL     OW18820   0.505   7.331   3.536  0.1047 -0.3242 -0.3236
 2784SOL    HW118821   0.542   7.405   3.481  1.9638 -0.5889  0.5189
 2784SOL    HW218822   0.421   7.360   3.581  0.4888  1.0724 -0.5026
 2785SOL     OW18823   3.933   2.324   2.572 -0.1444 -0.0714 -0.4529
 2785SOL    HW118824   4.005   2.389   2.596 -1.3109  1.2868 -0.6350
 2785SOL    HW218825   3.955   2.235   2.613  0.7913  0.7519  0.8814
 2786SOL     OW18826   0.737   4.660   2.502  0.4822  0.3712 -0.0756
 2786SOL    HW118827   0.819   4.710   2.529  2.0333 -0.6716 -2.6427
 2786SOL    HW218828   0.751   4.562   2.519  0.0169  0.1183 -1.1334
 2787SOL     OW18829   6.936   9.826   1.496 -0.3562  0.2476 -0.1097
 2787SOL    HW118830   6.926   9.837   1.595  0.2622 -0.4496  0.0296
 2787SOL    HW218831   6.881   9.749   1.466  1.4465 -1.1441  0.0778
 2788SOL     OW18832   1.980   5.252   1.776 -0.0788  0.5264 -0.6951
 2788SOL    HW118833   2.036   5.171   1.790 -0.6055  0.0412 -1.3586
 2788SOL    HW218834   2.039   5.332   1.766  0.4218  0.3609  0.7439
 2789SOL     OW18835   1.071   8.820   1.512  0.4512 -0.5730  0.0150
 2789SOL    HW118836   1.098   8.766   1.592 -0.0204 -0.2430  0.4008
 2789SOL    HW218837   0.991   8.876   1.535  1.0480  0.4331 -0.3330
 2790SOL     OW18838   1.514   4.978   1.495  0.3767 -0.4123  0.1110
 2790SOL    HW118839   1.607   4.957   1.467  0.8918  1.0452  0.6476
 2790SOL    HW218840   1.484   4.914   1.566  0.8819 -1.0338 -0.2436
 2791SOL     OW18841   1.031   4.363   1.022 -0.3916 -0.1435 -0.0917
 2791SOL    HW118842   1.054   4.454   1.057  3.5955 -0.6297 -1.1774
 2791SOL    HW218843   1.015   4.368   0.924 -0.3638 -0.5906 -0.1202
 2792SOL     OW18844   0.956   0.696   1.941  0.3865 -0.5736 -0.1890
 2792SOL    HW118845   1.049   0.703   1.907 -0.1139 -1.7001 -1.8354
 2792SOL    HW218846   0.892   0.733   1.874 -0.3778  0.1184  0.8891
 2793SOL     OW18847   0.923   5.531   2.201 -0.2396  0.6930  0.1644
 2793SOL    HW118848   1.004   5.590   2.194  0.3557  0.1506  2.0963
 2793SOL    HW218849   0.847   5.571   2.150  1.4974  0.7497 -2.4912
 2794SOL     OW18850   8.887   8.412   2.792 -0.0964  0.4559 -0.1157
 2794SOL    HW118851   8.851   8.495   2.836  0.2989  0.6845 -0.2226
 2794SOL    HW218852   8.971   8.434   2.744  0.1691 -0.0719  0.1033
 2795SOL     OW18853   0.750   9.623   4.738  0.7233 -0.0560  0.9054
 2795SOL    HW118854   0.747   9.674   4.824 -0.5471 -0.6838  1.2477
 2795SOL    HW218855   0.774   9.528   4.756 -2.6558 -0.9694  0.9899
 2796SOL     OW18856   3.233   5.067   3.423  0.6234  0.2284 -0.8821
 2796SOL    HW118857   3.254   5.030   3.514  0.1636 -2.4533 -1.8333
 2796SOL    HW218858   3.146   5.029   3.391  0.8469  1.0593 -2.5031
 2797SOL     OW18859   2.855   2.205   3.359 -0.8741 -0.5539 -0.4686
 2797SOL    HW118860   2.913   2.206   3.440  0.1111 -1.1567 -1.1644
 2797SOL    HW218861   2.809   2.293   3.350 -1.8158 -0.8173  1.3270
 2798SOL     OW18862   4.839   7.618   2.736 -0.4253  0.3090  0.3796
 2798SOL    HW118863   4.914   7.657   2.682 -0.3116  0.2367  0.4834
 2798SOL    HW218864   4.811   7.531   2.695 -0.6280  0.4625  0.1919
 2799SOL     OW18865   2.563   7.185   0.878 -0.0782 -0.2718  0.2051
 2799SOL    HW118866   2.651   7.227   0.901  0.9727 -2.7859  1.0501
 2799SOL    HW218867   2.578   7.111   0.813 -1.7604  0.1177 -0.6538
 2800SOL     OW18868   0.101   9.233   1.881 -0.1850 -0.0015 -0.0390
 2800SOL    HW118869   0.160   9.273   1.811 -0.6499 -0.6569 -0.8147
 2800SOL    HW218870   0.115   9.280   1.967  2.0132 -0.6318 -0.0271
 2801SOL     OW18871   2.979   4.481   2.776  0.6474  0.5377 -0.1343
 2801SOL    HW118872   2.934   4.392   2.786  0.1037  0.9248  1.0417
 2801SOL    HW218873   3.078   4.468   2.771  0.5043 -0.2160 -1.1929
 2802SOL     OW18874   2.225   4.176   3.817 -0.3389  0.0332  0.2119
 2802SOL    HW118875   2.127   4.179   3.795 -0.6226 -0.2907  1.4007
 2802SOL    HW218876   2.276   4.146   3.737 -1.3442 -1.0237 -0.0380
 2803SOL     OW18877   0.771   4.526   1.379  0.5718 -0.7197 -0.6295
 2803SOL    HW118878   0.686   4.484   1.411 -0.0934  0.7764 -0.4025
 2803SOL    HW218879   0.849   4.478   1.420 -0.1547 -2.1532 -0.9093
 2804SOL     OW18880   4.859   8.980   2.722  0.5708 -0.5984 -0.0673
 2804SOL    HW118881   4.835   9.044   2.649  0.9952 -0.1750  0.1611
 2804SOL    HW218882   4.958   8.962   2.720  0.6754 -0.1147  0.7838
 2805SOL     OW18883   3.503   3.621   3.841  0.7664  0.4383 -0.4261
 2805SOL    HW118884   3.548   3.686   3.780 -1.0285  0.0693 -2.1872
 2805SOL    HW218885   3.414   3.656   3.868  0.7381 -0.2738  0.4103
 2806SOL     OW18886   0.127   3.291   2.180  0.4929  0.0054 -0.4147
 2806SOL    HW118887   0.070   3.288   2.263  0.5250 -0.1971 -0.4006
 2806SOL    HW218888   0.082   3.346   2.110  0.8939  0.9759  0.0671
 2807SOL     OW18889   9.849   7.985   2.144 -0.0520  0.0617  0.0638
 2807SOL    HW118890   9.777   7.932   2.188  0.3379 -0.0359  0.5840
 2807SOL    HW218891   9.938   7.946   2.168  0.0895 -1.4466 -2.6826
 2808SOL     OW18892   0.213   0.252   0.488  0.0684 -0.1502  0.7531
 2808SOL    HW118893   0.165   0.196   0.556 -1.4922  0.1661 -0.0617
 2808SOL    HW218894   0.236   0.195   0.409 -0.4800  0.0891  0.4205
 2809SOL     OW18895   1.915   1.340   0.460  0.6555 -0.1866 -0.2238
 2809SOL    HW118896   1.831   1.366   0.509 -0.1003 -0.9362 -1.1097
 2809SOL    HW218897   1.969   1.279   0.518  0.6057  0.3142  0.3586
 2810SOL     OW18898   1.958   6.293   2.974 -0.0776 -0.2797 -0.0051
 2810SOL    HW118899   2.005   6.352   2.908  0.1898 -0.9748 -0.4335
 2810SOL    HW218900   1.877   6.254   2.931 -0.6460  0.3244  0.5018
 2811SOL     OW18901   0.150   2.512   2.076  0.0239 -0.0071 -0.0669
 2811SOL    HW118902   0.231   2.476   2.030  0.4925  0.2808  0.5198
 2811SOL    HW218903   0.144   2.472   2.168  1.1961  2.2916  1.0357
 2812SOL     OW18904   0.434   4.324   2.392 -0.0937  0.3342 -0.0386
 2812SOL    HW118905   0.369   4.364   2.457  2.4309  0.7677  2.3485
 2812SOL    HW218906   0.472   4.396   2.334 -0.8741  0.2674 -0.6279
 2813SOL     OW18907   0.503   7.986   0.201  0.5760 -0.2900  0.3288
 2813SOL    HW118908   0.418   8.002   0.251  1.3258  3.2655  0.5530
 2813SOL    HW218909   0.572   7.950   0.263  0.4456  0.7391  1.0761
 2814SOL     OW18910   0.508   6.852   3.310  0.2781  0.6202 -0.0695
 2814SOL    HW118911   0.578   6.818   3.372  0.9019  2.7110  0.4163
 2814SOL    HW218912   0.448   6.916   3.360 -0.6163  0.5585 -1.0458
 2815SOL     OW18913   2.311   6.455   1.973  0.1706  0.0949 -0.0496
 2815SOL    HW118914   2.372   6.534   1.969  1.4462 -0.8403  0.5009
 2815SOL    HW218915   2.298   6.417   1.881  0.3885  0.3293 -0.1756
 2816SOL     OW18916   1.957   4.877   3.588  0.7173 -0.0322 -0.3210
 2816SOL    HW118917   1.901   4.850   3.510  0.4787 -0.8805  0.1283
 2816SOL    HW218918   2.052   4.848   3.573  0.5119 -0.9269  0.0474
 2817SOL     OW18919   9.918   5.167   3.766 -0.0170 -0.1242 -0.4029
 2817SOL    HW118920   9.900   5.077   3.727  0.5892 -0.2454 -0.4066
 2817SOL    HW218921   9.954   5.227   3.695 -2.4909  0.7881 -0.9440
 2818SOL     OW18922   2.883   7.534   4.721 -0.5253  0.1364  0.0836
 2818SOL    HW118923   2.862   7.438   4.736  0.7343 -0.0764  0.5480
 2818SOL    HW218924   2.855   7.561   4.629 -0.8057 -0.6910 -0.0729
 2819SOL     OW18925   6.371   0.243   2.663  0.3273  0.4073  0.0460
 2819SOL    HW118926   6.363   0.334   2.704  2.8497  1.9821 -2.7562
 2819SOL    HW218927   6.397   0.177   2.733  0.7747  2.2956  1.7008
 2820SOL     OW18928   1.577   0.748   1.086  0.5543 -0.6958 -0.4359
 2820SOL    HW118929   1.484   0.716   1.108  0.2909  0.5286  0.2681
 2820SOL    HW218930   1.588   0.754   0.987  0.1348 -1.5780 -0.5403
 2821SOL     OW18931   0.920   3.238   3.449 -0.4407 -0.3374  0.2138
 2821SOL    HW118932   0.840   3.182   3.471 -1.8864  1.8634  0.7481
 2821SOL    HW218933   0.910   3.328   3.492  2.4665 -0.1096  0.5127
 2822SOL     OW18934   8.561   8.319   3.189 -0.1822 -0.1343  0.2268
 2822SOL    HW118935   8.474   8.296   3.146  0.2160 -1.2997  0.0091
 2822SOL    HW218936   8.595   8.239   3.239 -0.6660  1.2212  2.7779
 2823SOL     OW18937   6.435   0.540   2.448  0.0472 -0.0585 -0.2835
 2823SOL    HW118938   6.438   0.549   2.548 -0.5225  0.6823 -0.3306
 2823SOL    HW218939   6.426   0.444   2.424  1.3064 -0.3526  0.3477
 2824SOL     OW18940   2.536   3.683   2.717  0.2967  0.6023 -0.7448
 2824SOL    HW118941   2.486   3.751   2.663 -0.1178 -0.5438 -1.8188
 2824SOL    HW218942   2.472   3.634   2.776  0.3866  0.2331 -0.9503
 2825SOL     OW18943   4.948   8.653   2.782 -0.0015  0.0931 -0.5693
 2825SOL    HW118944   4.864   8.704   2.803  0.5979  0.7287  0.2959
 2825SOL    HW218945   5.014   8.665   2.856  0.5733 -1.0260 -0.8968
 2826SOL     OW18946   1.258   7.305   2.588  0.2465 -0.2201  0.5090
 2826SOL    HW118947   1.190   7.256   2.533  0.4089 -0.3263  0.4039
 2826SOL    HW218948   1.213   7.348   2.666 -0.1881  0.9423 -0.3697
 2827SOL     OW18949   4.291   7.325   1.988 -0.4997  0.5541  0.2211
 2827SOL    HW118950   4.328   7.416   1.970 -0.1849  0.5497  0.8313
 2827SOL    HW218951   4.298   7.305   2.086 -0.9563  0.0426  0.1528
 2828SOL     OW18952   1.600   2.981   3.339 -0.0296 -0.4368  0.4565
 2828SOL    HW118953   1.559   3.054   3.393  1.0523 -0.3659  1.1950
 2828SOL    HW218954   1.632   3.018   3.252 -1.5480 -0.5025 -0.1486
 2829SOL     OW18955   3.399   3.965   2.593 -0.1066 -0.5325  0.2574
 2829SOL    HW118956   3.363   3.892   2.535  0.2412 -0.6154  0.1418
 2829SOL    HW218957   3.470   3.927   2.653  0.6591 -0.1269 -0.3833
 2830SOL     OW18958   3.192   5.591   0.835  0.0987 -0.1398 -0.5345
 2830SOL    HW118959   3.206   5.492   0.833 -1.3595 -0.3380 -1.6375
 2830SOL    HW218960   3.122   5.616   0.768 -2.0780  1.2164  2.1120
 2831SOL     OW18961   1.550   2.104   4.726  0.1366 -0.5093 -0.2140
 2831SOL    HW118962   1.567   2.157   4.643 -2.4624  0.1386 -0.3724
 2831SOL    HW218963   1.624   2.120   4.791  0.3443  1.8729 -0.9870
 2832SOL     OW18964   4.249   0.296   0.947  0.0755 -0.2463 -0.4800
 2832SOL    HW118965   4.232   0.199   0.933 -1.0573  0.0121 -0.9014
 2832SOL    HW218966   4.163   0.346   0.943  0.3875  0.5294  1.7631
 2833SOL     OW18967   0.378   6.374   3.563  0.0249 -0.0398  0.4842
 2833SOL    HW118968   0.381   6.438   3.486 -0.0271  1.0558  1.3880
 2833SOL    HW218969   0.284   6.368   3.598 -0.2341 -1.5983 -0.4025
 2834SOL     OW18970   2.581   4.505   3.771 -0.3311 -0.0182 -0.2841
 2834SOL    HW118971   2.661   4.544   3.725  0.1414  0.0005  0.5550
 2834SOL    HW218972   2.547   4.570   3.839 -1.1042  0.0023 -0.6810
 2835SOL     OW18973   3.405   8.357   1.180  0.4814  1.0655  0.4119
 2835SOL    HW118974   3.493   8.387   1.218  1.2691  0.5145 -0.9350
 2835SOL    HW218975   3.380   8.415   1.103 -1.0495  2.0974  1.6452
 2836SOL     OW18976   2.225   1.086   1.603 -0.5657 -0.1864  0.5899
 2836SOL    HW118977   2.199   1.022   1.676  0.2524  0.3687  1.3831
 2836SOL    HW218978   2.166   1.167   1.608 -0.3834 -0.0642  0.7553
 2837SOL     OW18979   1.542   5.003   3.123  0.0023 -0.0610 -0.3411
 2837SOL    HW118980   1.475   4.987   3.050 -0.3117  1.4266 -0.3821
 2837SOL    HW218981   1.496   5.042   3.202  0.7224  0.4367 -0.1614
 2838SOL     OW18982   3.474   2.867   3.437  0.3546  0.2540 -0.3670
 2838SOL    HW118983   3.396   2.806   3.447 -0.1604  0.6593 -1.6784
 2838SOL    HW218984   3.559   2.814   3.434 -0.1097 -0.4311 -1.7645
 2839SOL     OW18985   4.276   8.125   0.378 -0.1611 -0.2158  0.0614
 2839SOL    HW118986   4.233   8.147   0.290  0.0177 -1.1956 -0.2762
 2839SOL    HW218987   4.346   8.194   0.399 -0.4397  0.2143 -0.3897
 2840SOL     OW18988   0.477   6.645   3.639 -0.5296  0.1799 -0.3039
 2840SOL    HW118989   0.409   6.691   3.697 -0.2023 -0.3567  0.5198
 2840SOL    HW218990   0.464   6.546   3.644 -0.5808  0.1355 -1.2610
 2841SOL     OW18991   0.156   8.448   2.389  0.1193  0.4885  0.0819
 2841SOL    HW118992   0.174   8.535   2.343  1.5226  0.0396 -0.2576
 2841SOL    HW218993   0.175   8.372   2.326 -2.6162 -0.0607 -0.1412
 2842SOL     OW18994   8.379   9.798   0.601  0.0229  0.4335 -0.2541
 2842SOL    HW118995   8.431   9.739   0.663 -1.4007  0.8496  1.3583
 2842SOL    HW218996   8.361   9.749   0.516  1.7238 -0.2546 -0.2406
 2843SOL     OW18997   0.829   1.196   1.299 -0.8774 -0.4768  0.1456
 2843SOL    HW118998   0.738   1.163   1.275 -0.8966  0.2210 -0.7788
 2843SOL    HW218999   0.890   1.118   1.313 -1.2505 -0.9317 -0.7069
 2844SOL     OW19000   5.104   8.687   2.165  0.2540 -0.0948  0.5152
 2844SOL    HW119001   5.015   8.677   2.121  0.2231 -1.2269  0.8310
 2844SOL    HW219002   5.092   8.725   2.256  0.2729  1.7247 -0.2250
 2845SOL     OW19003   0.690   8.821   1.735  0.9065 -0.3424  0.4503
 2845SOL    HW119004   0.739   8.872   1.664  0.8087 -1.2758 -0.3041
 2845SOL    HW219005   0.637   8.748   1.693 -1.2706  0.7296  1.2557
 2846SOL     OW19006   2.495   1.685   0.425  0.0538  0.0650 -0.6267
 2846SOL    HW119007   2.471   1.711   0.519 -0.3556  0.8909 -0.9562
 2846SOL    HW219008   2.594   1.691   0.413  0.1001  0.0472 -0.2754
 2847SOL     OW19009   2.358   4.150   3.368  0.4038  0.0930 -0.4072
 2847SOL    HW119010   2.388   4.171   3.275 -0.0288  2.8066  0.0097
 2847SOL    HW219011   2.302   4.225   3.403  0.9087 -0.6690  2.2037
 2848SOL     OW19012   6.496   8.895   2.857  0.1206  0.3395  0.5650
 2848SOL    HW119013   6.419   8.956   2.878 -2.7907 -3.0388  0.2857
 2848SOL    HW219014   6.509   8.891   2.758  0.3768  0.5821  0.5888
 2849SOL     OW19015   2.988   1.482   4.567 -0.0625  0.2649 -0.0838
 2849SOL    HW119016   2.935   1.558   4.607 -0.1926  0.3429 -0.3979
 2849SOL    HW219017   3.083   1.489   4.596 -0.2404  0.0850  0.5414
 2850SOL     OW19018   0.017   9.908   2.216 -0.1457 -0.1233 -0.4935
 2850SOL    HW119019   0.029   9.991   2.162  0.7307 -0.6567 -1.1408
 2850SOL    HW219020  -0.060   9.855   2.181 -0.6302  0.3571 -0.1544
 2851SOL     OW19021   1.600   6.609   2.240 -0.2592  0.1361  0.6900
 2851SOL    HW119022   1.522   6.590   2.301  0.3639  0.9427  1.7510
 2851SOL    HW219023   1.663   6.532   2.241 -0.9093 -0.4145  0.0233
 2852SOL     OW19024   7.772   8.798   3.762 -0.1634 -0.2755  0.1093
 2852SOL    HW119025   7.696   8.752   3.715 -0.2692  0.4043 -0.4058
 2852SOL    HW219026   7.810   8.868   3.702 -0.1386  0.4456  0.9560
 2853SOL     OW19027   3.017   4.135   4.731  0.2202  0.3161 -0.5467
 2853SOL    HW119028   2.995   4.231   4.749  0.0996 -0.2674  2.6761
 2853SOL    HW219029   2.945   4.094   4.675 -1.4878  1.2383  0.9332
 2854SOL     OW19030   6.875   9.748   4.393 -0.5293 -0.0949 -0.0148
 2854SOL    HW119031   6.809   9.687   4.437  0.1375  1.3509  3.1413
 2854SOL    HW219032   6.851   9.843   4.412  2.0344  0.4750  0.6427
 2855SOL     OW19033   0.056   0.693   4.741  0.2447  0.1428  0.1773
 2855SOL    HW119034   0.121   0.624   4.774 -0.9349 -1.5613 -0.9555
 2855SOL    HW219035   0.088   0.730   4.654  0.5571  0.5524  0.4674
 2856SOL     OW19036   1.160   4.843   1.216  0.4682 -0.8312  0.0778
 2856SOL    HW119037   1.259   4.849   1.206  0.4007 -1.5621 -1.0839
 2856SOL    HW219038   1.123   4.934   1.235  1.2379 -0.3609 -0.6458
 2857SOL     OW19039   2.878   7.665   1.231 -0.8598 -0.2000  0.6783
 2857SOL    HW119040   2.818   7.681   1.310  0.0169 -0.3891  1.3942
 2857SOL    HW219041   2.864   7.572   1.197 -0.4264 -0.5040  1.3213
 2858SOL     OW19042   9.416   5.831   4.446  0.0035  0.2935 -0.5327
 2858SOL    HW119043   9.317   5.829   4.435 -0.0681  0.6823  0.0368
 2858SOL    HW219044   9.439   5.839   4.543  0.6251 -2.3309 -0.4386
 2859SOL     OW19045   3.815   4.084   3.796 -0.5123 -0.0626  0.4983
 2859SOL    HW119046   3.861   4.011   3.746 -3.2259 -0.8731 -0.9297
 2859SOL    HW219047   3.789   4.051   3.887  1.9350  0.5023  1.4294
 2860SOL     OW19048   3.602   1.537   2.678 -0.4919 -0.0688  0.6213
 2860SOL    HW119049   3.534   1.602   2.645 -0.1159  0.3766  0.7254
 2860SOL    HW219050   3.557   1.463   2.728 -0.9374 -0.0131  0.2990
 2861SOL     OW19051   0.242   0.167   2.986 -0.2024 -0.5316  0.0779
 2861SOL    HW119052   0.331   0.206   2.961 -1.0603  0.1937 -1.9351
 2861SOL    HW219053   0.256   0.075   3.023  1.4197 -0.2346  0.2503
 2862SOL     OW19054   3.477   0.082   0.147  0.3993 -0.4240 -0.3009
 2862SOL    HW119055   3.476   0.182   0.150  0.4400 -0.4607  2.0873
 2862SOL    HW219056   3.497   0.047   0.238 -1.8207 -2.6670 -0.6504
 2863SOL     OW19057   9.979   5.450   0.848  0.7291  0.1410  0.3258
 2863SOL    HW119058   9.888   5.487   0.827  1.2375  2.6439  2.2668
 2863SOL    HW219059  10.040   5.467   0.771 -0.6918 -2.6103 -1.4777
 2864SOL     OW19060   2.857   5.328   3.056  0.3930  0.0130  0.2311
 2864SOL    HW119061   2.892   5.375   3.137  0.9783  0.9452 -0.5521
 2864SOL    HW219062   2.931   5.318   2.989 -0.5651  1.0890 -1.0248
 2865SOL     OW19063   4.369   8.911   4.147  0.0171 -0.0654 -0.0968
 2865SOL    HW119064   4.300   8.982   4.165  0.1436  0.1861 -0.6027
 2865SOL    HW219065   4.342   8.857   4.067 -0.4953 -1.1219  0.7778
 2866SOL     OW19066   1.973   1.538   4.363 -0.2792  0.2567  0.2331
 2866SOL    HW119067   2.004   1.452   4.322  0.0888  1.0975 -1.2929
 2866SOL    HW219068   1.921   1.519   4.446 -1.5224 -1.5180 -0.9321
 2867SOL     OW19069   0.110   6.083   4.526  0.0725  0.1523  0.2141
 2867SOL    HW119070   0.191   6.134   4.553 -0.7631  2.1920 -1.0407
 2867SOL    HW219071   0.123   6.045   4.434 -0.4354  0.5617 -0.0260
 2868SOL     OW19072   2.418   6.198   3.394 -0.2639  0.1071  0.1941
 2868SOL    HW119073   2.498   6.229   3.445 -1.0714  0.7430  1.0870
 2868SOL    HW219074   2.395   6.266   3.325 -0.2777  0.1061  0.1977
 2869SOL     OW19075   2.779   2.826   2.130  0.2020  0.1016  0.0429
 2869SOL    HW119076   2.685   2.852   2.152 -0.0377  0.4998 -1.3485
 2869SOL    HW219077   2.784   2.728   2.113 -0.5460  0.4719 -2.5595
 2870SOL     OW19078   0.849   5.645   2.678 -0.5095  0.8054 -0.1201
 2870SOL    HW119079   0.872   5.632   2.774 -1.5970  2.1085  0.3313
 2870SOL    HW219080   0.914   5.710   2.637  1.2473 -1.3405 -0.8334
 2871SOL     OW19081   2.562   7.553   3.774 -0.3223  0.2227 -0.1547
 2871SOL    HW119082   2.602   7.644   3.757  1.2013  0.0209  2.1881
 2871SOL    HW219083   2.631   7.483   3.757 -1.5724 -0.5779 -2.2074
 2872SOL     OW19084   2.728   2.658   1.188 -0.7734 -1.0299  0.0347
 2872SOL    HW119085   2.663   2.732   1.168  0.2359 -0.3080 -0.6324
 2872SOL    HW219086   2.792   2.689   1.259  0.2178 -0.9319 -0.8931
 2873SOL     OW19087   7.309   8.517   1.078 -0.3271  0.4509  0.4005
 2873SOL    HW119088   7.378   8.446   1.069 -0.6700  0.3928 -2.1390
 2873SOL    HW219089   7.228   8.493   1.024 -0.7803  2.3340  0.1829
 2874SOL     OW19090   7.761   7.261   3.497  0.2122  0.3923 -0.2236
 2874SOL    HW119091   7.715   7.343   3.462  1.4705  0.7350 -1.1316
 2874SOL    HW219092   7.740   7.183   3.438  0.8403  0.5653 -0.6820
 2875SOL     OW19093   8.200   9.649   4.120  0.0134 -0.2633 -0.8412
 2875SOL    HW119094   8.299   9.644   4.125  0.1367  1.4460 -1.3176
 2875SOL    HW219095   8.159   9.587   4.188  1.3868 -0.7921 -0.4911
 2876SOL     OW19096   6.989   9.346   2.517  0.4339 -0.0742 -0.0384
 2876SOL    HW119097   6.999   9.388   2.608  0.6689 -2.6254  1.1593
 2876SOL    HW219098   7.044   9.263   2.513 -0.0632 -0.3143 -2.3303
 2877SOL     OW19099   5.072   8.642   3.365 -0.2891 -0.4715 -0.1485
 2877SOL    HW119100   5.102   8.730   3.327 -1.7584  0.7065  1.3701
 2877SOL    HW219101   5.063   8.575   3.291 -2.4620  1.5827 -1.7974
 2878SOL     OW19102   2.207   6.045   4.596 -0.1615 -0.0246 -0.4765
 2878SOL    HW119103   2.273   5.988   4.548 -0.2589  0.0705 -0.7250
 2878SOL    HW219104   2.118   5.999   4.597 -0.5563  0.6718 -1.7774
 2879SOL     OW19105   1.650   0.811   3.148 -0.7035  0.3750 -0.6125
 2879SOL    HW119106   1.552   0.819   3.130 -0.7102  1.6930 -0.0543
 2879SOL    HW219107   1.692   0.902   3.144 -0.0808  0.2647  2.4125
 2880SOL     OW19108   7.375   9.301   3.676 -0.2504 -0.8961 -0.5161
 2880SOL    HW119109   7.290   9.339   3.640 -1.1290 -0.6944  1.6391
 2880SOL    HW219110   7.447   9.370   3.670 -0.5179 -0.6905 -1.3700
 2881SOL     OW19111   2.398   5.390   3.858 -0.5739  0.1312 -0.2325
 2881SOL    HW119112   2.343   5.474   3.857 -0.5066  0.2157  1.1794
 2881SOL    HW219113   2.446   5.384   3.946  0.5598 -0.6533 -0.9021
 2882SOL     OW19114   1.366   7.325   1.388 -0.0362 -0.1385  0.1364
 2882SOL    HW119115   1.369   7.422   1.414  0.5459  0.0524 -0.6128
 2882SOL    HW219116   1.417   7.271   1.455  0.6202  0.2268 -0.0599
 2883SOL     OW19117   3.425   7.115   0.058  0.1459  0.2941 -0.3798
 2883SOL    HW119118   3.494   7.065   0.004  0.2006 -1.4231  1.2152
 2883SOL    HW219119   3.471   7.179   0.118  0.4896 -1.6741  1.5238
 2884SOL     OW19120   3.261   0.037   1.242 -0.0961 -0.1930 -0.2366
 2884SOL    HW119121   3.298  -0.056   1.233 -3.1277 -1.5992  1.0875
 2884SOL    HW219122   3.200   0.056   1.165 -0.9620 -0.0258  0.4878
 2885SOL     OW19123   8.852   7.759   2.788 -0.3516  0.0975 -1.0048
 2885SOL    HW119124   8.814   7.782   2.878 -0.3379  0.3329 -1.0587
 2885SOL    HW219125   8.904   7.674   2.794  1.2290  1.0902 -0.3856
 2886SOL     OW19126   1.432   8.760   1.737 -0.2135  0.2206  0.4649
 2886SOL    HW119127   1.451   8.715   1.650 -1.3201 -0.3066  0.4791
 2886SOL    HW219128   1.510   8.750   1.798  0.2632 -0.0929 -0.1949
 2887SOL     OW19129   3.322   8.582   2.462 -0.0356  0.2498  0.2378
 2887SOL    HW119130   3.297   8.495   2.504 -1.4694  0.2991 -0.4880
 2887SOL    HW219131   3.239   8.630   2.432  0.8048  1.3789 -0.3145
 2888SOL     OW19132   3.436   8.076   3.090 -0.2177 -0.7842  0.1226
 2888SOL    HW119133   3.520   8.045   3.137 -0.0620  1.0678  1.1088
 2888SOL    HW219134   3.356   8.046   3.142 -0.0369  1.6796  1.9160
 2889SOL     OW19135   0.668   5.253   0.457 -0.6491  0.0911 -0.8375
 2889SOL    HW119136   0.648   5.306   0.375  0.9483  2.9341  0.5497
 2889SOL    HW219137   0.746   5.192   0.439 -0.3272  0.6760 -1.4427
 2890SOL     OW19138   1.756   2.283   1.184 -0.4673 -0.1285 -0.2068
 2890SOL    HW119139   1.741   2.185   1.171 -4.2404  0.0345  2.1953
 2890SOL    HW219140   1.804   2.298   1.270  2.3994  0.0957 -1.7619
 2891SOL     OW19141   7.156   9.329   0.215 -0.3789  0.6316 -0.1667
 2891SOL    HW119142   7.178   9.427   0.224 -0.9100  0.5172  2.8813
 2891SOL    HW219143   7.241   9.276   0.220 -0.2162  0.8626 -0.4550
 2892SOL     OW19144   5.118   9.790   2.894 -0.8942  0.7886 -0.1942
 2892SOL    HW119145   5.061   9.842   2.829 -0.1827  1.3867 -0.3422
 2892SOL    HW219146   5.206   9.769   2.851  0.0356  2.2075  0.9962
 2893SOL     OW19147   7.543   7.567   0.968  0.4763 -0.1066 -0.6031
 2893SOL    HW119148   7.552   7.488   0.907  2.1669  0.2612 -0.8625
 2893SOL    HW219149   7.613   7.562   1.039 -0.2846  0.4543  0.1902
 2894SOL     OW19150   1.846   2.985   4.773  0.5027 -0.3377 -0.0132
 2894SOL    HW119151   1.801   2.898   4.791 -0.6780  0.1682 -0.4466
 2894SOL    HW219152   1.939   2.983   4.810  1.0322 -2.3152 -1.3703
 2895SOL     OW19153   0.505   5.651   3.607 -0.2220 -0.2670  0.0491
 2895SOL    HW119154   0.469   5.624   3.517  0.4852 -2.3336  0.3485
 2895SOL    HW219155   0.475   5.744   3.629 -3.4974 -1.0683 -0.6976
 2896SOL     OW19156   6.298   7.931   3.282 -0.3838 -0.0878 -0.3235
 2896SOL    HW119157   6.223   7.995   3.300 -0.3757 -0.2483  0.3055
 2896SOL    HW219158   6.326   7.938   3.186 -1.7479 -0.6038 -0.7743
 2897SOL     OW19159   5.530   7.874   2.973 -0.4084  0.2097  0.0301
 2897SOL    HW119160   5.450   7.839   2.925 -0.2886 -1.6492  1.1278
 2897SOL    HW219161   5.590   7.797   2.999  1.1314  1.4554  0.2675
 2898SOL     OW19162   9.670   8.816   2.843 -0.3510  0.3518  0.4356
 2898SOL    HW119163   9.741   8.884   2.831  1.2253 -0.7639  3.1904
 2898SOL    HW219164   9.622   8.831   2.929  0.0704 -2.0163  1.1318
 2899SOL     OW19165   7.016   8.641   1.560  0.3287 -0.0292 -0.6627
 2899SOL    HW119166   7.071   8.713   1.603  0.7669 -0.0804 -1.1362
 2899SOL    HW219167   6.937   8.681   1.515  0.4849  0.1348 -0.7869
 2900SOL     OW19168   1.552   7.921   1.521  0.1513  0.1607  0.1005
 2900SOL    HW119169   1.520   7.911   1.615 -0.7985  1.1473 -0.1164
 2900SOL    HW219170   1.598   7.836   1.493  1.2159  0.1570  1.7325
 2901SOL     OW19171   9.026   8.673   4.575 -0.2803 -0.0916 -0.5547
 2901SOL    HW119172   8.971   8.747   4.616  0.1621 -0.4462  0.7045
 2901SOL    HW219173   8.995   8.657   4.482 -0.4251  1.6500 -0.8299
 2902SOL     OW19174   0.730   1.278   3.084 -0.5676 -0.6533 -0.4662
 2902SOL    HW119175   0.720   1.261   3.182 -1.9861 -1.4018 -0.7115
 2902SOL    HW219176   0.782   1.361   3.069  1.6243 -1.7282  0.8873
 2903SOL     OW19177   3.272   3.110   2.567 -0.3854 -0.0792  0.1257
 2903SOL    HW119178   3.246   3.199   2.529 -1.6682  0.2764  1.7733
 2903SOL    HW219179   3.332   3.124   2.646 -0.9023 -0.6634  0.6245
 2904SOL     OW19180   4.415   0.043   1.116  0.5490 -0.3192  0.3335
 2904SOL    HW119181   4.441  -0.053   1.118 -0.8375 -0.6929  0.3601
 2904SOL    HW219182   4.322   0.053   1.081  0.9885  1.0797 -0.5362
 2905SOL     OW19183   5.202   0.103   2.364  0.6890 -0.0807  0.0847
 2905SOL    HW119184   5.200   0.007   2.338  0.4630  0.0289 -0.3088
 2905SOL    HW219185   5.170   0.159   2.287 -0.1716  0.2315  0.6599
 2906SOL     OW19186   0.987   0.478   2.349 -0.1169  0.6602  0.0925
 2906SOL    HW119187   1.085   0.469   2.330 -0.4829 -2.3937 -0.5530
 2906SOL    HW219188   0.970   0.460   2.446 -0.3303 -1.7528 -0.3533
 2907SOL     OW19189   9.357   0.816   2.503 -0.1691  0.7541  0.3108
 2907SOL    HW119190   9.335   0.843   2.410 -2.6609  1.6284  1.0841
 2907SOL    HW219191   9.323   0.723   2.520  3.0597 -0.6559 -0.5417
 2908SOL     OW19192   3.826   0.281   1.686  1.1369 -0.5684 -0.4844
 2908SOL    HW119193   3.827   0.343   1.608  0.9657 -0.9608 -0.7975
 2908SOL    HW219194   3.852   0.189   1.657  0.6954 -0.8026 -0.1604
 2909SOL     OW19195   0.580   6.437   1.142 -0.1919 -0.4391  0.4894
 2909SOL    HW119196   0.670   6.402   1.116 -0.2659  0.6940 -1.3409
 2909SOL    HW219197   0.583   6.537   1.146 -1.4215 -0.3826  0.2099
 2910SOL     OW19198   2.378   6.859   1.488 -0.4220  0.0023 -1.0171
 2910SOL    HW119199   2.473   6.892   1.486 -0.3118 -0.2366  0.1466
 2910SOL    HW219200   2.326   6.905   1.416  0.8730 -0.8009 -2.5151
 2911SOL     OW19201   9.727   5.981   0.026 -0.7178  0.1240 -0.4804
 2911SOL    HW119202   9.682   6.042  -0.039  0.9560  0.2570 -1.5499
 2911SOL    HW219203   9.820   5.963  -0.005 -0.2177 -0.5941  1.3936
 2912SOL     OW19204   4.323   1.414   1.490  0.1122  0.0233  0.0748
 2912SOL    HW119205   4.308   1.328   1.540  0.0823  0.0581  0.1265
 2912SOL    HW219206   4.235   1.451   1.461 -0.0096  0.9341  1.5746
 2913SOL     OW19207   9.711   9.375   2.412  0.0531 -0.4829 -0.1879
 2913SOL    HW119208   9.640   9.335   2.470 -1.0885  1.8632  0.0574
 2913SOL    HW219209   9.721   9.472   2.433  4.5271 -1.0675  0.9941
 2914SOL     OW19210   0.138   5.136   2.037  0.2510 -0.5130 -0.1858
 2914SOL    HW119211   0.134   5.039   2.064  0.0663 -0.1178  1.2728
 2914SOL    HW219212   0.225   5.154   1.992  1.4024 -0.8161  1.8335
 2915SOL     OW19213   0.523   6.270   4.146 -0.1984  0.0639  0.4147
 2915SOL    HW119214   0.433   6.280   4.189 -1.3108 -1.7477 -1.3913
 2915SOL    HW219215   0.518   6.300   4.051  1.0598 -0.2244  0.2583
 2916SOL     OW19216   0.626   8.537   2.043 -0.7316 -0.3956  0.2729
 2916SOL    HW119217   0.652   8.633   2.039 -1.8278 -0.0965  0.0180
 2916SOL    HW219218   0.676   8.491   2.116  2.7588 -0.5733 -2.1406
 2917SOL     OW19219   7.748   9.016   3.009  0.5649  0.6209  0.4639
 2917SOL    HW119220   7.718   8.932   3.054  2.3780 -0.0136  0.5535
 2917SOL    HW219221   7.719   9.015   2.913  1.4644 -0.6230  0.1841
 2918SOL     OW19222   2.738   5.251   0.930 -0.0616 -0.1576 -0.2151
 2918SOL    HW119223   2.674   5.238   1.006 -0.9802 -1.1011 -1.1243
 2918SOL    HW219224   2.830   5.264   0.966 -0.0569 -3.1467  1.0290
 2919SOL     OW19225   2.290   3.286   4.451  0.1858 -0.0914  0.1683
 2919SOL    HW119226   2.351   3.364   4.464 -0.8497  0.6384  0.7314
 2919SOL    HW219227   2.331   3.222   4.386  1.8074  0.0956  0.9848
 2920SOL     OW19228   0.361   9.018   1.150 -0.5585  0.1756 -0.0484
 2920SOL    HW119229   0.309   9.090   1.105 -1.2328 -0.5878 -0.5006
 2920SOL    HW219230   0.352   8.933   1.099 -1.0521 -0.6154  1.3222
 2921SOL     OW19231   1.924   7.756   0.782  0.2563 -0.2308  0.3557
 2921SOL    HW119232   2.006   7.781   0.834 -0.0362  1.3210  0.0717
 2921SOL    HW219233   1.843   7.794   0.827  0.0723  1.8935 -1.6954
 2922SOL     OW19234   4.292   1.192   3.431 -0.0206 -0.3149  0.0492
 2922SOL    HW119235   4.340   1.239   3.357 -1.4942  1.0430 -0.0535
 2922SOL    HW219236   4.346   1.198   3.515  0.0233  1.1356 -0.0838
 2923SOL     OW19237   1.660   5.148   0.363  0.6145  0.5017  0.1176
 2923SOL    HW119238   1.725   5.210   0.406  0.2879  0.9442 -0.0284
 2923SOL    HW219239   1.645   5.175   0.268  1.1522 -0.3318 -0.2160
 2924SOL     OW19240   9.353   6.405   4.217  0.6373 -0.2817 -0.2583
 2924SOL    HW119241   9.305   6.400   4.305 -0.2673 -2.6764 -0.8539
 2924SOL    HW219242   9.448   6.375   4.230  0.5749 -0.3924 -0.0559
 2925SOL     OW19243   2.783   0.485   0.350  0.1538  0.5254 -0.0017
 2925SOL    HW119244   2.732   0.520   0.429 -0.4141  0.2577 -0.2460
 2925SOL    HW219245   2.802   0.388   0.364 -0.4961  0.3278 -0.4769
 2926SOL     OW19246   2.342   6.482   3.234  0.1904  0.3099  0.6950
 2926SOL    HW119247   2.280   6.525   3.299 -2.4500 -3.3483  0.7561
 2926SOL    HW219248   2.305   6.491   3.141  1.3394  1.0459  0.2920
 2927SOL     OW19249   2.433   8.292   1.156  0.6103  0.1016  0.2083
 2927SOL    HW119250   2.339   8.326   1.161  0.3221 -0.6580  0.1207
 2927SOL    HW219251   2.479   8.311   1.243  0.7690  1.5677 -0.1850
 2928SOL     OW19252   4.941   0.863   3.410 -0.2553  0.3156 -0.5052
 2928SOL    HW119253   5.029   0.888   3.369  0.3685 -1.4865 -0.3229
 2928SOL    HW219254   4.889   0.806   3.346 -1.2661  1.2968 -0.5774
 2929SOL     OW19255   1.843   6.775   3.380 -0.2717 -0.2808  0.8923
 2929SOL    HW119256   1.824   6.705   3.448  0.2892  0.1768  1.5327
 2929SOL    HW219257   1.859   6.862   3.426 -2.1893  0.5491  0.0332
 2930SOL     OW19258   3.120   9.382   1.831  0.4002 -0.0644 -0.1410
 2930SOL    HW119259   3.154   9.322   1.759  0.0965  1.3495 -1.4804
 2930SOL    HW219260   3.162   9.472   1.823 -2.6674  1.3703 -1.0882
 2931SOL     OW19261   2.882   0.820   1.468  0.1858 -0.0551 -0.3012
 2931SOL    HW119262   2.816   0.855   1.402  2.1464  2.3992 -1.0262
 2931SOL    HW219263   2.975   0.830   1.432  1.1374 -1.2031  1.7139
 2932SOL     OW19264   1.267   9.865   4.077  0.0620  0.5617 -0.2271
 2932SOL    HW119265   1.187   9.926   4.076 -1.1081 -0.9409 -0.7432
 2932SOL    HW219266   1.240   9.775   4.042  1.7585 -0.2628  0.5629
 2933SOL     OW19267   2.226   0.140   0.474 -0.1441  0.3265 -0.0872
 2933SOL    HW119268   2.320   0.126   0.444 -0.8709 -0.7682 -1.9393
 2933SOL    HW219269   2.226   0.181   0.566  2.1484  2.6716 -1.0702
 2934SOL     OW19270   4.653   1.076   4.075  0.4972  0.6927 -0.3592
 2934SOL    HW119271   4.650   1.094   4.173  3.6048  0.0640 -0.1213
 2934SOL    HW219272   4.657   0.978   4.059  0.7311  0.8224 -1.1135
 2935SOL     OW19273   7.677   7.673   1.964  0.2686 -0.2860  0.1336
 2935SOL    HW119274   7.759   7.620   1.941  0.1793 -0.2851 -0.1905
 2935SOL    HW219275   7.598   7.635   1.916  0.4855  1.1226 -1.4056
 2936SOL     OW19276   1.058   1.401   4.114  0.2248 -0.4258  0.6414
 2936SOL    HW119277   1.131   1.449   4.064  0.0563 -1.5026 -0.6736
 2936SOL    HW219278   0.997   1.357   4.048 -0.7162 -0.8373  1.7872
 2937SOL     OW19279   3.646   3.992   1.351  0.8353  0.2753 -0.2448
 2937SOL    HW119280   3.618   3.901   1.322  1.2738 -0.5502  1.8350
 2937SOL    HW219281   3.567   4.054   1.347 -0.2918 -1.0183  1.5600
 2938SOL     OW19282   0.007   5.679   1.619 -0.2873 -0.2855 -0.5100
 2938SOL    HW119283   0.019   5.604   1.683 -0.7916  1.1795  1.3349
 2938SOL    HW219284  -0.081   5.723   1.634  1.9079  3.6712  1.7257
 2939SOL     OW19285   1.018   0.709   3.695 -0.6227  0.0115  0.5566
 2939SOL    HW119286   1.072   0.635   3.736 -0.3268  0.3813  0.8443
 2939SOL    HW219287   0.995   0.775   3.766  0.0578  0.7588  0.0834
 2940SOL     OW19288   4.627   0.089   3.491  0.1788  0.1570 -0.8665
 2940SOL    HW119289   4.548   0.073   3.550 -0.5113 -0.0874 -1.8466
 2940SOL    HW219290   4.596   0.120   3.401  1.1795 -0.2339 -1.3554
 2941SOL     OW19291   0.304   9.500   4.716 -0.0551 -0.2893  0.1463
 2941SOL    HW119292   0.312   9.455   4.627 -1.3256 -0.3964  0.0767
 2941SOL    HW219293   0.350   9.446   4.786  0.9762 -0.1880 -0.4493
 2942SOL     OW19294   1.457   1.689   2.770  0.2120 -0.1819 -0.0501
 2942SOL    HW119295   1.526   1.620   2.746 -0.9935 -1.5263  0.3389
 2942SOL    HW219296   1.457   1.703   2.869  1.6481  1.6648 -0.2758
 2943SOL     OW19297   9.365   6.755   2.694  0.1208  0.4159  0.4087
 2943SOL    HW119298   9.399   6.676   2.745  0.5695 -0.3324 -1.0249
 2943SOL    HW219299   9.265   6.754   2.695  0.0988 -0.8609 -0.6008
 2944SOL     OW19300   5.818   0.181   2.127  0.1037  0.5063 -0.3440
 2944SOL    HW119301   5.819   0.197   2.226  0.0521  0.6100 -0.3599
 2944SOL    HW219302   5.791   0.086   2.109  0.7270  0.3004 -0.2365
 2945SOL     OW19303   3.993   9.847   1.384 -0.2956  0.1622 -0.9471
 2945SOL    HW119304   3.939   9.804   1.311 -0.2135  0.3585 -1.1231
 2945SOL    HW219305   3.978   9.946   1.383 -1.2099  0.0424  0.0502
 2946SOL     OW19306   4.294   0.388   4.650 -0.2914  0.3364 -0.9979
 2946SOL    HW119307   4.233   0.410   4.726  1.7264  1.8252  0.2484
 2946SOL    HW219308   4.333   0.297   4.665  0.4230  0.7919  0.0057
 2947SOL     OW19309   2.787   4.048   3.933 -0.4864 -0.6641 -0.5214
 2947SOL    HW119310   2.795   3.970   3.995  2.2630  0.3909  0.5390
 2947SOL    HW219311   2.717   4.111   3.967  0.6916 -0.3082  1.3376
 2948SOL     OW19312   1.131   9.620   2.040  0.3235 -0.3196  0.1146
 2948SOL    HW119313   1.085   9.697   2.083  0.4750 -0.3361  0.3015
 2948SOL    HW219314   1.084   9.535   2.065  0.1554 -0.2900 -0.0932
 2949SOL     OW19315   7.850   8.120   1.506  0.0004 -0.1705 -0.1310
 2949SOL    HW119316   7.769   8.114   1.564  0.1420  2.2149  0.3874
 2949SOL    HW219317   7.928   8.081   1.554  0.0630  1.5702  1.2585
 2950SOL     OW19318   1.179   3.870   0.791  0.0808 -0.2727 -0.4696
 2950SOL    HW119319   1.190   3.795   0.725 -0.9967 -0.6084 -0.2676
 2950SOL    HW219320   1.252   3.865   0.860  1.0225 -0.1145 -1.4361
 2951SOL     OW19321   3.725   9.227   2.313 -0.2533  0.0125 -0.3460
 2951SOL    HW119322   3.630   9.209   2.338  0.0756 -0.1994  0.7585
 2951SOL    HW219323   3.780   9.144   2.327  0.4329  0.6291  0.7179
 2952SOL     OW19324   2.058   3.675   3.711 -0.3014  0.0019  0.2595
 2952SOL    HW119325   2.138   3.732   3.696 -0.1811 -0.2844 -0.1881
 2952SOL    HW219326   2.016   3.651   3.623 -0.1585 -0.8686  0.4187
 2953SOL     OW19327   1.786   8.910   2.753  0.1417 -0.2918  0.2809
 2953SOL    HW119328   1.836   8.989   2.719  0.5165 -0.1823  1.0500
 2953SOL    HW219329   1.688   8.925   2.745  0.2208 -0.0163 -0.1652
 2954SOL     OW19330   2.191   6.239   0.278  0.1755  0.3229  0.6912
 2954SOL    HW119331   2.223   6.174   0.209  0.5987 -0.4981  1.6473
 2954SOL    HW219332   2.205   6.332   0.245  0.6658 -0.0638 -0.2051
 2955SOL     OW19333   3.437   9.624   0.655 -0.4378 -0.0803  0.2548
 2955SOL    HW119334   3.355   9.574   0.627 -1.6446  1.3149  1.2248
 2955SOL    HW219335   3.462   9.691   0.585 -0.8601  0.3408  0.5015
 2956SOL     OW19336   2.805   1.874   0.274 -0.2533  0.0358 -0.5985
 2956SOL    HW119337   2.763   1.855   0.363  0.8702 -0.2060 -0.1173
 2956SOL    HW219338   2.742   1.931   0.220 -1.7815 -1.4337 -0.4180
 2957SOL     OW19339   1.109   5.791   1.448  0.3845 -0.7066 -0.1633
 2957SOL    HW119340   1.189   5.839   1.484  1.4348 -2.6803  0.2524
 2957SOL    HW219341   1.124   5.770   1.351 -0.3368  0.3388 -0.5037
 2958SOL     OW19342   0.649   9.249   3.045 -0.4374  0.4885  0.4428
 2958SOL    HW119343   0.607   9.192   2.975  0.2892 -0.3094  0.6455
 2958SOL    HW219344   0.715   9.195   3.097  1.1763  1.8243 -0.1714
 2959SOL     OW19345   9.534   9.502   3.868 -0.0549  0.3636 -0.3327
 2959SOL    HW119346   9.476   9.443   3.924 -1.1972 -0.0812 -1.9780
 2959SOL    HW219347   9.629   9.492   3.898 -0.0685 -3.0948 -1.2275
 2960SOL     OW19348   2.177   5.602   0.043  0.6279 -0.1360  0.3120
 2960SOL    HW119349   2.209   5.520  -0.005 -0.6991  0.2988 -1.3360
 2960SOL    HW219350   2.086   5.628   0.009 -0.6680 -0.2060  3.5205
 2961SOL     OW19351   7.618   6.287   2.205  0.3260  0.4158  0.4397
 2961SOL    HW119352   7.686   6.216   2.188  0.3601  1.1199 -2.7208
 2961SOL    HW219353   7.535   6.267   2.153  0.4212  2.7447 -0.7001
 2962SOL     OW19354   0.913   2.714   3.753  0.0803  0.7739  0.4561
 2962SOL    HW119355   0.952   2.630   3.790 -4.6964 -1.4537  0.9232
 2962SOL    HW219356   0.872   2.767   3.827 -2.2367  0.4126 -0.4944
 2963SOL     OW19357   5.152   0.824   3.750 -0.1903  0.4119 -0.2289
 2963SOL    HW119358   5.209   0.783   3.820 -0.0752 -0.6157 -0.9078
 2963SOL    HW219359   5.209   0.858   3.675 -0.5224 -1.8022 -1.5205
 2964SOL     OW19360   2.061   7.239   0.921  0.2246 -0.2548 -0.4965
 2964SOL    HW119361   1.986   7.187   0.882  0.0396 -0.0667 -0.3882
 2964SOL    HW219362   2.121   7.271   0.848 -0.2089  0.2302 -0.6376
 2965SOL     OW19363   9.945   5.802   2.281  0.5088 -0.4480 -0.0056
 2965SOL    HW119364   9.917   5.709   2.259  0.6263 -0.1621 -1.4707
 2965SOL    HW219365  10.044   5.812   2.266  0.5287 -0.1397  0.3198
 2966SOL     OW19366   3.576   9.023   3.825  0.0442 -0.3855  0.1376
 2966SOL    HW119367   3.658   9.080   3.815  0.2586 -0.9609 -1.4910
 2966SOL    HW219368   3.529   9.048   3.910  0.7421  1.4221  0.0256
 2967SOL     OW19369   1.061   6.627   4.431 -0.1594  0.9373  0.4852
 2967SOL    HW119370   1.144   6.671   4.467  1.2323 -0.4929 -0.8677
 2967SOL    HW219371   1.088   6.551   4.372 -2.4682  0.4696  0.0184
 2968SOL     OW19372   1.081   1.943   3.856 -0.0981  0.6963  0.1952
 2968SOL    HW119373   0.994   1.990   3.876 -0.7175  0.2760 -1.4566
 2968SOL    HW219374   1.092   1.867   3.920 -1.1607  0.5005  0.1666
 2969SOL     OW19375   0.839   2.638   2.915 -0.1107 -0.1934 -0.0833
 2969SOL    HW119376   0.908   2.644   2.988  0.3500  2.6058 -0.6745
 2969SOL    HW219377   0.751   2.670   2.949  0.1638  1.3568 -0.8056
 2970SOL     OW19378   7.607   5.699   2.383  0.3705  0.1183  0.2612
 2970SOL    HW119379   7.624   5.605   2.412  0.1183 -0.9428 -2.8216
 2970SOL    HW219380   7.518   5.729   2.416 -0.2255 -1.2917 -0.0454
 2971SOL     OW19381   1.461   1.779   1.384  0.2339  1.3014  0.1156
 2971SOL    HW119382   1.435   1.868   1.347 -1.7431  0.8145  0.2266
 2971SOL    HW219383   1.383   1.716   1.375  0.9728  0.1256  1.7245
 2972SOL     OW19384   2.669   1.469   3.758 -0.6183  0.2763 -0.1138
 2972SOL    HW119385   2.656   1.568   3.768  0.9037  0.5162 -0.4227
 2972SOL    HW219386   2.745   1.452   3.695  0.0352 -1.0829  1.0188
 2973SOL     OW19387   3.402   3.499   3.290 -0.0772  0.7931  0.2189
 2973SOL    HW119388   3.312   3.542   3.287  0.6975  2.3945 -0.7038
 2973SOL    HW219389   3.429   3.471   3.198  0.1923 -0.0309  0.5499
 2974SOL     OW19390   0.426   6.535   1.928 -0.2266  0.2664  0.6564
 2974SOL    HW119391   0.457   6.599   1.857  0.7211 -0.1434  0.6961
 2974SOL    HW219392   0.443   6.574   2.018 -0.0814  0.1679  0.6731
 2975SOL     OW19393   2.865   5.368   1.518 -0.0486  0.2475 -0.7306
 2975SOL    HW119394   2.783   5.317   1.490  0.1987 -0.5545 -0.0192
 2975SOL    HW219395   2.865   5.458   1.474 -2.0695  0.8385  0.4110
 2976SOL     OW19396   8.052   7.836   1.456 -0.0131 -0.4602  0.0936
 2976SOL    HW119397   8.098   7.756   1.495 -0.0373 -0.3802  0.2891
 2976SOL    HW219398   8.081   7.918   1.506  1.0716 -0.1642 -0.9891
 2977SOL     OW19399   2.175   0.974   2.129 -0.1162  0.5543 -0.1369
 2977SOL    HW119400   2.247   0.910   2.156 -0.2772  0.2793 -0.3514
 2977SOL    HW219401   2.216   1.062   2.103  0.0653  0.6894  0.6054
 2978SOL     OW19402   3.379   9.019   4.739  0.2793  0.3493 -0.1689
 2978SOL    HW119403   3.285   9.038   4.711  0.5765  1.4112 -0.4521
 2978SOL    HW219404   3.413   9.093   4.797  0.9677  0.0098 -0.1335
 2979SOL     OW19405   2.726   5.453   0.719 -0.1363  0.1492 -0.5901
 2979SOL    HW119406   2.676   5.533   0.751 -0.7686 -0.0348 -1.0914
 2979SOL    HW219407   2.739   5.389   0.795  0.6208  0.8513 -0.1269
 2980SOL     OW19408   3.269   4.247   1.189  0.1643  0.6366 -0.0934
 2980SOL    HW119409   3.332   4.170   1.194 -0.2458  0.1720 -1.6280
 2980SOL    HW219410   3.188   4.228   1.245  0.7366  0.6271  0.7436
 2981SOL     OW19411   4.737   1.022   3.210  0.0878 -0.0840  0.0485
 2981SOL    HW119412   4.754   0.924   3.220  2.5738  0.3304  0.2658
 2981SOL    HW219413   4.710   1.061   3.299 -2.5411 -0.8196 -0.3778
 2982SOL     OW19414   9.368   6.563   1.642 -0.2998 -0.2588  0.3161
 2982SOL    HW119415   9.379   6.559   1.543 -0.0677 -0.1053  0.3351
 2982SOL    HW219416   9.295   6.627   1.665 -0.4974 -0.4569  0.2335
 2983SOL     OW19417   1.607   6.483   0.740  0.1356  0.4030  0.2569
 2983SOL    HW119418   1.560   6.554   0.688 -0.6334  0.7355  1.4019
 2983SOL    HW219419   1.560   6.395   0.727 -1.2164  0.8605  1.9202
 2984SOL     OW19420   2.937   0.281   4.373 -0.0560  0.1742 -0.5167
 2984SOL    HW119421   2.997   0.344   4.324  0.7446  0.3635  0.6958
 2984SOL    HW219422   2.903   0.325   4.456  0.3853 -0.9325  0.2615
 2985SOL     OW19423   2.562   7.858   0.722  0.0771 -0.0337 -0.4679
 2985SOL    HW119424   2.471   7.857   0.681  0.1095 -0.4747 -0.5343
 2985SOL    HW219425   2.630   7.884   0.653 -0.0618  0.8214 -0.2829
 2986SOL     OW19426   3.879   4.561   4.410  0.5100 -0.1473 -0.5682
 2986SOL    HW119427   3.935   4.524   4.336  0.9927 -1.6246  0.5007
 2986SOL    HW219428   3.862   4.489   4.478 -2.6614  0.2672 -0.8379
 2987SOL     OW19429   8.783   8.934   1.045  0.3026  0.4255 -0.1870
 2987SOL    HW119430   8.829   8.857   1.000 -0.7289  0.3183 -1.0692
 2987SOL    HW219431   8.754   9.000   0.976 -2.5215 -0.4009  0.1433
 2988SOL     OW19432   6.255   8.517   2.598 -0.3632 -0.0498 -0.4805
 2988SOL    HW119433   6.208   8.506   2.511 -0.6515  2.3096 -0.6360
 2988SOL    HW219434   6.221   8.598   2.646  0.3268 -0.8778  1.4835
 2989SOL     OW19435   0.992   2.177   3.192 -0.3613  0.1182  0.1671
 2989SOL    HW119436   1.006   2.230   3.108  1.0602 -0.3317  0.1044
 2989SOL    HW219437   0.915   2.215   3.243 -1.2860  0.3609 -1.3705
 2990SOL     OW19438   0.812   3.937   3.205  0.2089 -0.0325  0.3520
 2990SOL    HW119439   0.897   3.954   3.254 -2.0133 -1.0695  4.8668
 2990SOL    HW219440   0.754   4.018   3.210 -0.5043 -0.5404  0.3810
 2991SOL     OW19441   0.319   3.108   0.364 -0.7211 -0.1672 -0.6816
 2991SOL    HW119442   0.317   3.014   0.332  0.5339  0.0591 -1.4804
 2991SOL    HW219443   0.374   3.163   0.301  1.0219  0.4790  1.3438
 2992SOL     OW19444   2.089   7.515   1.400 -0.1440 -0.4183 -0.1849
 2992SOL    HW119445   2.160   7.518   1.470 -0.2123  0.3024 -0.1413
 2992SOL    HW219446   2.047   7.425   1.399  0.4751 -0.7089  0.0862
 2993SOL     OW19447   9.366   7.862   0.187 -0.4267  0.0070 -0.2613
 2993SOL    HW119448   9.446   7.830   0.238 -0.0104  0.1927 -0.7873
 2993SOL    HW219449   9.394   7.934   0.124 -0.6013 -1.3362 -1.9275
 2994SOL     OW19450   8.089   8.625   2.844  0.2685  0.0540 -0.8632
 2994SOL    HW119451   8.186   8.646   2.828  0.5679  1.5218  2.4205
 2994SOL    HW219452   8.035   8.661   2.768  2.1417  0.6181 -1.9777
 2995SOL     OW19453   7.053   8.670   1.257  0.2854 -0.2832  0.2270
 2995SOL    HW119454   7.078   8.613   1.335  0.7291  1.1482  1.1502
 2995SOL    HW219455   7.092   8.762   1.268 -1.5852  0.6379 -0.5363
 2996SOL     OW19456   1.496   5.847   1.341 -0.1767  0.2422  0.0350
 2996SOL    HW119457   1.582   5.873   1.385  1.6036  1.6356 -3.9953
 2996SOL    HW219458   1.497   5.750   1.319  0.6919  0.3827 -0.5793
 2997SOL     OW19459   8.441   9.312   2.000  0.0516  0.2945 -0.1031
 2997SOL    HW119460   8.410   9.351   1.913  0.4701  0.6069 -0.1070
 2997SOL    HW219461   8.362   9.305   2.062  0.1077  1.8191  0.1615
 2998SOL     OW19462   0.616   6.865   2.996  0.0986 -0.3068  0.1118
 2998SOL    HW119463   0.636   6.912   3.083  1.5795 -1.7896  0.6017
 2998SOL    HW219464   0.635   6.768   3.006  2.4216 -0.1924 -2.5011
 2999SOL     OW19465   8.600   8.123   0.857 -0.4872 -0.1173 -0.0234
 2999SOL    HW119466   8.521   8.120   0.797 -1.5057 -0.8271  1.3317
 2999SOL    HW219467   8.570   8.131   0.952  1.0290 -1.0496  0.5610
 3000SOL     OW19468   3.392   4.170   2.365 -0.3019 -0.3296 -0.2857
 3000SOL    HW119469   3.451   4.249   2.376 -2.1901  1.3940 -2.1831
 3000SOL    HW219470   3.435   4.090   2.408  2.3419  1.3379  0.2727
 3001SOL     OW19471   0.589   0.132   2.925  0.3209  0.2692  0.2878
 3001SOL    HW119472   0.537   0.060   2.880  0.3741 -0.0231  0.6918
 3001SOL    HW219473   0.683   0.101   2.940  0.1437  0.1419  1.1408
 3002SOL     OW19474   0.138   0.415   0.808 -0.5295  0.1818  0.1801
 3002SOL    HW119475   0.043   0.442   0.819 -1.0046 -1.8202  1.2135
 3002SOL    HW219476   0.189   0.439   0.891 -0.2528  0.7514 -0.1529
 3003SOL     OW19477   3.049   4.012   3.459 -0.0632 -0.1050 -0.4941
 3003SOL    HW119478   3.121   4.081   3.455 -0.2190  0.0360 -0.8439
 3003SOL    HW219479   2.986   4.034   3.533  1.0845 -1.0374  0.7918
 3004SOL     OW19480   7.759   9.889   3.759 -0.5210 -0.0087 -0.5428
 3004SOL    HW119481   7.771   9.790   3.753  0.6946  0.1557 -1.0337
 3004SOL    HW219482   7.810   9.933   3.685 -0.0765  1.0432  0.3795
 3005SOL     OW19483   0.076   8.684   1.853 -0.2637 -0.2214 -0.2735
 3005SOL    HW119484  -0.013   8.693   1.808 -0.7752  0.8839  0.9193
 3005SOL    HW219485   0.115   8.775   1.868  0.0501 -0.5782  1.1822
 3006SOL     OW19486   1.585   4.559   0.339 -0.1936  0.4363 -0.4731
 3006SOL    HW119487   1.647   4.573   0.262  1.5478  1.2176  1.0305
 3006SOL    HW219488   1.570   4.462   0.353 -0.8484  0.3056 -2.0515
 3007SOL     OW19489   3.061   8.234   1.474  0.1655 -0.3471 -0.3063
 3007SOL    HW119490   3.148   8.272   1.508 -0.9910  1.9484  0.1935
 3007SOL    HW219491   3.064   8.227   1.375  0.0617  2.0356 -0.5014
 3008SOL     OW19492   3.496   3.078   2.062  0.0269 -0.0176  0.0634
 3008SOL    HW119493   3.412   3.109   2.107 -1.0456 -1.2375 -1.0693
 3008SOL    HW219494   3.493   2.979   2.050  1.6344 -0.0689 -0.0126
 3009SOL     OW19495   4.061   3.830   1.715  0.5277 -0.1701 -0.3393
 3009SOL    HW119496   4.119   3.910   1.697 -2.5079  2.8289  2.6232
 3009SOL    HW219497   4.091   3.785   1.799 -2.0653  2.1914  1.9624
 3010SOL     OW19498   5.425   0.894   3.284 -0.1409 -0.3462  0.1356
 3010SOL    HW119499   5.517   0.886   3.322 -0.2510  1.8376  0.9895
 3010SOL    HW219500   5.431   0.915   3.187  0.3346  1.6182  0.5647
 3011SOL     OW19501   8.905   7.254   3.728  0.1004  0.2065 -0.0163
 3011SOL    HW119502   8.893   7.169   3.677  2.3762 -0.1739  0.0174
 3011SOL    HW219503   8.933   7.327   3.666 -2.8621  1.2419 -0.2203
 3012SOL     OW19504   3.361   8.998   3.075 -0.2628 -0.0169 -0.2659
 3012SOL    HW119505   3.324   9.076   3.125  0.2865 -0.1987  0.4450
 3012SOL    HW219506   3.460   9.009   3.065 -0.2279 -0.4748 -0.4203
 3013SOL     OW19507   0.120   7.185   1.678  0.1932 -0.2655  0.0032
 3013SOL    HW119508   0.051   7.124   1.718  0.4551  0.1731  1.1306
 3013SOL    HW219509   0.083   7.278   1.673  0.7333 -0.0191  0.6633
 3014SOL     OW19510   6.315   8.545   2.014 -0.3299  0.0553  0.3241
 3014SOL    HW119511   6.295   8.525   1.918  0.9859 -1.3115  0.3166
 3014SOL    HW219512   6.262   8.484   2.072 -0.3533  0.1902  0.4436
 3015SOL     OW19513   1.407   0.874   4.449  0.1289 -0.0666  0.1186
 3015SOL    HW119514   1.478   0.943   4.435  0.0572 -0.0262 -0.0473
 3015SOL    HW219515   1.446   0.796   4.498 -0.0997  0.6217  1.4087
 3016SOL     OW19516   4.668   0.286   1.891  0.0858  0.3348 -0.7060
 3016SOL    HW119517   4.763   0.260   1.910 -0.6249 -1.6468  0.1976
 3016SOL    HW219518   4.657   0.301   1.793  0.9806 -0.8454 -0.9961
 3017SOL     OW19519   1.749   8.338   1.856 -0.7799  0.0696  0.2039
 3017SOL    HW119520   1.783   8.393   1.779  0.2106 -0.2211  0.4311
 3017SOL    HW219521   1.767   8.386   1.942 -2.6214  0.7738  0.2155
 3018SOL     OW19522   2.374   8.366   3.600 -0.2804 -0.0615  0.5546
 3018SOL    HW119523   2.315   8.286   3.588 -0.1789 -0.6275  3.5378
 3018SOL    HW219524   2.329   8.433   3.658  0.7762  0.8634  0.3235
 3019SOL     OW19525   1.201   5.389   0.251  0.2240  0.1611 -0.7363
 3019SOL    HW119526   1.172   5.421   0.160  0.5022  2.1177 -0.1732
 3019SOL    HW219527   1.126   5.338   0.294 -0.4685  0.5736 -1.4439
 3020SOL     OW19528   1.706   3.067   3.093 -0.0996  0.4436 -0.6038
 3020SOL    HW119529   1.720   3.160   3.127 -0.2616  0.2094  0.0948
 3020SOL    HW219530   1.757   3.055   3.008  1.0785  0.7074  0.0613
 3021SOL     OW19531   3.133   1.717   3.108  0.2620  0.3064 -0.6789
 3021SOL    HW119532   3.050   1.758   3.145  0.9373  0.9016  0.1922
 3021SOL    HW219533   3.124   1.710   3.009 -1.3827 -0.9140 -0.4609
 3022SOL     OW19534   2.956   9.956   0.349 -0.3066 -0.3457  0.1972
 3022SOL    HW119535   3.055   9.946   0.344 -0.0297  0.9542  2.2895
 3022SOL    HW219536   2.916   9.871   0.385  0.1328 -0.5255  0.2703
 3023SOL     OW19537   2.014   2.871   2.553 -0.4049 -0.4291 -0.3023
 3023SOL    HW119538   2.086   2.810   2.518 -0.1192 -1.1104  1.4477
 3023SOL    HW219539   2.056   2.948   2.601 -0.8078  0.4350 -1.3085
 3024SOL     OW19540   2.598   8.006   2.599  0.3815 -0.2366  0.0808
 3024SOL    HW119541   2.645   7.945   2.663  1.8080 -1.0985 -1.7234
 3024SOL    HW219542   2.651   8.012   2.515  0.0377  3.2115  0.0667
 3025SOL     OW19543   2.129   8.851   3.276  0.6980  0.2818  0.2998
 3025SOL    HW119544   2.132   8.930   3.215 -0.1271 -0.4969 -0.7683
 3025SOL    HW219545   2.166   8.771   3.229  0.6932 -0.1738  1.0624
 3026SOL     OW19546   9.755   5.016   1.427  0.0772  0.3336 -0.2396
 3026SOL    HW119547   9.782   5.077   1.353 -0.7198  0.4146 -0.4645
 3026SOL    HW219548   9.747   4.923   1.392 -0.1486  0.3462 -0.2243
 3027SOL     OW19549   2.928   1.939   2.129 -0.0115  0.0991  0.2956
 3027SOL    HW119550   2.950   1.843   2.144 -0.5292 -0.4551 -2.1492
 3027SOL    HW219551   2.830   1.954   2.145 -0.3417 -0.2500 -1.3222
 3028SOL     OW19552   3.746   7.307   2.679 -0.1807  0.3535  0.0581
 3028SOL    HW119553   3.806   7.241   2.634 -0.6250  0.1820 -0.2853
 3028SOL    HW219554   3.762   7.398   2.641  0.6794  0.5088  0.7748
 3029SOL     OW19555   3.379   4.880   2.145 -0.0889 -0.0900 -0.1540
 3029SOL    HW119556   3.416   4.944   2.212  0.2574  0.4895 -0.8936
 3029SOL    HW219557   3.449   4.858   2.077 -0.8980  0.5318 -1.2059
 3030SOL     OW19558   2.837   1.160   1.890  0.0312 -0.1019  0.4165
 3030SOL    HW119559   2.829   1.075   1.839 -0.0860 -0.8763  1.7090
 3030SOL    HW219560   2.915   1.212   1.856 -1.7971  0.8326 -2.5965
 3031SOL     OW19561   1.950   5.628   4.553 -0.2171 -0.1366  0.0196
 3031SOL    HW119562   1.887   5.612   4.477  0.5945 -2.9983 -0.1147
 3031SOL    HW219563   1.909   5.596   4.638  0.2461 -0.1454  0.2450
 3032SOL     OW19564   2.087   1.983   4.118  0.5647  0.1723 -0.1176
 3032SOL    HW119565   2.131   2.072   4.129  1.3533 -0.4373  1.9301
 3032SOL    HW219566   2.010   1.976   4.182  1.9409 -1.4691  1.4206
 3033SOL     OW19567   6.334   6.921   3.225  0.6667  0.2851  0.0697
 3033SOL    HW119568   6.430   6.892   3.221  0.8590  1.0353 -1.0067
 3033SOL    HW219569   6.290   6.903   3.138 -0.5778 -1.3349  1.0085
 3034SOL     OW19570   8.171   7.933   2.779  0.0436 -0.7911  0.4628
 3034SOL    HW119571   8.106   7.923   2.704  0.5480 -0.2180 -0.0533
 3034SOL    HW219572   8.126   7.977   2.856 -0.0982 -0.1063 -0.0101
 3035SOL     OW19573   0.200   0.974   3.639 -1.0716  0.1465  1.0409
 3035SOL    HW119574   0.194   1.068   3.605 -1.1754 -0.1064  0.3402
 3035SOL    HW219575   0.274   0.967   3.706 -0.5262  0.5462  0.4840
 3036SOL     OW19576   8.422   9.604   3.670 -0.1780  0.7982 -0.1810
 3036SOL    HW119577   8.436   9.694   3.712 -1.2069  0.3212  1.2241
 3036SOL    HW219578   8.333   9.603   3.624 -0.9180 -0.0018  1.2177
 3037SOL     OW19579   6.921   9.513   1.021  0.6957  0.0118 -0.0926
 3037SOL    HW119580   6.866   9.441   1.064 -1.7032  1.3119 -0.8586
 3037SOL    HW219581   6.956   9.480   0.933  1.0285 -0.7933  0.3387
 3038SOL     OW19582   2.561   4.743   3.913  0.1124  0.3521 -0.2267
 3038SOL    HW119583   2.598   4.834   3.897 -0.1533  0.6456  0.7676
 3038SOL    HW219584   2.465   4.750   3.939  0.3987 -0.1142  1.0145
 3039SOL     OW19585   3.496   0.036   4.406 -0.1552  0.7156  0.4346
 3039SOL    HW119586   3.523   0.078   4.492  0.7934 -0.0402  0.5139
 3039SOL    HW219587   3.535   0.088   4.330 -0.5087  1.0442  0.4773
 3040SOL     OW19588   2.426   3.146   3.917  0.0417  0.1900  0.1385
 3040SOL    HW119589   2.389   3.053   3.910  1.0934 -0.2709  0.6823
 3040SOL    HW219590   2.454   3.164   4.011  0.8563  0.6717 -0.1934
 3041SOL     OW19591   1.197   2.397   0.580  0.0914 -0.4508  0.3007
 3041SOL    HW119592   1.212   2.316   0.523 -1.7460 -1.9358  1.8924
 3041SOL    HW219593   1.100   2.405   0.603  0.5559  1.0278  1.8566
 3042SOL     OW19594   1.284   7.643   1.437 -0.0089  0.4570 -0.6182
 3042SOL    HW119595   1.196   7.604   1.410  0.8639 -1.0616 -1.3443
 3042SOL    HW219596   1.275   7.741   1.450 -1.9174  0.2348 -0.2417
 3043SOL     OW19597   2.209   7.085   0.473  0.4006 -0.2289 -0.1826
 3043SOL    HW119598   2.168   7.174   0.457 -1.1041 -0.7954  0.4676
 3043SOL    HW219599   2.156   7.014   0.426 -1.0716 -1.2905  2.9091
 3044SOL     OW19600   3.783   2.581   4.144  0.5468 -0.0054  0.1415
 3044SOL    HW119601   3.768   2.665   4.091  0.9431  0.0126  0.0574
 3044SOL    HW219602   3.745   2.593   4.236 -0.3701 -0.1325 -0.2237
 3045SOL     OW19603   1.700   2.502   1.049 -0.2748 -0.3998  0.1093
 3045SOL    HW119604   1.719   2.443   1.128 -1.7609 -2.1118 -0.7912
 3045SOL    HW219605   1.782   2.510   0.993 -0.0167 -1.5299  0.3076
 3046SOL     OW19606   9.129   5.088   2.116  0.0101 -0.5130  0.0759
 3046SOL    HW119607   9.179   5.173   2.132  1.5631 -1.2676 -0.7189
 3046SOL    HW219608   9.183   5.010   2.148 -1.3710 -1.2264  0.7412
 3047SOL     OW19609   1.749   2.337   3.736  0.6407  0.1319  0.4463
 3047SOL    HW119610   1.772   2.271   3.808  0.4669  0.8588  1.1840
 3047SOL    HW219611   1.828   2.398   3.721  1.0153 -0.6213 -0.6547
 3048SOL     OW19612   8.846   9.022   0.441 -0.1201  0.4632 -0.0107
 3048SOL    HW119613   8.884   8.931   0.459 -0.2941 -0.0326 -2.0328
 3048SOL    HW219614   8.917   9.091   0.450  0.2959 -0.0038  0.3139
 3049SOL     OW19615   0.637   7.969   4.370 -0.6020 -0.6521  0.1481
 3049SOL    HW119616   0.569   8.007   4.307 -0.7176  0.2446  0.8076
 3049SOL    HW219617   0.638   8.022   4.454  0.7146 -0.8457  0.2606
 3050SOL     OW19618   9.030   6.799   0.663 -0.3099  0.5098  0.3937
 3050SOL    HW119619   9.035   6.760   0.571  0.1312 -0.8349  0.9639
 3050SOL    HW219620   8.946   6.770   0.708 -0.1092  0.4405  0.7288
 3051SOL     OW19621   9.984   8.580   0.683  0.3655  0.2564  0.9359
 3051SOL    HW119622   9.898   8.598   0.637  0.8308  0.0408 -0.0454
 3051SOL    HW219623   9.967   8.538   0.772 -0.5109 -1.4502 -0.0170
 3052SOL     OW19624   1.968   0.702   0.801  0.3202 -0.7181  0.0014
 3052SOL    HW119625   2.054   0.737   0.836  1.5780 -1.7617 -1.9843
 3052SOL    HW219626   1.933   0.631   0.862  0.0697  0.7422  1.6050
 3053SOL     OW19627   0.885   6.081   3.359 -0.0817 -0.2222 -0.1875
 3053SOL    HW119628   0.816   6.011   3.343 -0.7607  0.3000  0.4531
 3053SOL    HW219629   0.855   6.143   3.431  2.1528 -1.5076  1.9435
 3054SOL     OW19630   8.632   9.321   3.984  0.3204 -0.2300  0.1913
 3054SOL    HW119631   8.647   9.390   3.913  0.2598 -0.7773 -0.3568
 3054SOL    HW219632   8.717   9.304   4.033 -0.1716  1.8997  1.8496
 3055SOL     OW19633   9.664   5.622   0.426 -0.1132  0.1741  0.1317
 3055SOL    HW119634   9.673   5.635   0.524  3.0381 -2.8079  0.3082
 3055SOL    HW219635   9.662   5.711   0.381  1.9876  1.5407  2.6118
 3056SOL     OW19636   3.575   3.100   0.139 -0.6727  0.5034  0.3897
 3056SOL    HW119637   3.508   3.087   0.066 -0.8016  0.9038  0.4324
 3056SOL    HW219638   3.530   3.093   0.228 -0.6241  0.5840  0.4215
 3057SOL     OW19639   3.712   3.281   2.799 -0.0199 -0.0541  0.6269
 3057SOL    HW119640   3.703   3.352   2.869 -0.9498 -0.2637  0.7296
 3057SOL    HW219641   3.794   3.298   2.744 -0.8866  1.7893 -0.1257
 3058SOL     OW19642   2.442   1.109   0.450  0.4967  0.2218  0.2090
 3058SOL    HW119643   2.355   1.156   0.436  0.4908 -0.2777 -1.5586
 3058SOL    HW219644   2.517   1.175   0.445  0.3788  0.2960 -0.7891
 3059SOL     OW19645   9.594   6.033   0.929 -0.0135  0.8165  0.1559
 3059SOL    HW119646   9.584   6.108   0.864  1.2827 -0.5882 -1.7188
 3059SOL    HW219647   9.523   5.965   0.914  0.9584 -0.0549 -0.5655
 3060SOL     OW19648   9.977   3.917   2.561  0.2938  0.0689  0.0519
 3060SOL    HW119649  10.004   3.851   2.631 -1.0628  0.7606  1.2379
 3060SOL    HW219650  10.055   3.936   2.501  1.2488 -1.0869  0.9118
 3061SOL     OW19651   2.262   2.965   3.085  0.3869  0.1393  0.5413
 3061SOL    HW119652   2.309   3.001   3.005  0.7792  1.4145  1.3374
 3061SOL    HW219653   2.251   2.866   3.075  1.8547  0.0528 -0.3480
 3062SOL     OW19654   7.394   0.341   3.914  0.2311  0.3331 -0.1613
 3062SOL    HW119655   7.489   0.356   3.941  0.7365 -0.9590 -1.1179
 3062SOL    HW219656   7.378   0.378   3.822 -0.4734  1.4585  0.4082
 3063SOL     OW19657   0.605   4.443   1.887 -0.5565  0.2529  0.2008
 3063SOL    HW119658   0.534   4.414   1.823 -0.1796  1.4145 -0.7790
 3063SOL    HW219659   0.675   4.372   1.893 -0.0415  0.5776 -1.5513
 3064SOL     OW19660   8.787   8.804   1.929 -0.3406 -0.1458  0.5130
 3064SOL    HW119661   8.871   8.855   1.912 -1.2852  1.4124  0.3773
 3064SOL    HW219662   8.788   8.720   1.876  2.2987 -1.4682  2.5234
 3065SOL     OW19663   2.056   4.208   4.664 -0.5286  0.6526 -0.4019
 3065SOL    HW119664   2.151   4.192   4.639 -0.0507  1.1662  1.0380
 3065SOL    HW219665   1.998   4.138   4.623  0.2490  1.2432 -2.6230
 3066SOL     OW19666   0.529   7.533   2.851  0.2754  0.4802 -0.4818
 3066SOL    HW119667   0.552   7.599   2.922 -1.2505  0.6935 -0.1700
 3066SOL    HW219668   0.430   7.520   2.848  0.4638 -0.8502 -1.3880
 3067SOL     OW19669   1.122   5.385   3.329  0.3121  0.4519 -0.2160
 3067SOL    HW119670   1.067   5.433   3.261  0.5634 -0.1488 -0.8547
 3067SOL    HW219671   1.094   5.413   3.421 -1.0638  0.1403 -0.5349
 3068SOL     OW19672   7.203   0.645   0.979  0.3686 -0.6695 -0.0142
 3068SOL    HW119673   7.240   0.676   1.066 -0.3774  1.0348 -0.2853
 3068SOL    HW219674   7.151   0.561   0.993  1.3836 -1.1426  0.9501
 3069SOL     OW19675   1.918   6.779   1.640  0.3829  0.4527  0.5215
 3069SOL    HW119676   1.827   6.755   1.673  0.7965 -1.7663  0.1610
 3069SOL    HW219677   1.976   6.803   1.718  0.7957 -2.8463  1.3395
 3070SOL     OW19678   1.741   5.404   1.013 -0.0406  0.6902 -0.3525
 3070SOL    HW119679   1.728   5.503   1.026 -0.5471  0.5086  0.6051
 3070SOL    HW219680   1.706   5.356   1.093 -1.9180 -0.4285 -1.8148
 3071SOL     OW19681   0.210   9.354   3.575 -0.3657  0.1719 -0.6018
 3071SOL    HW119682   0.157   9.291   3.632 -0.4261  1.5263  0.8813
 3071SOL    HW219683   0.159   9.440   3.566  0.6805  0.7742 -0.8060
 3072SOL     OW19684   2.751   0.159   0.453 -0.1645 -0.1170 -0.0718
 3072SOL    HW119685   2.782   0.067   0.474  0.6920  0.5074  1.5754
 3072SOL    HW219686   2.718   0.203   0.537  1.0525  1.6615 -0.4869
 3073SOL     OW19687   0.351   2.406   3.043 -0.7456 -0.2782 -0.6036
 3073SOL    HW119688   0.275   2.420   3.106 -0.4296  2.8449 -0.8446
 3073SOL    HW219689   0.424   2.355   3.088 -0.6536  1.6412  1.4904
 3074SOL     OW19690   2.952   9.615   2.660 -0.0410 -0.7096  0.0330
 3074SOL    HW119691   2.945   9.638   2.563  0.6230 -2.3217 -0.4232
 3074SOL    HW219692   3.049   9.599   2.683  0.0728  1.9612  1.5158
 3075SOL     OW19693   1.593   1.900   0.576 -0.1378 -0.4104  0.2735
 3075SOL    HW119694   1.575   1.948   0.662  3.5525 -0.7116  1.2955
 3075SOL    HW219695   1.578   1.802   0.589 -2.7400 -0.1532 -0.4079
 3076SOL     OW19696   3.679   4.738   1.716 -0.1719  0.2454  0.2045
 3076SOL    HW119697   3.746   4.801   1.677 -1.7857  1.6904 -0.2946
 3076SOL    HW219698   3.695   4.646   1.680  1.1281  0.6958 -0.4036
 3077SOL     OW19699   1.414   2.636   3.537  0.1107  0.0811  0.2364
 3077SOL    HW119700   1.457   2.564   3.591  0.4556 -0.0957 -0.2729
 3077SOL    HW219701   1.454   2.638   3.446 -1.5878 -0.6864 -0.5444
 3078SOL     OW19702   9.427   6.549   1.360 -0.5097  0.8658  0.1144
 3078SOL    HW119703   9.340   6.568   1.315 -0.9638  0.4620  0.8113
 3078SOL    HW219704   9.463   6.461   1.330 -0.6660  0.7325  0.3210
 3079SOL     OW19705   0.999   0.054   4.093  0.3966  0.2054  0.4411
 3079SOL    HW119706   1.016   0.141   4.047  1.2116  0.5536  1.3996
 3079SOL    HW219707   0.937  -0.001   4.037  0.1546  1.2513 -0.3399
 3080SOL     OW19708   1.791   1.752   0.166 -0.1885 -0.3287 -0.0662
 3080SOL    HW119709   1.830   1.668   0.205 -0.6211 -1.2860 -1.6600
 3080SOL    HW219710   1.827   1.766   0.074  1.7663  2.5789  1.0699
 3081SOL     OW19711   9.428   8.730   0.762  0.0981  0.1795 -0.3316
 3081SOL    HW119712   9.479   8.751   0.846  1.1359  0.0276 -0.9276
 3081SOL    HW219713   9.427   8.811   0.703 -0.7769  0.3377 -0.1114
 3082SOL     OW19714   4.442   1.098   2.175  0.1620  0.2501  0.6289
 3082SOL    HW119715   4.514   1.102   2.244 -0.3951 -2.7518  1.4766
 3082SOL    HW219716   4.354   1.118   2.218  0.0878  0.6439  0.2953
 3083SOL     OW19717   2.955   3.201   1.251 -0.0045 -0.3480  0.0845
 3083SOL    HW119718   2.869   3.228   1.209 -1.5342 -2.1643  1.9263
 3083SOL    HW219719   2.989   3.275   1.309 -1.9654 -0.7411  1.7774
 3084SOL     OW19720   2.513   7.612   2.583 -0.4360  0.1285  0.3913
 3084SOL    HW119721   2.567   7.541   2.538  0.2005 -0.0586  1.4262
 3084SOL    HW219722   2.473   7.673   2.514  0.5618 -0.1157 -0.4104
 3085SOL     OW19723   4.412   7.859   2.446  0.0835 -0.3811  0.1676
 3085SOL    HW119724   4.394   7.767   2.410  0.0747  0.1139 -1.1376
 3085SOL    HW219725   4.374   7.867   2.538 -0.1991 -1.5781  0.1640
 3086SOL     OW19726   3.416   1.223   0.512 -0.0100  0.3516  0.3489
 3086SOL    HW119727   3.354   1.235   0.590 -0.6679  0.5874 -0.1939
 3086SOL    HW219728   3.366   1.245   0.427  1.2706  2.1151  0.0218
 3087SOL     OW19729   7.638   5.784   1.685 -0.1104 -0.4619 -0.4084
 3087SOL    HW119730   7.602   5.741   1.768  0.7179  0.4157  0.4081
 3087SOL    HW219731   7.589   5.870   1.668  0.8260  0.1705  0.0804
 3088SOL     OW19732   4.147   0.303   2.335 -0.3726  1.1575 -0.0253
 3088SOL    HW119733   4.072   0.342   2.282  0.1792 -0.5598 -2.1429
 3088SOL    HW219734   4.110   0.241   2.404 -1.0841  3.2988  1.5881
 3089SOL     OW19735   5.355   9.047   2.855 -0.6403  0.6526 -0.6279
 3089SOL    HW119736   5.416   9.124   2.839  0.8802 -0.2265  0.8600
 3089SOL    HW219737   5.349   9.028   2.953 -0.6134 -1.4172 -0.9937
 3090SOL     OW19738   2.978   7.143   1.691 -0.0530  0.2039  0.0770
 3090SOL    HW119739   3.073   7.114   1.703 -0.7092 -1.3135  1.7248
 3090SOL    HW219740   2.940   7.171   1.779 -1.6039 -0.6807 -0.2898
 3091SOL     OW19741   5.268   0.012   1.428 -0.1300  0.7806 -0.4121
 3091SOL    HW119742   5.168   0.011   1.429 -0.1432  1.4431  2.1350
 3091SOL    HW219743   5.300   0.070   1.353 -1.6021 -0.9172 -2.4071
 3092SOL     OW19744   8.232   9.254   2.216  0.7755 -0.0987 -0.6785
 3092SOL    HW119745   8.239   9.281   2.311 -0.3114  0.4031 -0.7336
 3092SOL    HW219746   8.243   9.155   2.208 -0.9244 -0.3655  0.1807
 3093SOL     OW19747   7.656   8.120   3.974 -0.3490 -0.0665  0.4622
 3093SOL    HW119748   7.655   8.220   3.983 -0.3084  0.1963 -2.1899
 3093SOL    HW219749   7.751   8.088   3.970 -0.3362 -0.3589  2.4496
 3094SOL     OW19750   2.919   3.825   4.062  0.3080  0.5789 -0.5778
 3094SOL    HW119751   2.957   3.776   4.140 -0.6042  1.1252  0.2301
 3094SOL    HW219752   2.828   3.790   4.042 -1.2860  3.3069  1.3979
 3095SOL     OW19753   4.268   9.392   1.193 -0.1694 -0.6792  0.4333
 3095SOL    HW119754   4.224   9.362   1.109  1.3876 -1.1252 -0.2397
 3095SOL    HW219755   4.362   9.420   1.174  0.0085 -0.1986  1.9203
 3096SOL     OW19756   0.806   9.237   1.586 -0.0507  0.0089 -0.1123
 3096SOL    HW119757   0.739   9.223   1.513  1.4651 -1.1889 -1.3180
 3096SOL    HW219758   0.886   9.284   1.549 -1.1242  3.5312  1.8202
 3097SOL     OW19759   6.082   8.079   3.308 -0.4626 -0.5601 -0.3585
 3097SOL    HW119760   6.048   8.078   3.402  1.3852  1.2504  0.3707
 3097SOL    HW219761   6.007   8.100   3.246 -1.2943  0.3330  0.9159
 3098SOL     OW19762   1.042   7.132   4.338  0.4351  0.5980 -0.2870
 3098SOL    HW119763   1.078   7.191   4.266  0.4694  0.8726 -0.0461
 3098SOL    HW219764   0.944   7.146   4.347  0.1578 -0.6258 -1.3824
 3099SOL     OW19765   1.183   0.923   0.970  0.2189 -0.0168 -0.2908
 3099SOL    HW119766   1.236   0.839   0.981  0.8188  0.3960 -0.0065
 3099SOL    HW219767   1.216   0.992   1.034 -0.4761  0.3392 -0.3063
 3100SOL     OW19768   4.324   5.202   1.643  0.2645 -0.3222 -0.0115
 3100SOL    HW119769   4.258   5.265   1.601 -0.6612 -0.5539  1.0705
 3100SOL    HW219770   4.401   5.254   1.679  0.1399  0.0684 -0.2994
 3101SOL     OW19771   6.602   9.634   2.260 -0.0524  0.1988  0.3163
 3101SOL    HW119772   6.673   9.564   2.261 -0.0989  0.1559  0.9115
 3101SOL    HW219773   6.532   9.610   2.194  0.3882  0.1433 -0.1343
 3102SOL     OW19774   3.570   5.453   2.242  0.0633  0.0000 -0.0553
 3102SOL    HW119775   3.646   5.493   2.192 -0.7078  2.4116  0.6247
 3102SOL    HW219776   3.539   5.517   2.313 -2.3761 -1.0523 -0.1169
 3103SOL     OW19777   2.326   2.643   3.119 -0.2102  0.1227 -0.0185
 3103SOL    HW119778   2.339   2.683   3.209 -0.1939 -0.4094  0.2193
 3103SOL    HW219779   2.282   2.553   3.129 -1.4611  0.6448 -0.6147
 3104SOL     OW19780   2.593   4.492   1.513 -0.3326  0.1229  0.7200
 3104SOL    HW119781   2.499   4.525   1.503  0.5661  2.9007  1.0416
 3104SOL    HW219782   2.627   4.516   1.604  1.1727  0.4478  0.0849
 3105SOL     OW19783   2.667   7.328   1.956  0.1787 -0.0003  0.4914
 3105SOL    HW119784   2.694   7.424   1.954 -0.1249  0.0550 -1.9601
 3105SOL    HW219785   2.595   7.315   2.025  1.4607  1.1593  2.0805
 3106SOL     OW19786   3.561   2.057   0.729 -0.2064 -1.1693  0.1263
 3106SOL    HW119787   3.533   2.152   0.744  1.9075 -0.6955  1.2929
 3106SOL    HW219788   3.645   2.039   0.779 -0.1921 -3.4736 -0.6649
 3107SOL     OW19789   3.592   1.544   3.573 -0.3387 -0.0762 -0.4685
 3107SOL    HW119790   3.675   1.591   3.603 -1.2009  0.8122  0.5884
 3107SOL    HW219791   3.616   1.456   3.532  1.1311  0.2485 -0.3218
 3108SOL     OW19792   6.855   9.005   0.938 -0.4061 -0.0626 -0.0044
 3108SOL    HW119793   6.790   9.003   0.861  0.2999 -0.2694 -0.6069
 3108SOL    HW219794   6.901   8.916   0.944  1.9318  0.9948 -1.4345
 3109SOL     OW19795   0.605   9.329   1.046  0.3492 -0.4111  0.0502
 3109SOL    HW119796   0.619   9.271   0.967 -2.5808 -0.3772 -0.5385
 3109SOL    HW219797   0.521   9.383   1.034  0.9796  1.1399  2.2368
 3110SOL     OW19798   9.800   6.902   1.258  0.3069  0.8405 -0.0785
 3110SOL    HW119799   9.868   6.890   1.331  1.1176  0.1348 -0.9374
 3110SOL    HW219800   9.761   6.994   1.264  2.3095  1.7535 -0.3730
 3111SOL     OW19801   3.454   1.723   2.578 -0.0647  0.5492  0.2254
 3111SOL    HW119802   3.490   1.814   2.561 -1.5985  0.9367 -1.0845
 3111SOL    HW219803   3.358   1.719   2.549 -0.4826 -1.0264  1.7194
 3112SOL     OW19804   1.263   2.492   3.099 -0.5021  0.7101 -0.4808
 3112SOL    HW119805   1.276   2.585   3.131 -1.0695  1.1461 -1.4736
 3112SOL    HW219806   1.337   2.468   3.036 -0.2069  0.3928 -0.0131
 3113SOL     OW19807   1.262   1.585   1.381 -0.0391  0.2548 -0.0793
 3113SOL    HW119808   1.170   1.622   1.369  0.2780  0.6647 -1.3022
 3113SOL    HW219809   1.261   1.519   1.456 -2.0628 -2.1311 -2.0892
 3114SOL     OW19810   5.495   9.278   2.836 -0.4696  0.4079 -0.1155
 3114SOL    HW119811   5.526   9.255   2.928 -0.4057  1.0850  0.0349
 3114SOL    HW219812   5.475   9.376   2.831 -1.4313  0.1919 -0.5464
 3115SOL     OW19813   2.578   3.362   4.686 -0.2909 -0.3191  0.3321
 3115SOL    HW119814   2.638   3.288   4.655  0.9181  0.8630 -0.2069
 3115SOL    HW219815   2.543   3.412   4.607 -1.4051 -0.5398  0.6821
 3116SOL     OW19816   3.873   2.038   2.179 -0.5921 -0.0122 -0.3945
 3116SOL    HW119817   3.871   1.983   2.263 -1.2410 -0.0526 -0.4344
 3116SOL    HW219818   3.793   2.016   2.122 -1.6102  1.9129  0.2114
 3117SOL     OW19819   3.740   9.229   0.083  0.0784 -0.3773 -0.2536
 3117SOL    HW119820   3.747   9.308   0.023 -1.7659 -0.1084 -0.1702
 3117SOL    HW219821   3.701   9.258   0.171 -0.0422 -1.2602 -0.0069
 3118SOL     OW19822   8.905   5.733   3.265 -0.1990 -0.6643  0.0673
 3118SOL    HW119823   8.987   5.772   3.307  0.0380  0.3822 -1.3013
 3118SOL    HW219824   8.920   5.724   3.166 -1.1890 -1.8733  0.0230
 3119SOL     OW19825   3.842   4.241   3.299  0.0733 -0.0441 -0.2151
 3119SOL    HW119826   3.904   4.253   3.376 -0.0210 -0.1875 -0.1172
 3119SOL    HW219827   3.778   4.318   3.296 -0.3309 -0.3613  0.2273
 3120SOL     OW19828   7.875   9.456   0.814  0.6688 -0.1053 -0.0815
 3120SOL    HW119829   7.918   9.522   0.876  2.3377  1.2162 -2.5141
 3120SOL    HW219830   7.808   9.504   0.756 -0.1192 -1.1015 -0.0008
 3121SOL     OW19831   6.496   9.113   3.185  0.7152  0.8622  0.8584
 3121SOL    HW119832   6.556   9.139   3.110  0.4229 -1.8111 -0.3725
 3121SOL    HW219833   6.513   9.018   3.210 -2.0830  0.4440  1.3400
 3122SOL     OW19834   0.693   1.490   2.660 -0.0283 -0.5829  0.0711
 3122SOL    HW119835   0.618   1.540   2.703 -0.8728 -1.0117 -0.8951
 3122SOL    HW219836   0.664   1.397   2.638 -0.1037  0.0657 -2.7592
 3123SOL     OW19837   0.228   4.313   4.619 -0.7093 -0.3729 -0.4416
 3123SOL    HW119838   0.276   4.400   4.621 -1.4902  0.0623 -0.6587
 3123SOL    HW219839   0.187   4.299   4.529 -0.3131 -1.1200 -0.5180
 3124SOL     OW19840   1.993   5.250   3.027  0.2220 -0.0223 -0.0726
 3124SOL    HW119841   1.968   5.317   2.957 -0.6301 -0.9218 -0.6424
 3124SOL    HW219842   2.072   5.198   2.996  0.4191  0.2133  0.0376
 3125SOL     OW19843   5.032   9.867   2.229 -0.6710  0.2705 -0.0158
 3125SOL    HW119844   4.988   9.896   2.144 -1.2575  0.9401  0.5048
 3125SOL    HW219845   4.997   9.776   2.254  0.6626 -0.6184 -1.2893
 3126SOL     OW19846   3.583   4.950   4.179 -0.2727  0.6236  0.5164
 3126SOL    HW119847   3.579   4.907   4.089  1.0953 -0.6933  1.0583
 3126SOL    HW219848   3.504   4.922   4.233  0.9268 -1.8408  1.1004
 3127SOL     OW19849   8.478   7.805   3.100  0.7375  0.2076  0.3619
 3127SOL    HW119850   8.424   7.724   3.078 -0.5116  0.2580  3.0525
 3127SOL    HW219851   8.469   7.872   3.026 -3.0270  0.2377  0.7291
 3128SOL     OW19852   1.088   6.084   3.171  0.9371 -0.0007 -0.1275
 3128SOL    HW119853   1.152   6.067   3.245  0.5109  2.3586  0.8544
 3128SOL    HW219854   0.995   6.064   3.202  0.7774  0.8144 -0.0532
 3129SOL     OW19855   0.100   8.865   4.631 -0.1343  0.1299 -0.5380
 3129SOL    HW119856   0.121   8.902   4.721 -1.3717  0.8478 -0.5279
 3129SOL    HW219857   0.150   8.917   4.561  0.0166  0.2557 -0.3366
 3130SOL     OW19858   4.103   4.857   1.899  0.7728  0.1897 -0.3568
 3130SOL    HW119859   4.136   4.763   1.906  1.3499  0.3935 -0.2821
 3130SOL    HW219860   4.167   4.910   1.843 -0.7287 -0.0082 -2.3154
 3131SOL     OW19861   8.108   7.846   4.232  0.4376 -0.5632 -0.1963
 3131SOL    HW119862   8.187   7.838   4.173 -0.4757  0.3727 -1.5676
 3131SOL    HW219863   8.026   7.820   4.182 -0.7065  2.8327 -0.2380
 3132SOL     OW19864   4.875   9.741   1.113  0.3665 -0.4977  0.6168
 3132SOL    HW119865   4.959   9.704   1.154  0.3146  0.1048  1.2774
 3132SOL    HW219866   4.797   9.686   1.141  0.4394 -0.5776  0.6655
 3133SOL     OW19867   3.267   2.115   1.031  0.0307 -0.6450 -0.7088
 3133SOL    HW119868   3.236   2.134   1.125  0.8200 -1.8795 -0.1882
 3133SOL    HW219869   3.359   2.151   1.019  0.0685 -0.8127 -0.9153
 3134SOL     OW19870   9.929   7.964   1.880 -0.0943 -0.0151  0.0021
 3134SOL    HW119871   9.965   7.873   1.859 -0.8119 -0.6485  1.4655
 3134SOL    HW219872   9.880   7.961   1.967  0.1080  1.8342  0.1887
 3135SOL     OW19873   4.359   0.528   0.859 -0.1296 -0.0072 -0.4931
 3135SOL    HW119874   4.453   0.506   0.834 -0.0325 -1.7544  1.2871
 3135SOL    HW219875   4.306   0.443   0.867 -1.4313  0.8550  0.1958
 3136SOL     OW19876   4.943   0.410   2.619 -0.3023  0.1995 -0.6807
 3136SOL    HW119877   4.914   0.412   2.523 -0.1433  0.3384 -0.7264
 3136SOL    HW219878   4.981   0.499   2.644  0.0916  0.0172 -0.6249
 3137SOL     OW19879   0.441   0.321   2.439 -0.0854 -0.0863  0.1955
 3137SOL    HW119880   0.397   0.374   2.366 -0.0818 -0.6165 -0.1950
 3137SOL    HW219881   0.526   0.366   2.466 -0.7200  0.7968  0.7608
 3138SOL     OW19882   0.393   5.825   3.048  0.1608 -0.1377 -0.0755
 3138SOL    HW119883   0.460   5.817   2.974  0.1909 -2.0407  0.1227
 3138SOL    HW219884   0.339   5.908   3.035  1.0711  0.2551 -1.4845
 3139SOL     OW19885   1.152   7.672   0.538 -0.5571  0.2537 -0.2561
 3139SOL    HW119886   1.185   7.628   0.454 -0.3873  0.1922 -0.1575
 3139SOL    HW219887   1.115   7.602   0.599  0.2227  0.1760  0.1371
 3140SOL     OW19888   7.896   9.888   0.731  0.1925 -0.6556  0.0929
 3140SOL    HW119889   7.807   9.928   0.708 -0.3150 -1.2757  0.9012
 3140SOL    HW219890   7.965   9.918   0.666 -0.7306 -0.6029 -0.8680
 3141SOL     OW19891   1.870   8.255   3.012 -0.1372 -0.3472 -0.0895
 3141SOL    HW119892   1.794   8.203   2.973 -1.4742  2.3349 -1.2139
 3141SOL    HW219893   1.943   8.264   2.943  0.1172 -0.7970  0.1230
 3142SOL     OW19894   3.255   6.788   2.744 -0.3036  0.1268 -1.0496
 3142SOL    HW119895   3.333   6.818   2.799  0.7967 -0.8767 -2.0318
 3142SOL    HW219896   3.285   6.771   2.650 -1.5437 -1.0087 -1.2582
 3143SOL     OW19897   4.681   7.755   2.055  0.0808  0.0069 -0.0307
 3143SOL    HW119898   4.606   7.812   2.090  1.3952  0.5491  2.0048
 3143SOL    HW219899   4.713   7.792   1.968 -0.3420  1.2915  0.3375
 3144SOL     OW19900   2.449   3.485   3.492  0.3532 -0.1073  0.0528
 3144SOL    HW119901   2.439   3.457   3.588  0.0272  0.0741  0.0714
 3144SOL    HW219902   2.538   3.528   3.480 -0.0849  0.9675  0.5470
 3145SOL     OW19903   9.890   0.026   2.583 -0.7058 -0.1698 -0.7764
 3145SOL    HW119904   9.812   0.023   2.522  0.2702 -1.1435 -1.9961
 3145SOL    HW219905   9.961   0.085   2.545 -0.1191 -0.7233 -0.5620
 3146SOL     OW19906   4.752   3.260   0.131  0.0687  0.1174 -0.2640
 3146SOL    HW119907   4.826   3.310   0.177  0.6796  0.2234 -1.3576
 3146SOL    HW219908   4.759   3.163   0.153  0.7947  0.0644 -0.7004
 3147SOL     OW19909   4.330   8.248   2.696 -0.2853 -0.1902  0.2555
 3147SOL    HW119910   4.312   8.282   2.604  0.9560  1.9507  0.7855
 3147SOL    HW219911   4.429   8.247   2.712 -0.4948 -0.5938  1.5519
 3148SOL     OW19912   1.208   4.951   0.772 -0.8334  0.5460  0.0520
 3148SOL    HW119913   1.204   4.906   0.683 -1.2423  0.5217  0.0847
 3148SOL    HW219914   1.143   5.027   0.774 -1.2760  0.1531  0.5576
 3149SOL     OW19915   1.629   1.037   4.382  0.3572 -0.7197  0.1209
 3149SOL    HW119916   1.694   1.076   4.447 -0.7494 -1.2778  1.6008
 3149SOL    HW219917   1.658   1.058   4.289  1.7376  0.4819  0.7986
 3150SOL     OW19918   4.272   7.041   3.685  0.6728  0.0110 -0.8134
 3150SOL    HW119919   4.260   6.942   3.692  0.4609  0.0202 -1.0637
 3150SOL    HW219920   4.367   7.062   3.664  1.3672 -0.0339  2.0272
 3151SOL     OW19921   7.355   8.238   1.625 -0.0938  0.1059  0.4193
 3151SOL    HW119922   7.357   8.303   1.549 -0.7293  1.7357  1.7697
 3151SOL    HW219923   7.384   8.284   1.709  0.0759 -1.5295  1.2747
 3152SOL     OW19924   3.657   6.438   1.941 -0.2307 -0.2612  0.3358
 3152SOL    HW119925   3.634   6.436   2.038  0.8650 -0.6769  0.5936
 3152SOL    HW219926   3.626   6.354   1.897  0.1703 -0.5244  0.5462
 3153SOL     OW19927   1.788   6.767   1.356  0.4189 -0.4282  0.1596
 3153SOL    HW119928   1.807   6.698   1.286  0.6723 -0.9345  0.7208
 3153SOL    HW219929   1.843   6.747   1.438  2.4129  1.8614 -0.5415
 3154SOL     OW19930   7.475   9.310   2.240  0.7551 -0.3920 -0.2286
 3154SOL    HW119931   7.501   9.222   2.281  0.5003 -0.9917 -1.3289
 3154SOL    HW219932   7.558   9.362   2.220  0.8531  0.4104  2.0770
 3155SOL     OW19933   7.128   8.402   1.937 -0.0927  0.0341  0.2512
 3155SOL    HW119934   7.073   8.409   2.021  1.2958 -0.5738  1.2251
 3155SOL    HW219935   7.137   8.306   1.911  1.9478 -0.0266  1.0862
 3156SOL     OW19936   4.273   9.571   3.196 -0.0199 -0.1214  0.0510
 3156SOL    HW119937   4.258   9.647   3.132 -2.9640  0.0509  0.8906
 3156SOL    HW219938   4.246   9.598   3.288  3.5589 -0.6048  1.3364
 3157SOL     OW19939   9.824   9.881   1.792 -0.8419  0.2152 -0.3938
 3157SOL    HW119940   9.793   9.839   1.707  0.8797  0.1500 -1.0067
 3157SOL    HW219941   9.760   9.953   1.819 -0.9551  0.8108 -2.2032
 3158SOL     OW19942   7.169   9.563   3.797  0.1603  0.0470  0.2365
 3158SOL    HW119943   7.112   9.635   3.837 -0.2982 -0.2709  0.1542
 3158SOL    HW219944   7.263   9.574   3.828 -0.1601 -0.1047  1.2648
 3159SOL     OW19945   6.939   7.200   3.080 -0.1922  0.3642  0.1096
 3159SOL    HW119946   6.870   7.208   3.008 -1.2632 -3.1934  0.6620
 3159SOL    HW219947   7.030   7.207   3.039 -0.8097  1.0011 -1.1968
 3160SOL     OW19948   0.486   4.204   2.035 -0.4140  0.3169  0.2007
 3160SOL    HW119949   0.486   4.189   1.936  3.7902  1.2932 -0.0117
 3160SOL    HW219950   0.475   4.116   2.081 -0.7138 -0.3445 -1.0917
 3161SOL     OW19951   0.873   4.873   4.371 -0.1770 -0.5643 -0.1285
 3161SOL    HW119952   0.815   4.853   4.292 -0.3195  0.2923 -0.2511
 3161SOL    HW219953   0.941   4.942   4.344  1.1504 -1.8484 -0.1037
 3162SOL     OW19954   0.462   3.979   0.382  0.3963  0.2108  0.2733
 3162SOL    HW119955   0.411   4.064   0.392  1.1571  0.8794 -1.3521
 3162SOL    HW219956   0.487   3.943   0.472 -0.0214  1.6499  0.9642
 3163SOL     OW19957   0.594   3.305   3.732 -0.1313 -1.1089  0.5218
 3163SOL    HW119958   0.677   3.261   3.764  1.0368  1.9034  1.8236
 3163SOL    HW219959   0.531   3.319   3.809 -0.0542  0.3703  0.3349
 3164SOL     OW19960   8.852   6.995   4.285 -0.0923  0.3368  0.4459
 3164SOL    HW119961   8.870   7.076   4.340 -2.0437  1.0395  0.0962
 3164SOL    HW219962   8.883   6.914   4.334  0.9097  1.2069  1.2674
 3165SOL     OW19963   9.681   7.811   2.235 -0.8956 -0.4413  0.4885
 3165SOL    HW119964   9.619   7.794   2.158 -1.2395  1.9471  0.2042
 3165SOL    HW219965   9.629   7.808   2.320 -0.6320 -2.4468  0.6040
 3166SOL     OW19966   0.322   0.492   2.280  0.1812 -0.1517  0.1265
 3166SOL    HW119967   0.336   0.517   2.185 -2.4225 -0.2882 -0.3410
 3166SOL    HW219968   0.286   0.570   2.331 -0.6342 -0.7335  0.4528
 3167SOL     OW19969   6.341   9.535   1.640 -0.6935  0.0170 -0.8770
 3167SOL    HW119970   6.243   9.523   1.624 -0.9419  0.4839  0.2296
 3167SOL    HW219971   6.392   9.476   1.578 -1.7461 -3.2232  1.2183
 3168SOL     OW19972   2.079   8.894   1.787  0.2697  0.7628 -0.3265
 3168SOL    HW119973   2.101   8.979   1.835 -1.9024  0.1026  1.9690
 3168SOL    HW219974   2.040   8.915   1.698  1.2585  2.1207 -0.4489
 3169SOL     OW19975   2.947   7.371   2.615  0.0129 -0.0754  0.0365
 3169SOL    HW119976   2.985   7.313   2.687 -1.9716  1.7611  2.6998
 3169SOL    HW219977   2.968   7.467   2.635  2.4873  0.2897 -3.8024
 3170SOL     OW19978   1.931   3.912   3.806  0.5770 -0.0822 -0.0329
 3170SOL    HW119979   1.971   3.833   3.853  1.4195  0.9460  1.0129
 3170SOL    HW219980   1.838   3.890   3.777  0.0235 -0.7506  2.1429
 3171SOL     OW19981   0.023   9.582   2.298  0.2849 -0.6583  0.5511
 3171SOL    HW119982   0.091   9.520   2.259 -1.1251 -1.7664 -0.1816
 3171SOL    HW219983  -0.044   9.608   2.228  3.1784  5.1564 -0.4033
 3172SOL     OW19984   9.875   6.603   0.716  0.6926 -0.6689 -0.2942
 3172SOL    HW119985   9.958   6.647   0.682 -0.5299  1.8158 -0.1339
 3172SOL    HW219986   9.824   6.667   0.774 -1.4713 -2.0563 -0.6131
 3173SOL     OW19987   0.507   4.202   4.179 -0.0069 -0.0260 -0.0565
 3173SOL    HW119988   0.430   4.212   4.116 -0.0207  0.2649  0.0081
 3173SOL    HW219989   0.493   4.120   4.235 -0.8204  0.6249  0.7130
 3174SOL     OW19990   1.383   4.450   0.716  0.0367 -0.4921 -0.4612
 3174SOL    HW119991   1.374   4.399   0.630 -2.6034  0.2236 -0.6644
 3174SOL    HW219992   1.370   4.547   0.698  0.5096 -0.2180  0.6155
 3175SOL     OW19993   9.263   9.810   4.191 -0.4520 -0.0205 -0.2253
 3175SOL    HW119994   9.289   9.798   4.096  0.3434 -1.1901  0.1195
 3175SOL    HW219995   9.240   9.721   4.231  0.0370  0.3435  0.9033
 3176SOL     OW19996   3.182   9.562   4.451  0.2279  0.3542  0.1936
 3176SOL    HW119997   3.206   9.484   4.508  0.7700 -0.6619 -1.3912
 3176SOL    HW219998   3.107   9.612   4.493  0.0816 -0.8427  1.3913
 3177SOL     OW19999   7.533   6.857   3.599 -0.0608  0.4061  0.1456
 3177SOL    HW120000   7.449   6.865   3.545  0.3193  0.0871 -0.4989
 3177SOL    HW220001   7.545   6.939   3.655 -1.6714 -0.2511  1.4843
 3178SOL     OW20002   4.885   8.294   1.715 -0.3511 -0.1233 -0.8678
 3178SOL    HW120003   4.802   8.240   1.733 -1.2635  0.9130 -1.8396
 3178SOL    HW220004   4.952   8.277   1.787 -1.9010 -0.0145  0.6441
 3179SOL     OW20005   0.330   8.980   3.199 -0.2919 -0.4946 -0.2283
 3179SOL    HW120006   0.375   8.900   3.240  0.2284 -0.4063 -0.6121
 3179SOL    HW220007   0.341   9.059   3.259 -0.2111 -0.5516 -0.1673
 3180SOL     OW20008   0.508   2.667   0.954 -0.0382  0.6140  0.1860
 3180SOL    HW120009   0.510   2.690   0.857  1.2289 -0.4234 -0.0491
 3180SOL    HW220010   0.507   2.751   1.008  2.2032  1.2440 -0.6827
 3181SOL     OW20011   2.803   1.934   0.788 -0.3929  0.0660 -0.1059
 3181SOL    HW120012   2.744   2.014   0.791 -0.3682  0.0653  0.4249
 3181SOL    HW220013   2.898   1.961   0.806 -0.1421  0.1553 -1.5517
 3182SOL     OW20014   7.191   8.307   4.039 -0.0965  0.1660  0.3020
 3182SOL    HW120015   7.118   8.288   3.974 -0.3516  0.1232  0.5989
 3182SOL    HW220016   7.164   8.384   4.097 -0.6025 -0.9124  1.5050
 3183SOL     OW20017   1.774   5.235   1.231 -1.0122  0.4596 -0.4810
 3183SOL    HW120018   1.854   5.182   1.261 -0.9501  1.0779  0.4596
 3183SOL    HW220019   1.706   5.172   1.192 -0.3020 -0.1346 -0.7749
 3184SOL     OW20020   2.645   9.725   2.961 -0.1572  0.0366 -0.1569
 3184SOL    HW120021   2.612   9.758   2.872  0.1300 -0.1949 -0.3494
 3184SOL    HW220022   2.653   9.625   2.958 -0.6026 -0.0181  0.2825
 3185SOL     OW20023   1.003   0.965   1.636 -0.2196 -0.2889 -0.1535
 3185SOL    HW120024   1.074   0.904   1.671  0.1337 -0.7408 -1.6266
 3185SOL    HW220025   1.007   0.967   1.537 -1.1610  1.0357 -0.1763
 3186SOL     OW20026   1.885   2.170   0.625 -0.0256 -0.3776  0.0272
 3186SOL    HW120027   1.897   2.177   0.724  2.8029 -0.4092 -0.2832
 3186SOL    HW220028   1.813   2.234   0.596 -0.8591 -0.3317  2.0598
 3187SOL     OW20029   4.081   0.767   3.269  0.3341  0.2701  0.7838
 3187SOL    HW120030   4.077   0.848   3.212  0.4345  1.1497  2.0038
 3187SOL    HW220031   4.026   0.694   3.229 -0.8084  1.3674  0.3504
 3188SOL     OW20032   5.644   8.259   3.301 -0.4517 -0.2238  0.1975
 3188SOL    HW120033   5.618   8.268   3.397 -1.8440 -2.0575  0.0324
 3188SOL    HW220034   5.619   8.168   3.268 -0.8763  0.6821 -2.1537
 3189SOL     OW20035   0.533   8.333   0.828 -0.4638  0.2152 -0.2023
 3189SOL    HW120036   0.474   8.255   0.809  1.8383 -1.4723 -0.6575
 3189SOL    HW220037   0.525   8.359   0.924 -1.7031 -0.1669 -0.1998
 3190SOL     OW20038   2.376   9.227   0.853  0.1424  0.0591  0.0360
 3190SOL    HW120039   2.290   9.222   0.903  0.8169 -2.8374  1.0155
 3190SOL    HW220040   2.359   9.219   0.755 -0.5232 -3.3855  0.3984
 3191SOL     OW20041   1.441   4.823   1.177  0.1868  0.0937 -0.6815
 3191SOL    HW120042   1.515   4.787   1.233 -2.3499 -3.1310  0.6825
 3191SOL    HW220043   1.425   4.762   1.099 -3.0543 -0.9581  0.7388
 3192SOL     OW20044   2.790   3.143   0.111 -0.0686  0.0890  0.2068
 3192SOL    HW120045   2.707   3.185   0.148  0.4201  0.7369  0.5718
 3192SOL    HW220046   2.870   3.175   0.162  0.2452 -1.9350  1.0701
 3193SOL     OW20047   3.000   9.965   2.149  0.2584  0.0033  0.2654
 3193SOL    HW120048   2.972  10.061   2.154  0.4283 -0.0226  1.8135
 3193SOL    HW220049   2.931   9.913   2.097  0.6234  1.1177 -1.3649
 3194SOL     OW20050   1.801   3.770   0.447 -0.7158  0.1386 -0.4609
 3194SOL    HW120051   1.755   3.687   0.414 -0.0485 -0.1911 -0.5728
 3194SOL    HW220052   1.894   3.772   0.411 -0.2538  0.1953  0.7378
 3195SOL     OW20053   4.594   1.873   0.739 -0.0842  0.1871  0.0595
 3195SOL    HW120054   4.551   1.873   0.649 -0.6136 -2.2781  0.2807
 3195SOL    HW220055   4.566   1.792   0.789  2.5586 -0.0122  1.3095
 3196SOL     OW20056   6.265   0.747   2.451 -0.2607  0.2751 -0.0310
 3196SOL    HW120057   6.227   0.729   2.541  1.0622  2.2217  0.9333
 3196SOL    HW220058   6.317   0.667   2.420  0.1818  0.0035  1.4016
 3197SOL     OW20059   3.857   7.379   1.888  0.1687 -0.3596  0.1144
 3197SOL    HW120060   3.840   7.477   1.875  0.4245 -0.2185  0.8416
 3197SOL    HW220061   3.819   7.350   1.975 -0.0126 -0.9419 -0.1564
 3198SOL     OW20062   3.994   7.636   2.574  0.6011  0.4160  0.1958
 3198SOL    HW120063   4.018   7.733   2.575  0.6751  0.4245 -1.2092
 3198SOL    HW220064   4.074   7.582   2.598  1.2262  0.5950 -1.4288
 3199SOL     OW20065   8.038   6.582   1.442  0.7872  0.1353 -0.2583
 3199SOL    HW120066   8.105   6.634   1.494 -0.6775 -0.5980  2.4780
 3199SOL    HW220067   8.079   6.497   1.409  1.6191  0.4037  0.0908
 3200SOL     OW20068   0.227   8.988   4.416 -0.6668  0.2680 -0.1981
 3200SOL    HW120069   0.205   8.919   4.348 -0.6388  0.2245 -0.1624
 3200SOL    HW220070   0.240   9.076   4.372 -4.2586  1.0389  0.1144
 3201SOL     OW20071   6.617   9.736   1.536  0.4068 -0.3599  0.0476
 3201SOL    HW120072   6.555   9.719   1.459  0.1297 -1.0091  0.4091
 3201SOL    HW220073   6.564   9.763   1.616  0.8350  2.1937 -0.4909
 3202SOL     OW20074   3.737   0.485   4.636  0.5057 -0.0671  0.4180
 3202SOL    HW120075   3.654   0.515   4.590  0.4868 -0.6785  0.0487
 3202SOL    HW220076   3.714   0.440   4.723  0.4894  0.3409  0.6235
 3203SOL     OW20077   2.529   5.518   2.311 -0.7494  0.8362 -0.3691
 3203SOL    HW120078   2.617   5.562   2.297  0.1766 -0.1366  2.1965
 3203SOL    HW220079   2.468   5.580   2.360 -0.8398  0.7965 -0.4311
 3204SOL     OW20080   8.374   6.767   4.252 -0.9241 -0.0046  0.0940
 3204SOL    HW120081   8.327   6.784   4.165  0.0067  0.4431 -0.3281
 3204SOL    HW220082   8.366   6.671   4.276 -2.3984  0.1366  0.2279
 3205SOL     OW20083   0.232   3.019   1.660 -0.3461 -0.1669 -0.1046
 3205SOL    HW120084   0.298   2.972   1.718 -1.7546 -2.8442 -0.6066
 3205SOL    HW220085   0.229   2.975   1.570 -2.9498 -0.2283 -0.0114
 3206SOL     OW20086   4.948   0.959   3.890  0.1728  0.6438  0.3816
 3206SOL    HW120087   4.853   0.951   3.859  0.2280  0.8165  0.1699
 3206SOL    HW220088   5.008   0.914   3.823  0.1015 -0.7974  1.2652
 3207SOL     OW20089   9.493   9.896   1.277 -0.0965  0.5224  0.4016
 3207SOL    HW120090   9.397   9.899   1.251 -0.1643 -1.0224  0.4218
 3207SOL    HW220091   9.513   9.972   1.339 -0.7624  2.1425 -1.3175
 3208SOL     OW20092   0.718   8.827   2.483 -0.1666  0.2567 -0.0753
 3208SOL    HW120093   0.653   8.881   2.536  1.4710  1.9468  0.2603
 3208SOL    HW220094   0.694   8.833   2.386 -0.9369  0.2716  0.1133
 3209SOL     OW20095   3.811   1.184   2.692  0.4140 -0.7242  0.1616
 3209SOL    HW120096   3.823   1.264   2.633  2.4901 -1.1030  0.0336
 3209SOL    HW220097   3.766   1.112   2.640  0.8813 -0.5356 -0.5249
 3210SOL     OW20098   2.298   4.072   4.564  0.5437 -0.0731  0.0098
 3210SOL    HW120099   2.377   4.057   4.624 -0.0502 -0.5337  0.6807
 3210SOL    HW220100   2.279   3.988   4.513  0.0743 -0.1699  0.3433
 3211SOL     OW20101   0.735   5.512   1.291 -0.4175 -0.1037 -0.3001
 3211SOL    HW120102   0.834   5.510   1.290 -0.3943  0.8848 -0.6692
 3211SOL    HW220103   0.701   5.457   1.368  0.4878  1.4237  1.2195
 3212SOL     OW20104   0.147   7.623   2.056  0.1813 -0.1138  0.1463
 3212SOL    HW120105   0.149   7.524   2.073  1.0882  0.1287  1.5960
 3212SOL    HW220106   0.104   7.641   1.968 -2.5271 -1.6487  1.0683
 3213SOL     OW20107   1.476   4.237   4.454 -0.2317  0.4366 -0.0183
 3213SOL    HW120108   1.486   4.253   4.552  3.4939 -0.0696 -0.2591
 3213SOL    HW220109   1.456   4.324   4.408  0.7568  1.1536  0.8836
 3214SOL     OW20110   0.255   8.139   2.872  0.2979 -0.3018 -0.4821
 3214SOL    HW120111   0.297   8.215   2.823  0.3237  1.6307  2.4007
 3214SOL    HW220112   0.158   8.135   2.850  0.1718  0.9762 -0.2092
 3215SOL     OW20113   4.422   6.543   2.392 -0.2445  0.3380  0.2686
 3215SOL    HW120114   4.340   6.572   2.440 -0.3539 -1.2134  1.0422
 3215SOL    HW220115   4.462   6.464   2.438 -0.7920 -1.7124 -2.6149
 3216SOL     OW20116   0.367   0.858   0.722  0.2510  0.2360  0.4257
 3216SOL    HW120117   0.364   0.931   0.790  0.7033 -0.4113  1.1507
 3216SOL    HW220118   0.331   0.892   0.635  0.1821  1.2317  0.8338
 3217SOL     OW20119   1.945   4.460   3.520 -0.0478  0.4155 -0.3881
 3217SOL    HW120120   1.973   4.496   3.610 -1.2983 -2.1465  1.0806
 3217SOL    HW220121   1.850   4.484   3.503  0.3622  1.4182 -1.3387
 3218SOL     OW20122   7.926   7.847   4.469  0.2000 -0.0024 -0.4151
 3218SOL    HW120123   7.900   7.871   4.376 -0.4709  1.9440  0.2398
 3218SOL    HW220124   8.023   7.867   4.483 -0.6140  3.7403  0.4833
 3219SOL     OW20125   7.247   0.297   4.422  0.0303 -0.8502  0.3590
 3219SOL    HW120126   7.192   0.215   4.437 -0.5459 -1.2022 -3.0918
 3219SOL    HW220127   7.186   0.376   4.407  0.3233 -1.2556 -3.5491
 3220SOL     OW20128   6.946   8.962   0.301  0.1854 -0.1923 -0.7180
 3220SOL    HW120129   7.001   9.018   0.363 -2.7354  3.6328 -1.3566
 3220SOL    HW220130   6.977   8.977   0.207  1.4183 -2.1349 -0.6324
 3221SOL     OW20131   0.821   4.600   4.164 -0.2249 -0.3672  0.0313
 3221SOL    HW120132   0.725   4.613   4.138  0.0484  1.0883 -0.3376
 3221SOL    HW220133   0.841   4.503   4.174 -1.1204 -0.8375 -2.3440
 3222SOL     OW20134   8.455   7.788   1.306 -0.0173  0.0688  0.2438
 3222SOL    HW120135   8.365   7.781   1.264  0.4615 -1.3111 -0.5563
 3222SOL    HW220136   8.522   7.817   1.237  0.7091 -1.8838  0.1083
 3223SOL     OW20137   0.624   8.983   0.486  0.0505 -0.3616 -0.0252
 3223SOL    HW120138   0.616   9.078   0.456 -0.5937 -0.8178 -1.3384
 3223SOL    HW220139   0.534   8.949   0.512 -0.2510 -1.4844 -2.3564
 3224SOL     OW20140   9.831   5.893   0.838 -0.1717 -0.0236 -0.2050
 3224SOL    HW120141   9.753   5.944   0.873 -0.3573  0.8021 -1.7848
 3224SOL    HW220142   9.915   5.930   0.878 -0.5655 -0.9634  1.5498
 3225SOL     OW20143   4.491   0.782   2.799  0.4699  0.1967  0.3472
 3225SOL    HW120144   4.442   0.848   2.742 -0.7418 -1.1122 -0.1851
 3225SOL    HW220145   4.533   0.712   2.740  1.0432  0.0366  0.9370
 3226SOL     OW20146   6.128   9.535   3.808  0.0187  0.2521  0.0499
 3226SOL    HW120147   6.216   9.515   3.851  0.1119  0.6640  0.0552
 3226SOL    HW220148   6.063   9.567   3.877  0.5428  2.1109 -0.2996
 3227SOL     OW20149   8.506   5.841   2.183 -0.1074  0.5483  0.4066
 3227SOL    HW120150   8.458   5.874   2.264 -1.1487 -0.4371  0.2118
 3227SOL    HW220151   8.481   5.745   2.166 -0.5693  0.9936 -1.5492
 3228SOL     OW20152   3.484   0.670   0.667  0.2451  0.2885  0.2695
 3228SOL    HW120153   3.515   0.635   0.578 -3.4950 -1.2375 -0.5240
 3228SOL    HW220154   3.464   0.768   0.659 -0.6149  0.0412 -0.7521
 3229SOL     OW20155   4.013   4.480   4.185 -0.0507  0.2829 -0.0493
 3229SOL    HW120156   4.096   4.428   4.206 -0.3790 -0.1323  0.2222
 3229SOL    HW220157   4.025   4.528   4.098 -0.4141 -1.6528 -1.1715
 3230SOL     OW20158   2.238   8.121   1.775 -0.1623 -0.2584 -0.2407
 3230SOL    HW120159   2.142   8.138   1.798 -0.4020 -2.1169  0.2617
 3230SOL    HW220160   2.273   8.048   1.834  1.2855 -0.2471 -1.0767
 3231SOL     OW20161   2.580   7.305   1.227  0.3043  0.0814  0.2220
 3231SOL    HW120162   2.627   7.377   1.176 -1.5278  1.2925  0.1795
 3231SOL    HW220163   2.646   7.240   1.262  1.8083  0.5128 -1.7262
 3232SOL     OW20164   7.595   5.846   2.140  0.8320 -0.0149 -0.1676
 3232SOL    HW120165   7.568   5.803   2.226 -0.6688  0.7345 -0.2476
 3232SOL    HW220166   7.689   5.879   2.147  0.8288 -0.2391  1.0740
 3233SOL     OW20167   8.573   9.235   4.675 -0.1919  0.3668  0.3140
 3233SOL    HW120168   8.569   9.299   4.598 -1.2831  0.3526  0.3549
 3233SOL    HW220169   8.513   9.267   4.748 -2.2371 -1.6776 -0.4139
 3234SOL     OW20170   8.570   7.723   1.798 -0.4533 -0.1617  0.3744
 3234SOL    HW120171   8.653   7.702   1.851  0.2384 -1.0350 -1.0415
 3234SOL    HW220172   8.596   7.757   1.708 -1.6227  2.4069  0.9503
 3235SOL     OW20173   0.539   5.087   1.628 -0.5253 -0.0957 -0.4253
 3235SOL    HW120174   0.496   5.034   1.556 -0.6486 -0.3561 -0.1588
 3235SOL    HW220175   0.567   5.026   1.703 -0.5065  0.1874 -0.1998
 3236SOL     OW20176   7.304   7.364   3.521 -0.0003  0.2954  0.0294
 3236SOL    HW120177   7.275   7.448   3.476 -1.7058 -0.5289 -0.4604
 3236SOL    HW220178   7.259   7.286   3.478  1.1928 -0.8299  0.7800
 3237SOL     OW20179   3.303   0.673   3.375 -0.3676 -0.0777  0.0616
 3237SOL    HW120180   3.354   0.748   3.416  3.8440 -1.9601 -1.4151
 3237SOL    HW220181   3.320   0.670   3.276 -1.2720 -2.3041 -0.0723
 3238SOL     OW20182   4.056   8.744   0.427 -0.2351 -0.0775  0.3819
 3238SOL    HW120183   3.959   8.767   0.439  0.0191  0.7514  0.8078
 3238SOL    HW220184   4.092   8.793   0.348 -0.8457 -2.4325 -1.4313
 3239SOL     OW20185   2.835   4.124   1.802 -0.0766 -0.1914 -0.4337
 3239SOL    HW120186   2.759   4.059   1.800 -1.6085  1.4977  1.0365
 3239SOL    HW220187   2.835   4.172   1.889  2.2230  0.4076 -0.7384
 3240SOL     OW20188   9.494   9.152   2.411  0.3486 -0.1265 -0.0042
 3240SOL    HW120189   9.550   9.078   2.375 -0.1667 -0.9247  0.7974
 3240SOL    HW220190   9.489   9.227   2.344  2.9177  0.2700  0.2023
 3241SOL     OW20191   6.059   6.678   2.411  0.0882 -0.3410  0.6503
 3241SOL    HW120192   6.131   6.737   2.450 -1.2431  2.6229 -1.1685
 3241SOL    HW220193   5.973   6.728   2.409 -0.6456 -1.6133 -2.8681
 3242SOL     OW20194   5.948   7.683   3.058  0.0774 -0.2840 -0.8784
 3242SOL    HW120195   6.040   7.674   3.019 -0.3649 -0.3490 -1.9243
 3242SOL    HW220196   5.899   7.597   3.047  0.9452 -1.2852  2.4938
 3243SOL     OW20197   7.536   7.642   2.452  0.5959 -0.2463  0.3016
 3243SOL    HW120198   7.459   7.679   2.504  1.5640  1.6991  0.4000
 3243SOL    HW220199   7.566   7.556   2.494 -0.0106  0.1979  1.6836
 3244SOL     OW20200   4.293   3.468   2.911 -0.2361  0.4408  0.7940
 3244SOL    HW120201   4.378   3.502   2.952 -0.5587  1.4320  0.6538
 3244SOL    HW220202   4.257   3.536   2.847 -0.0578 -0.8232 -0.7038
 3245SOL     OW20203   9.811   4.377   0.594  0.1490 -0.4677  0.0771
 3245SOL    HW120204   9.854   4.436   0.662  1.4137  0.1987 -1.2960
 3245SOL    HW220205   9.729   4.421   0.558 -1.1169 -1.2654  1.8897
 3246SOL     OW20206   3.116   5.811   2.140  0.4563  0.1767 -0.5579
 3246SOL    HW120207   3.084   5.736   2.197  0.2556  1.2452  0.7668
 3246SOL    HW220208   3.041   5.875   2.124  1.2670  1.4475  0.5477
 3247SOL     OW20209   9.668   0.294   2.775  0.1970 -0.2463 -0.2276
 3247SOL    HW120210   9.684   0.353   2.696  1.5083  0.4356  0.5237
 3247SOL    HW220211   9.645   0.202   2.744  3.3486 -0.6914 -1.4380
 3248SOL     OW20212   2.586   4.732   2.949 -0.4461 -0.1718 -0.4457
 3248SOL    HW120213   2.530   4.767   3.024  1.7365  2.5350 -0.0146
 3248SOL    HW220214   2.535   4.736   2.864 -1.6699  0.1816  0.3019
 3249SOL     OW20215   9.454   8.409   3.087 -0.0130 -0.1338 -0.4983
 3249SOL    HW120216   9.508   8.404   3.170 -0.3551 -0.6555 -0.3017
 3249SOL    HW220217   9.365   8.448   3.107 -0.1312 -0.3511 -0.5975
 3250SOL     OW20218   4.049   8.050   1.677  0.1379  0.0340  0.0237
 3250SOL    HW120219   4.066   8.070   1.580  0.6022 -2.7844 -0.4979
 3250SOL    HW220220   3.955   8.076   1.699  0.4495  1.9998 -0.7955
 3251SOL     OW20221   8.311   1.085   1.459 -0.3107  0.7361  0.2880
 3251SOL    HW120222   8.381   1.138   1.411  0.0103 -0.4722 -0.5998
 3251SOL    HW220223   8.331   0.988   1.450 -1.5273  0.4144  0.9300
 3252SOL     OW20224   7.773   9.020   0.542 -0.2769  0.3329 -0.5315
 3252SOL    HW120225   7.746   8.975   0.457 -1.8296  0.3996 -0.0845
 3252SOL    HW220226   7.693   9.064   0.584  0.2399 -0.6314  1.5322
 3253SOL     OW20227   0.353   8.550   4.023  0.8542  0.0152  0.6549
 3253SOL    HW120228   0.305   8.485   3.964 -0.3196  0.7660  0.7587
 3253SOL    HW220229   0.396   8.500   4.098 -0.7083 -0.6035  1.1821
 3254SOL     OW20230   3.047   2.545   0.595 -0.3276  0.1224 -0.1951
 3254SOL    HW120231   3.030   2.596   0.679 -2.1786  0.1243 -0.5605
 3254SOL    HW220232   3.038   2.606   0.516  0.7296 -0.0343 -0.4490
 3255SOL     OW20233   1.448   5.408   4.405 -0.0596 -0.2428 -0.4715
 3255SOL    HW120234   1.378   5.424   4.335  1.1055  1.8210 -1.2307
 3255SOL    HW220235   1.448   5.484   4.470  1.0258 -0.5524 -0.1031
 3256SOL     OW20236   3.396   3.222   1.669  0.0784 -0.4715 -0.0631
 3256SOL    HW120237   3.383   3.227   1.570  1.1246 -0.0896 -0.1929
 3256SOL    HW220238   3.430   3.132   1.694 -1.0597 -0.8726  0.0630
 3257SOL     OW20239   3.552   7.801   2.812  0.1590 -0.0715 -0.2881
 3257SOL    HW120240   3.606   7.859   2.873 -0.5693  0.8753 -0.5211
 3257SOL    HW220241   3.546   7.844   2.722 -0.2475 -0.5981 -0.5171
 3258SOL     OW20242   4.237   7.830   1.005  0.7221 -0.0478 -0.3968
 3258SOL    HW120243   4.210   7.798   1.096  1.5063  0.1195 -0.1009
 3258SOL    HW220244   4.158   7.827   0.944 -0.1088  0.9832  0.6082
 3259SOL     OW20245   0.121   5.600   1.368  0.1824 -0.0481 -0.7232
 3259SOL    HW120246   0.091   5.628   1.459 -0.0424 -0.6294 -0.6128
 3259SOL    HW220247   0.045   5.555   1.321  0.3049  0.2306 -1.1888
 3260SOL     OW20248   2.149   6.242   1.143  0.0354 -1.2768  0.0946
 3260SOL    HW120249   2.051   6.233   1.125 -0.7868 -0.4342  3.7288
 3260SOL    HW220250   2.189   6.151   1.155 -0.6794 -1.5449  0.4628
 3261SOL     OW20251   3.307   5.112   3.027 -0.1343  0.0664 -0.5009
 3261SOL    HW120252   3.359   5.068   3.100 -1.5763  1.3650  1.3645
 3261SOL    HW220253   3.369   5.164   2.969  0.7537  1.2210  1.4178
 3262SOL     OW20254   9.447   5.656   4.765 -0.1332 -0.2559 -0.3545
 3262SOL    HW120255   9.357   5.614   4.771  0.8182 -2.2600  0.1898
 3262SOL    HW220256   9.506   5.619   4.836  1.1508  1.0168 -0.7310
 3263SOL     OW20257   9.680   4.865   1.819 -0.3031  0.6245  0.0710
 3263SOL    HW120258   9.688   4.881   1.918  0.4880  0.9443 -0.0486
 3263SOL    HW220259   9.641   4.945   1.775 -1.8475  0.0145  0.2929
 3264SOL     OW20260   5.764   0.470   1.849 -0.1181 -0.6563 -0.2513
 3264SOL    HW120261   5.805   0.528   1.919 -2.2120  0.1459  0.3386
 3264SOL    HW220262   5.728   0.527   1.775 -0.7539 -1.3127 -0.4522
 3265SOL     OW20263   2.417   1.307   1.756  0.0299 -0.0114 -0.6081
 3265SOL    HW120264   2.319   1.298   1.773  0.2433  0.2534  0.8633
 3265SOL    HW220265   2.451   1.223   1.714 -0.6353 -0.5144 -0.1562
 3266SOL     OW20266   8.487   9.001   2.987  0.0992  0.5497 -0.5635
 3266SOL    HW120267   8.510   8.961   3.075  0.4253  1.1641 -0.3687
 3266SOL    HW220268   8.427   8.939   2.937 -0.2201  0.2757  0.1580
 3267SOL     OW20269   2.392   6.503   2.955 -0.0468  0.2779  0.0937
 3267SOL    HW120270   2.465   6.447   2.916  1.6103  2.4064  0.0468
 3267SOL    HW220271   2.366   6.574   2.890 -1.5114  0.1211  0.4979
 3268SOL     OW20272   1.369   5.851   2.661 -0.8976 -0.3952  0.1224
 3268SOL    HW120273   1.379   5.896   2.750 -0.3347  0.4636 -0.3763
 3268SOL    HW220274   1.339   5.756   2.676 -0.3438 -0.4089  1.2543
 3269SOL     OW20275   0.967   2.432   4.289 -0.5545 -0.0175  0.3850
 3269SOL    HW120276   1.015   2.407   4.205 -0.3534  1.8607 -0.0804
 3269SOL    HW220277   0.923   2.351   4.328 -1.1350 -0.8161 -1.8411
 3270SOL     OW20278   3.126   9.786   1.673 -0.8541 -0.3077 -0.3195
 3270SOL    HW120279   3.214   9.821   1.704 -0.2372 -0.4975 -1.8370
 3270SOL    HW220280   3.121   9.688   1.691 -1.0799 -0.1610  0.4654
 3271SOL     OW20281   0.166   6.342   3.023 -0.8789 -0.6152 -0.1009
 3271SOL    HW120282   0.218   6.260   3.046  0.2391  0.0854 -0.0897
 3271SOL    HW220283   0.226   6.422   3.029 -1.9230  0.1878 -0.2333
 3272SOL     OW20284   5.164   7.643   2.250  0.1827  0.4561 -0.6954
 3272SOL    HW120285   5.199   7.672   2.339 -2.8991 -0.4187  0.8773
 3272SOL    HW220286   5.115   7.718   2.206  1.9301  0.9709 -1.8303
 3273SOL     OW20287   0.565   4.521   4.115 -0.5728 -1.0808 -0.0534
 3273SOL    HW120288   0.496   4.525   4.042 -2.0293 -2.3126  1.2241
 3273SOL    HW220289   0.606   4.430   4.117 -0.2047 -0.9028  0.3545
 3274SOL     OW20290   8.582   9.270   0.959 -0.1457  0.3618 -0.0698
 3274SOL    HW120291   8.573   9.217   1.043 -0.6492  0.1154 -0.2730
 3274SOL    HW220292   8.498   9.260   0.905  0.3371  0.1844 -0.7960
 3275SOL     OW20293   5.945   0.085   1.121  0.1636 -0.0589 -0.5961
 3275SOL    HW120294   5.931   0.111   1.216 -1.6801 -0.4210 -0.7523
 3275SOL    HW220295   5.874   0.127   1.064  1.1352  0.0056 -1.7932
 3276SOL     OW20296   0.536   3.068   0.800 -0.1076  0.1015  0.1998
 3276SOL    HW120297   0.503   3.014   0.877 -0.5936  0.0034 -0.0777
 3276SOL    HW220298   0.607   3.016   0.751 -0.7489 -0.3854 -0.2138
 3277SOL     OW20299   1.324   5.591   0.815 -0.2718  0.2009 -0.5340
 3277SOL    HW120300   1.392   5.633   0.874 -0.1607  0.9099 -1.1515
 3277SOL    HW220301   1.332   5.630   0.723  0.4160 -1.7931 -1.3505
 3278SOL     OW20302   0.867   4.899   1.406  0.3708 -0.5652  0.4689
 3278SOL    HW120303   0.797   4.844   1.451 -1.2703  1.2528  0.1690
 3278SOL    HW220304   0.893   4.857   1.319 -0.3930 -1.2041  0.5539
 3279SOL     OW20305   0.542   4.868   0.345  0.3448  0.5074 -0.5822
 3279SOL    HW120306   0.541   4.888   0.443  0.4449  0.1624 -0.5129
 3279SOL    HW220307   0.628   4.825   0.320 -0.4236 -1.1470 -0.4793
 3280SOL     OW20308   7.832   6.636   4.210  0.2629  0.3753 -0.2812
 3280SOL    HW120309   7.766   6.589   4.268  0.1124 -0.0891 -0.8209
 3280SOL    HW220310   7.825   6.735   4.225 -0.7387  0.3512 -0.5220
 3281SOL     OW20311   0.448   1.602   0.758 -0.2164 -0.0798 -0.0409
 3281SOL    HW120312   0.544   1.622   0.779  0.0428 -0.4123 -0.8806
 3281SOL    HW220313   0.391   1.681   0.781  0.1149 -0.2747  1.4701
 3282SOL     OW20314   0.500   0.350   4.721  0.1564 -0.1863  0.0738
 3282SOL    HW120315   0.456   0.329   4.809  0.3673  0.1919  0.2667
 3282SOL    HW220316   0.561   0.428   4.731 -0.2607  0.2305 -0.5442
 3283SOL     OW20317   2.625   2.161   4.694  0.1173  0.3229 -0.6325
 3283SOL    HW120318   2.549   2.158   4.759  0.3263  1.9405 -0.3142
 3283SOL    HW220319   2.704   2.115   4.733 -0.2856 -0.2154 -0.4409
 3284SOL     OW20320   2.859   2.066   2.652  0.4045  0.2211  0.4689
 3284SOL    HW120321   2.779   2.014   2.680  0.6517 -0.1221  0.5344
 3284SOL    HW220322   2.834   2.131   2.581 -0.0723  0.5791  0.9590
 3285SOL     OW20323   1.580   7.850   2.316 -0.0015 -0.1144 -1.0870
 3285SOL    HW120324   1.678   7.852   2.296 -0.0956  1.1120 -1.4915
 3285SOL    HW220325   1.561   7.906   2.396 -0.4918  0.5302 -1.6371
 3286SOL     OW20326   9.850   5.763   3.533  0.1993  0.7482  0.3413
 3286SOL    HW120327   9.849   5.665   3.553  1.1512  0.2901 -1.6683
 3286SOL    HW220328   9.775   5.808   3.581 -0.8636 -1.1406  0.4950
 3287SOL     OW20329   0.126   2.798   0.618  0.0586  0.2534 -0.1082
 3287SOL    HW120330   0.160   2.709   0.588 -0.8106 -0.0998 -0.0556
 3287SOL    HW220331   0.179   2.870   0.574  1.8192 -0.2891  1.0741
 3288SOL     OW20332   9.096   5.920   3.643  0.6578 -0.0551 -0.0480
 3288SOL    HW120333   9.002   5.912   3.609 -0.1623  1.8303  1.7373
 3288SOL    HW220334   9.101   5.989   3.714  3.5430  0.3059 -0.5233
 3289SOL     OW20335   4.476   9.938   3.971 -0.2790  0.1135  0.1411
 3289SOL    HW120336   4.517  10.015   3.923 -0.3098 -1.1669 -2.0017
 3289SOL    HW220337   4.420   9.971   4.047  0.5532  2.1257 -0.1048
 3290SOL     OW20338   3.665   3.725   1.927 -0.3846  0.1104  0.3270
 3290SOL    HW120339   3.714   3.780   1.860  1.0665  1.2392  2.2484
 3290SOL    HW220340   3.623   3.785   1.995 -0.7368 -1.0471  1.1466
 3291SOL     OW20341   3.191   4.576   0.520  0.7452 -0.0289 -0.4574
 3291SOL    HW120342   3.133   4.650   0.555  1.6521  0.1774  0.6519
 3291SOL    HW220343   3.149   4.536   0.439 -0.9873  0.0595  0.3815
 3292SOL     OW20344   9.627   5.662   4.559  0.1513 -0.1615  0.0034
 3292SOL    HW120345   9.546   5.696   4.607 -0.1247  0.2205 -0.7164
 3292SOL    HW220346   9.600   5.624   4.470  0.6461 -0.9084  0.1669
 3293SOL     OW20347   3.974   1.630   0.399 -0.2688  0.0346 -0.3793
 3293SOL    HW120348   4.073   1.628   0.413 -0.1251  0.3932 -1.3389
 3293SOL    HW220349   3.940   1.723   0.408 -0.3219  0.1172 -1.3675
 3294SOL     OW20350   1.217   7.924   0.590  0.2091 -0.2842 -0.5535
 3294SOL    HW120351   1.192   7.829   0.567 -2.7929  0.1631  0.6741
 3294SOL    HW220352   1.169   7.952   0.673  0.7725  2.4539 -1.1141
 3295SOL     OW20353   6.564   0.431   4.121  0.0625  0.3907  0.0648
 3295SOL    HW120354   6.505   0.424   4.041 -0.7460 -0.4349  0.7091
 3295SOL    HW220355   6.658   0.446   4.093 -0.4679  1.8208 -0.9767
 3296SOL     OW20356   3.646   1.795   0.352 -0.2913  0.9125 -0.6233
 3296SOL    HW120357   3.584   1.830   0.423  1.2862 -2.0413  2.3457
 3296SOL    HW220358   3.736   1.837   0.363 -0.1788  0.8185 -1.1875
 3297SOL     OW20359   7.569   6.829   1.774  0.0541 -0.2332 -0.8171
 3297SOL    HW120360   7.512   6.900   1.732 -1.1299 -0.2923  0.6405
 3297SOL    HW220361   7.653   6.817   1.720 -0.3039  1.3880 -1.7699
 3298SOL     OW20362   0.517   3.724   0.823 -0.3972  0.4321  0.0887
 3298SOL    HW120363   0.550   3.766   0.908  0.4564 -0.4180  0.1929
 3298SOL    HW220364   0.435   3.670   0.842 -0.4803  0.6268  0.2828
 3299SOL     OW20365   4.347   8.617   3.424 -0.2678 -0.0230  0.1150
 3299SOL    HW120366   4.357   8.716   3.414 -1.4718  0.0366 -0.5481
 3299SOL    HW220367   4.282   8.582   3.357 -0.7406 -1.1028  1.1008
 3300SOL     OW20368   6.591   0.183   3.296 -0.0237 -0.5649 -0.2995
 3300SOL    HW120369   6.668   0.245   3.303 -0.5498 -0.1699  2.0824
 3300SOL    HW220370   6.579   0.133   3.382 -3.1944  0.3068 -0.1658
 3301SOL     OW20371   4.587   1.128   3.405 -0.3177  0.5190 -0.0047
 3301SOL    HW120372   4.562   1.171   3.317  2.1804 -0.1950 -1.0952
 3301SOL    HW220373   4.623   1.198   3.467 -0.4663  0.7438 -0.1699
 3302SOL     OW20374   8.654   8.281   2.899  0.0274  0.2190  0.6810
 3302SOL    HW120375   8.628   8.347   2.969 -0.0521  1.1736 -0.2348
 3302SOL    HW220376   8.740   8.309   2.857 -0.8755  0.7185 -0.9144
 3303SOL     OW20377   1.487   8.199   0.395  0.2433 -0.1540 -0.0632
 3303SOL    HW120378   1.478   8.298   0.411 -0.7893 -0.2000 -0.2928
 3303SOL    HW220379   1.544   8.183   0.315  0.0337  0.2829 -0.3054
 3304SOL     OW20380   1.688   6.144   3.027 -0.4693 -0.0856  0.0960
 3304SOL    HW120381   1.609   6.082   3.021 -0.9816  0.7934 -2.5928
 3304SOL    HW220382   1.684   6.211   2.954  3.1412 -0.4301 -0.5282
 3305SOL     OW20383   7.488   8.998   3.247 -0.2019 -0.1637  0.3858
 3305SOL    HW120384   7.426   9.011   3.325 -0.4511 -3.1106  0.7557
 3305SOL    HW220385   7.484   8.902   3.218  1.5399  0.4166 -1.8743
 3306SOL     OW20386   6.353   7.300   2.841  0.0553 -0.3013  0.0202
 3306SOL    HW120387   6.297   7.220   2.861  0.7552 -1.1561 -1.3617
 3306SOL    HW220388   6.295   7.374   2.807 -0.8599  0.4645  3.0851
 3307SOL     OW20389   8.960   5.893   1.418  0.4092  0.7362  0.6073
 3307SOL    HW120390   8.872   5.851   1.399 -0.9134  3.3033  0.9002
 3307SOL    HW220391   9.033   5.825   1.407 -1.6011 -1.4387  0.5318
 3308SOL     OW20392   4.097   3.487   1.512 -0.3630 -0.3266  0.6921
 3308SOL    HW120393   4.116   3.443   1.424 -0.6310  0.0499  0.4423
 3308SOL    HW220394   4.180   3.488   1.567 -0.3661 -1.1822  0.7230
 3309SOL     OW20395   0.800   1.057   3.581 -0.3635 -0.4463  0.2193
 3309SOL    HW120396   0.833   0.992   3.512  1.1185 -0.2767  0.7522
 3309SOL    HW220397   0.730   1.013   3.637 -2.5851 -0.1462 -2.2615
 3310SOL     OW20398   8.795   8.304   2.547 -0.2151 -0.2221 -0.2870
 3310SOL    HW120399   8.814   8.367   2.623 -0.5828  2.0456 -2.0000
 3310SOL    HW220400   8.697   8.282   2.546  0.0975 -1.7152  0.9655
 3311SOL     OW20401   1.746   6.549   3.555  0.3444 -0.1151 -0.1260
 3311SOL    HW120402   1.716   6.579   3.645  0.3919  0.0204 -0.1564
 3311SOL    HW220403   1.818   6.481   3.565  2.2585  1.8721 -0.1039
 3312SOL     OW20404   2.701   0.214   0.717  0.4104  0.0969  0.2593
 3312SOL    HW120405   2.683   0.134   0.774 -0.1241 -0.7037 -1.0201
 3312SOL    HW220406   2.691   0.297   0.773 -0.8437 -0.6339  1.1524
 3313SOL     OW20407   2.980   5.606   0.653 -0.0503 -0.2567 -0.1333
 3313SOL    HW120408   2.900   5.566   0.699 -0.1797  0.9570  0.7368
 3313SOL    HW220409   2.950   5.658   0.574 -0.0182 -0.6981 -0.4360
 3314SOL     OW20410   9.329   9.725   0.572 -0.5066 -0.0974 -0.4691
 3314SOL    HW120411   9.410   9.678   0.538  0.3865 -0.7154  2.3436
 3314SOL    HW220412   9.348   9.822   0.582  0.3572 -0.4171  1.3330
 3315SOL     OW20413   2.640   6.322   4.107  1.0973 -0.4308  0.3143
 3315SOL    HW120414   2.705   6.306   4.181  1.2585 -1.4273 -0.0358
 3315SOL    HW220415   2.561   6.261   4.119 -0.3677  1.6028  1.4214
 3316SOL     OW20416   5.233   0.543   1.909  0.1170 -0.4631 -0.1731
 3316SOL    HW120417   5.279   0.495   1.835 -0.0055  1.7187 -1.7099
 3316SOL    HW220418   5.301   0.590   1.966  0.0223  0.5065 -0.8353
 3317SOL     OW20419   2.045   8.220   1.098  0.6975 -0.2697  0.2088
 3317SOL    HW120420   2.044   8.124   1.127 -1.0961  0.5138  2.9973
 3317SOL    HW220421   2.015   8.227   1.003  0.7408 -2.4513  0.0062
 3318SOL     OW20422   6.132   8.626   3.736  0.0616  0.3260 -0.1148
 3318SOL    HW120423   6.131   8.726   3.750 -0.4367  0.4220 -0.8149
 3318SOL    HW220424   6.213   8.601   3.682  1.0894  0.1495  1.4640
 3319SOL     OW20425   3.024   5.052   2.001 -0.1264  0.8990  0.5937
 3319SOL    HW120426   3.048   5.138   1.955 -1.6718  0.0989 -1.8255
 3319SOL    HW220427   2.933   5.060   2.040  0.5812  1.0531  2.2503
 3320SOL     OW20428   8.750   0.252   0.880 -0.2318 -0.4577  0.9723
 3320SOL    HW120429   8.770   0.346   0.851  1.8933 -2.2801 -4.0550
 3320SOL    HW220430   8.660   0.225   0.845  0.1637 -1.0223  0.3800
 3321SOL     OW20431   9.595   8.985   0.608  0.4967 -0.2091 -0.3360
 3321SOL    HW120432   9.497   8.989   0.585  0.0744  1.0446  1.5748
 3321SOL    HW220433   9.629   8.893   0.591 -0.9792 -0.6331 -1.1599
 3322SOL     OW20434   3.371   4.396   4.058 -0.1968  0.0195  0.1829
 3322SOL    HW120435   3.327   4.449   4.132  1.7609  1.4766  0.3331
 3322SOL    HW220436   3.459   4.362   4.090  0.9085  1.1254 -1.6752
 3323SOL     OW20437   2.430   9.830   4.025 -0.1335  0.3965  0.0608
 3323SOL    HW120438   2.467   9.749   4.072  3.3640  1.4413 -0.6963
 3323SOL    HW220439   2.384   9.802   3.941  1.0971 -0.8266 -0.2266
 3324SOL     OW20440   5.006   9.985   4.441  1.1140  0.3854 -0.2361
 3324SOL    HW120441   4.916   9.950   4.466  0.9745  0.2630 -0.9090
 3324SOL    HW220442   5.002  10.084   4.429  1.5822  0.6903  1.9991
 3325SOL     OW20443   5.013   7.014   3.169  0.3045 -0.9044 -0.9634
 3325SOL    HW120444   5.053   6.977   3.086 -0.3578 -0.8591 -1.3053
 3325SOL    HW220445   5.086   7.040   3.233  0.7939 -1.5860 -1.2427
 3326SOL     OW20446   4.225   1.431   2.081  0.5136  0.0562 -0.2782
 3326SOL    HW120447   4.308   1.479   2.110  0.3302  0.6296 -0.6886
 3326SOL    HW220448   4.250   1.346   2.036  0.8559 -0.0470  0.0965
 3327SOL     OW20449   1.146   9.778   1.000 -0.4970  0.5675  0.3546
 3327SOL    HW120450   1.177   9.712   1.068  0.5272 -0.0822 -0.7136
 3327SOL    HW220451   1.060   9.819   1.029 -0.2432  0.0486  1.8621
 3328SOL     OW20452   0.983   9.604   3.339  1.3015 -0.0632  0.1379
 3328SOL    HW120453   0.988   9.698   3.305 -0.6933  0.1775  0.4623
 3328SOL    HW220454   1.006   9.540   3.266  1.9989  0.6387 -0.2662
 3329SOL     OW20455   0.861   5.897   4.601 -0.4942  0.1148 -0.1439
 3329SOL    HW120456   0.785   5.960   4.581  0.4377  1.7041  1.2133
 3329SOL    HW220457   0.829   5.825   4.661 -0.9175  0.8597  0.5406
 3330SOL     OW20458   2.820   4.582   3.066  1.3050 -0.1497  0.1049
 3330SOL    HW120459   2.748   4.621   3.007  1.0643 -1.4646 -0.4751
 3330SOL    HW220460   2.895   4.648   3.073  0.8012  0.5324 -0.6753
 3331SOL     OW20461   0.417   5.660   4.535 -0.1007  0.5581 -0.3645
 3331SOL    HW120462   0.460   5.646   4.446 -0.9323  0.2424 -0.7166
 3331SOL    HW220463   0.426   5.756   4.561  2.5555  0.1411  0.4739
 3332SOL     OW20464   0.221   5.537   3.695  0.0525 -0.2739 -0.2319
 3332SOL    HW120465   0.138   5.565   3.741 -0.0831 -3.6660  1.7966
 3332SOL    HW220466   0.287   5.503   3.762  2.0114 -0.2481 -2.0582
 3333SOL     OW20467   0.587   4.201   2.597 -0.5255 -0.1890 -0.5292
 3333SOL    HW120468   0.510   4.226   2.538 -0.3195 -0.0865 -0.7569
 3333SOL    HW220469   0.553   4.168   2.684 -0.8216  0.2338 -0.4816
 3334SOL     OW20470   0.799   4.985   3.707  0.1293 -0.0527  0.0557
 3334SOL    HW120471   0.738   4.931   3.764 -1.5679  0.0566 -1.5943
 3334SOL    HW220472   0.745   5.037   3.640  1.9614  0.8687 -0.7561
 3335SOL     OW20473   4.894   1.684   1.902 -0.3842 -0.2431  0.8362
 3335SOL    HW120474   4.898   1.585   1.886  0.0623 -0.4314  2.1099
 3335SOL    HW220475   4.946   1.731   1.831 -2.3436 -0.7719 -1.0204
 3336SOL     OW20476   3.240   9.782   4.129  0.2564  0.3648 -0.3543
 3336SOL    HW120477   3.327   9.804   4.085  1.8197 -4.3999  0.0707
 3336SOL    HW220478   3.170   9.765   4.059  0.8179 -0.0005 -0.8312
 3337SOL     OW20479   0.913   3.562   1.116  0.0311  0.7596  0.1956
 3337SOL    HW120480   0.870   3.621   1.184  0.5776  0.3893  0.8660
 3337SOL    HW220481   0.933   3.473   1.156  1.2159  0.8505 -0.1724
 3338SOL     OW20482   8.439   7.975   2.882  0.1807 -0.1782  0.3881
 3338SOL    HW120483   8.352   7.954   2.837 -0.5104 -0.3076  1.7748
 3338SOL    HW220484   8.512   7.974   2.814 -0.9974  0.5906 -0.9195
 3339SOL     OW20485   3.020   2.103   0.876  0.3195  0.3857  0.5862
 3339SOL    HW120486   3.116   2.114   0.903  0.3886  1.6919 -0.1820
 3339SOL    HW220487   2.961   2.152   0.939  0.2380  0.5648  0.3715
 3340SOL     OW20488   7.673   9.932   4.023 -0.3842  0.5894 -0.3372
 3340SOL    HW120489   7.585   9.892   3.999 -0.7668  1.0232  0.3231
 3340SOL    HW220490   7.728   9.944   3.941 -1.0001  0.4533 -0.7713
 3341SOL     OW20491   0.230   4.488   1.384 -0.2376 -0.3255 -0.3655
 3341SOL    HW120492   0.165   4.563   1.396 -0.4151  0.0582 -3.3329
 3341SOL    HW220493   0.296   4.513   1.313 -1.6162 -3.8015 -2.9786
 3342SOL     OW20494   2.298   3.557   1.638 -0.1129  0.2138 -0.1898
 3342SOL    HW120495   2.285   3.577   1.735  0.0266 -0.3127 -0.0559
 3342SOL    HW220496   2.327   3.461   1.628 -0.6018  0.1232 -0.7832
 3343SOL     OW20497   1.419   0.550   0.217 -0.0215 -0.2345 -0.2843
 3343SOL    HW120498   1.373   0.574   0.302  1.1118 -1.1605  0.6203
 3343SOL    HW220499   1.451   0.455   0.223  0.3011 -0.2151 -1.6369
 3344SOL     OW20500   4.195   7.827   3.669 -0.9447 -0.5546  0.0880
 3344SOL    HW120501   4.128   7.895   3.641  0.6765  1.0179 -0.1076
 3344SOL    HW220502   4.255   7.866   3.740  1.0533 -1.1759 -1.2057
 3345SOL     OW20503   4.098   1.066   4.160  0.2572 -0.1564  1.0321
 3345SOL    HW120504   4.131   0.998   4.226  1.7995 -0.3500  0.1026
 3345SOL    HW220505   4.095   1.024   4.069 -2.0120  0.0595  0.9910
 3346SOL     OW20506   8.551   5.267   1.840  0.1945 -0.1738  0.3166
 3346SOL    HW120507   8.510   5.278   1.749  0.0534 -2.0929  0.1327
 3346SOL    HW220508   8.483   5.229   1.902  0.7700 -0.3931  0.8104
 3347SOL     OW20509   4.381   1.836   1.999  0.1480 -0.1976  0.0459
 3347SOL    HW120510   4.315   1.805   1.930  1.0598  0.1484 -0.9982
 3347SOL    HW220511   4.465   1.781   1.991 -0.0173 -0.6429  1.3733
 3348SOL     OW20512   3.172   3.234   4.053  0.5173  0.0278  0.0693
 3348SOL    HW120513   3.239   3.307   4.053  0.3461  0.1958  0.9525
 3348SOL    HW220514   3.090   3.263   4.003  1.5217 -0.5885 -1.9761
 3349SOL     OW20515   2.977   2.842   3.395  0.4271 -0.5575  0.2643
 3349SOL    HW120516   2.913   2.919   3.394  1.6614  0.4684  0.2882
 3349SOL    HW220517   2.925   2.757   3.408 -0.7364  0.4398  2.4876
 3350SOL     OW20518   8.978   7.427   1.405  0.5180 -0.1664  0.0936
 3350SOL    HW120519   8.898   7.483   1.426  0.8114  0.1155  0.4465
 3350SOL    HW220520   9.045   7.481   1.355 -0.2600 -0.8874 -1.7817
 3351SOL     OW20521   4.414   3.739   1.564 -0.5799  0.3903  0.1174
 3351SOL    HW120522   4.379   3.649   1.590 -1.6049  0.4368 -1.0472
 3351SOL    HW220523   4.343   3.807   1.581 -1.2200  0.4546 -2.5479
 3352SOL     OW20524   3.051   4.959   1.083  0.3194  0.3488  0.3263
 3352SOL    HW120525   2.966   4.985   1.036 -1.4368 -2.4700  1.7984
 3352SOL    HW220526   3.127   4.959   1.017 -1.9141 -2.6830 -2.4109
 3353SOL     OW20527   6.965   7.736   3.238  0.7601  0.4079 -0.1034
 3353SOL    HW120528   6.932   7.761   3.330 -2.5792  0.6431 -1.2977
 3353SOL    HW220529   6.945   7.639   3.221 -1.4377  1.1133 -1.6990
 3354SOL     OW20530   1.521   6.432   4.621  0.0662 -0.0428  0.3850
 3354SOL    HW120531   1.572   6.518   4.629  0.1011  0.0652 -0.8779
 3354SOL    HW220532   1.423   6.451   4.622  0.0530  0.3651 -3.0075
 3355SOL     OW20533   1.359   9.881   0.804 -0.0731  0.0802 -0.2621
 3355SOL    HW120534   1.453   9.898   0.833 -0.3216  0.2340  0.4520
 3355SOL    HW220535   1.303   9.860   0.884 -0.0991 -2.5499 -0.9301
 3356SOL     OW20536   1.799   1.276   1.357 -0.5814  0.3313 -0.0409
 3356SOL    HW120537   1.733   1.310   1.423 -0.8686 -0.1807 -0.0591
 3356SOL    HW220538   1.816   1.179   1.373 -1.4570 -0.0632 -1.3831
 3357SOL     OW20539   0.003   9.134   2.379 -0.3505 -0.1445  0.3959
 3357SOL    HW120540   0.082   9.185   2.413  1.2931 -1.8315 -0.8210
 3357SOL    HW220541  -0.049   9.193   2.317  0.4749  0.6756  0.4583
 3358SOL     OW20542   9.407   7.026   2.624  0.3467  0.1596 -0.8786
 3358SOL    HW120543   9.461   7.053   2.545  1.1220 -0.1495 -0.4553
 3358SOL    HW220544   9.393   6.927   2.624  0.6120  0.1203 -0.4667
 3359SOL     OW20545   0.475   6.973   1.555  0.1622  0.4848 -0.5581
 3359SOL    HW120546   0.559   6.925   1.529  0.3448  0.3406  0.2687
 3359SOL    HW220547   0.408   6.968   1.481  0.3170 -0.7357 -0.6125
 3360SOL     OW20548   8.104   8.331   1.593  0.1110  0.1283  0.7430
 3360SOL    HW120549   8.116   8.362   1.499  0.1436  0.3153  0.8088
 3360SOL    HW220550   8.139   8.400   1.656  2.2869 -1.0208  0.8414
 3361SOL     OW20551   1.233   1.907   0.903 -0.3681 -0.2587  0.2873
 3361SOL    HW120552   1.254   1.834   0.968  0.8269 -1.5305 -1.4590
 3361SOL    HW220553   1.318   1.953   0.877 -0.9948  1.0946  0.5842
 3362SOL     OW20554   9.468   8.059   1.997  0.5522 -0.5106 -0.4259
 3362SOL    HW120555   9.514   8.130   2.050 -0.3895 -1.2128  1.3719
 3362SOL    HW220556   9.371   8.059   2.018  0.7516 -3.2641  0.7166
 3363SOL     OW20557   8.480   0.240   2.499 -0.2253 -0.2024 -0.0517
 3363SOL    HW120558   8.444   0.202   2.413 -2.9581 -1.0580  1.4356
 3363SOL    HW220559   8.405   0.260   2.561  1.8355 -1.4848  2.9467
 3364SOL     OW20560   2.938   6.780   3.406 -0.1857 -0.6160  0.2888
 3364SOL    HW120561   2.853   6.823   3.374  0.3332 -1.0372 -1.7618
 3364SOL    HW220562   2.935   6.682   3.388  1.4642 -0.3613 -1.5267
 3365SOL     OW20563   0.712   9.737   1.615 -0.1467  0.2958  0.1687
 3365SOL    HW120564   0.805   9.716   1.584 -0.0504 -0.6011  1.0746
 3365SOL    HW220565   0.647   9.713   1.543 -0.0071 -2.7311  1.0201
 3366SOL     OW20566   3.372   4.292   3.641  0.7264  0.0611 -0.4541
 3366SOL    HW120567   3.340   4.199   3.621  1.6345 -0.2730 -0.3856
 3366SOL    HW220568   3.469   4.289   3.665  0.1163  0.6671  2.2303
 3367SOL     OW20569   4.642   7.401   2.826 -0.1118 -0.0126 -0.3683
 3367SOL    HW120570   4.569   7.444   2.880 -0.7049 -2.1383  0.5841
 3367SOL    HW220571   4.711   7.363   2.888  0.6041 -0.0845 -1.2076
 3368SOL     OW20572   1.139   2.570   3.366  0.1532  0.1475 -0.2695
 3368SOL    HW120573   1.214   2.636   3.365  0.9374 -0.7268  0.3863
 3368SOL    HW220574   1.175   2.478   3.353 -0.9311 -0.1742 -1.0780
 3369SOL     OW20575   4.128   8.148   4.452  0.1737 -0.0811  0.5846
 3369SOL    HW120576   4.172   8.228   4.412 -1.6774 -0.3651 -2.2002
 3369SOL    HW220577   4.132   8.153   4.552  1.0114  2.9329  0.4403
 3370SOL     OW20578   8.410   7.473   1.765 -0.1915 -0.0261  0.3362
 3370SOL    HW120579   8.444   7.562   1.796  0.4381 -0.2846  0.3874
 3370SOL    HW220580   8.384   7.479   1.669  2.0003 -0.3759 -0.3066
 3371SOL     OW20581   0.898   4.227   0.067 -0.2138  0.3358  0.4680
 3371SOL    HW120582   0.894   4.204  -0.030  1.4557  1.3890  0.1391
 3371SOL    HW220583   0.945   4.314   0.079  0.3160 -0.1838  2.2933
 3372SOL     OW20584   8.354   8.452   2.683 -0.0186 -0.1242  0.0112
 3372SOL    HW120585   8.294   8.447   2.603  1.8090 -0.1425 -1.3722
 3372SOL    HW220586   8.297   8.462   2.766 -1.9808 -1.6571 -1.0954
 3373SOL     OW20587   2.904   0.498   1.042  0.4002 -0.0513 -0.0260
 3373SOL    HW120588   2.993   0.538   1.022  1.9409 -4.4725 -2.6008
 3373SOL    HW220589   2.911   0.435   1.119  0.1511 -2.3817 -1.8547
 3374SOL     OW20590   2.508   7.743   2.040  0.9324 -0.5598  0.3976
 3374SOL    HW120591   2.420   7.735   1.993  0.7603  0.8296  0.4594
 3374SOL    HW220592   2.498   7.716   2.136  0.5405 -0.2721  0.4377
 3375SOL     OW20593   4.427   7.820   0.316  0.1581  0.3474  0.0298
 3375SOL    HW120594   4.477   7.808   0.231  0.1298  0.3725  0.0093
 3375SOL    HW220595   4.328   7.816   0.298  0.1306  1.5987 -0.1276
 3376SOL     OW20596   0.952   8.931   2.552  0.1484 -0.1147 -0.2644
 3376SOL    HW120597   0.863   8.892   2.531 -0.2412  0.2891  0.5851
 3376SOL    HW220598   1.011   8.927   2.472  0.0965 -2.3763 -0.2239
 3377SOL     OW20599   2.989   6.715   0.855 -0.3904 -0.0562 -0.0348
 3377SOL    HW120600   2.934   6.686   0.777  2.7290 -2.4550 -1.4693
 3377SOL    HW220601   2.981   6.649   0.929 -0.6617  0.4270  0.3753
 3378SOL     OW20602   0.634   4.706   2.768  0.4146 -0.4762 -0.2276
 3378SOL    HW120603   0.698   4.677   2.839  0.9433 -0.5636 -0.7383
 3378SOL    HW220604   0.671   4.684   2.678  0.2139  0.5879 -0.5748
 3379SOL     OW20605   0.952   1.752   4.496 -0.0839  0.0042  0.1775
 3379SOL    HW120606   0.853   1.754   4.481  0.0952 -1.0884 -1.1934
 3379SOL    HW220607   0.970   1.747   4.595 -1.3916  0.1606  0.4379
 3380SOL     OW20608   2.290   3.656   1.924 -0.4215 -0.1290 -0.7277
 3380SOL    HW120609   2.281   3.729   1.992 -0.1944 -0.2076 -0.6165
 3380SOL    HW220610   2.341   3.580   1.962 -0.3061 -0.1803 -0.9800
 3381SOL     OW20611   8.407   9.349   0.124  0.5354  0.4128 -0.2107
 3381SOL    HW120612   8.497   9.384   0.151  0.8352 -0.2421 -0.3461
 3381SOL    HW220613   8.351   9.335   0.206  0.4909  0.9939 -0.1399
 3382SOL     OW20614   1.445   2.018   1.252 -0.5768 -0.0702  0.1877
 3382SOL    HW120615   1.387   2.091   1.217 -1.4559 -0.6522  0.3862
 3382SOL    HW220616   1.518   1.998   1.187  0.0403  1.3928  0.4187
 3383SOL     OW20617   9.318   9.898   2.104  0.0353 -0.0015  0.7544
 3383SOL    HW120618   9.403   9.862   2.064  0.5001  1.7953  0.0855
 3383SOL    HW220619   9.282   9.832   2.170  2.4567 -0.3587  1.7616
 3384SOL     OW20620   7.181   7.891   3.518 -0.2706  0.4339 -0.0269
 3384SOL    HW120621   7.208   7.801   3.484  2.5706  0.6995  1.4158
 3384SOL    HW220622   7.178   7.956   3.443  1.7025  0.0446 -0.4565
 3385SOL     OW20623   1.988   7.757   2.597  0.2044 -0.4614  0.0755
 3385SOL    HW120624   2.005   7.854   2.585 -1.2736  0.1688  2.6130
 3385SOL    HW220625   2.020   7.707   2.517  0.6243  2.1454 -1.4398
 3386SOL     OW20626   8.185   7.700   0.891 -0.2744  0.0544  0.3722
 3386SOL    HW120627   8.256   7.756   0.933  0.2690  1.4305 -2.2867
 3386SOL    HW220628   8.174   7.726   0.795 -1.7013 -2.7554 -0.2836
 3387SOL     OW20629   0.967   5.555   1.591  0.2051  0.7329  0.0157
 3387SOL    HW120630   0.962   5.655   1.595 -1.5417  0.6774 -0.2974
 3387SOL    HW220631   0.978   5.525   1.496 -2.3926  0.5524 -0.2765
 3388SOL     OW20632   2.375   5.331   0.148 -0.8549 -0.1354  0.1987
 3388SOL    HW120633   2.350   5.351   0.053 -0.2810  0.6115  0.1988
 3388SOL    HW220634   2.469   5.360   0.165 -0.8221 -0.6333  0.8879
 3389SOL     OW20635   1.702   8.365   3.297  0.5893  0.3389 -0.4734
 3389SOL    HW120636   1.704   8.281   3.351  2.2696  0.0817 -0.8957
 3389SOL    HW220637   1.733   8.345   3.204  2.7946  1.7592 -0.0728
 3390SOL     OW20638   1.502   1.602   0.881 -0.4546  0.0137 -0.0282
 3390SOL    HW120639   1.546   1.512   0.877  3.8013  2.0252 -0.7501
 3390SOL    HW220640   1.483   1.634   0.788  2.5245  1.8564 -0.0820
 3391SOL     OW20641   2.439   4.821   3.144  0.4787 -0.1295  0.0500
 3391SOL    HW120642   2.456   4.759   3.220 -0.0469 -0.2868  0.0447
 3391SOL    HW220643   2.451   4.915   3.173  3.0071 -0.2732 -0.3767
 3392SOL     OW20644   3.251   7.063   0.854  0.3252 -0.0719  0.2971
 3392SOL    HW120645   3.253   7.162   0.843  1.6169 -0.3111 -1.9493
 3392SOL    HW220646   3.324   7.034   0.916  1.1646  0.2495 -0.5219
 3393SOL     OW20647   0.561   7.900   3.478  0.0807 -0.4709 -0.3363
 3393SOL    HW120648   0.648   7.927   3.520 -0.2612  1.3507 -0.7315
 3393SOL    HW220649   0.489   7.903   3.548 -0.1739  0.8891 -0.6292
 3394SOL     OW20650   7.778   7.141   2.997 -0.2191 -0.0034 -0.1969
 3394SOL    HW120651   7.679   7.127   2.989 -0.2619  0.2253 -0.0820
 3394SOL    HW220652   7.797   7.202   3.074 -0.0302  0.4633 -0.6121
 3395SOL     OW20653   2.418   4.614   0.819 -0.2927  0.2044  0.2383
 3395SOL    HW120654   2.395   4.516   0.818  0.7727 -0.0560  0.2948
 3395SOL    HW220655   2.439   4.642   0.913  1.5482 -0.0512 -0.0607
 3396SOL     OW20656   3.408   7.362   0.569 -0.1857 -0.0315 -0.0426
 3396SOL    HW120657   3.402   7.369   0.669 -0.6584 -0.7971 -0.0083
 3396SOL    HW220658   3.490   7.311   0.544 -1.2062 -1.7740  0.0563
 3397SOL     OW20659   6.377   7.951   2.174  0.8027  0.0403  0.1900
 3397SOL    HW120660   6.360   7.939   2.272  1.4022  0.3365  0.3264
 3397SOL    HW220661   6.421   8.039   2.157  2.3835 -0.7979 -0.1470
 3398SOL     OW20662   0.524   7.080   0.366 -0.8404 -0.2171  0.3549
 3398SOL    HW120663   0.622   7.083   0.385 -0.9945 -1.5324  1.4404
 3398SOL    HW220664   0.507   7.102   0.270  0.6189 -1.1981 -0.1331
 3399SOL     OW20665   4.160   9.667   1.204 -0.0475  0.4051  0.2870
 3399SOL    HW120666   4.220   9.587   1.206 -0.2242  0.2883  2.1301
 3399SOL    HW220667   4.187   9.730   1.277 -1.5475  0.8265  0.4907
 3400SOL     OW20668   0.850   7.499   0.251  0.6529  0.3327  0.7634
 3400SOL    HW120669   0.802   7.538   0.330 -2.3272 -2.0640  0.2155
 3400SOL    HW220670   0.792   7.508   0.170  1.2733 -2.2998  0.0025
 3401SOL     OW20671   8.352   6.691   4.523  0.4058 -0.6168 -0.8140
 3401SOL    HW120672   8.410   6.742   4.587 -0.9434  1.2340 -1.0301
 3401SOL    HW220673   8.382   6.709   4.429 -0.1349 -0.1440 -0.8954
 3402SOL     OW20674   2.919   4.376   4.748  0.5958 -0.0561  0.0656
 3402SOL    HW120675   2.847   4.381   4.679 -1.4890  2.1519  2.2709
 3402SOL    HW220676   2.984   4.451   4.733 -1.1898  1.9341  1.7971
 3403SOL     OW20677   1.703   9.059   4.642 -0.6709 -0.2438  0.1459
 3403SOL    HW120678   1.696   8.969   4.598 -0.1848 -0.5937  0.7768
 3403SOL    HW220679   1.772   9.056   4.714 -0.6117  0.6537  0.1369
 3404SOL     OW20680   3.461   3.727   0.911  0.5736  0.2800  0.2530
 3404SOL    HW120681   3.512   3.724   0.996 -1.0790  1.2907  1.3191
 3404SOL    HW220682   3.399   3.649   0.906 -0.0373  0.7486  0.4462
 3405SOL     OW20683   9.868   5.833   4.163 -0.2065  0.4599 -0.2498
 3405SOL    HW120684   9.774   5.809   4.186  0.4179 -0.0719  1.8017
 3405SOL    HW220685   9.881   5.932   4.176 -0.6648  0.6604 -1.2477
 3406SOL     OW20686   4.207   2.462   1.282  0.7218  0.3507  0.9162
 3406SOL    HW120687   4.194   2.552   1.241  1.7505 -0.2063 -0.6741
 3406SOL    HW220688   4.302   2.452   1.312  0.6951 -0.3324  0.7783
 3407SOL     OW20689   4.126   8.336   0.168  0.2543  0.0713 -0.2302
 3407SOL    HW120690   4.129   8.370   0.262 -0.5975 -1.8904  0.5347
 3407SOL    HW220691   4.198   8.380   0.115 -0.9936  3.2896  0.6095
 3408SOL     OW20692   2.756   9.274   0.034 -0.1574  0.1819  0.0488
 3408SOL    HW120693   2.660   9.256   0.055  0.2145  0.6109  2.2330
 3408SOL    HW220694   2.762   9.356  -0.024 -1.1001  0.1696 -0.0806
 3409SOL     OW20695   9.958   7.698   3.899  0.7191 -0.0032 -0.3126
 3409SOL    HW120696  10.014   7.622   3.866  0.2986 -0.3555 -0.2068
 3409SOL    HW220697   9.864   7.687   3.868  0.8043  0.8367 -0.8777
 3410SOL     OW20698   4.175   7.455   2.724  0.0331 -0.4724 -0.5780
 3410SOL    HW120699   4.143   7.509   2.802  0.4665 -0.2284 -0.5672
 3410SOL    HW220700   4.273   7.471   2.710  0.4926 -2.3944  0.3377
 3411SOL     OW20701   4.819   0.396   2.358 -0.4556 -0.4459  0.1621
 3411SOL    HW120702   4.737   0.345   2.385 -0.7997  0.7280  1.3422
 3411SOL    HW220703   4.794   0.491   2.337  0.2958 -0.5710 -1.3724
 3412SOL     OW20704   0.831   6.768   2.372  0.2892 -0.1194  0.1950
 3412SOL    HW120705   0.904   6.727   2.427  0.5258 -0.3457 -0.2861
 3412SOL    HW220706   0.787   6.697   2.318  0.3928  0.1875 -0.2947
 3413SOL     OW20707   8.529   7.876   0.230  0.4095  0.1251 -0.3202
 3413SOL    HW120708   8.492   7.793   0.189 -0.1528  0.8877 -1.3705
 3413SOL    HW220709   8.609   7.906   0.178  0.8366  0.0383  0.2813
 3414SOL     OW20710   7.088   9.895   2.485 -0.1258  0.0120  0.0671
 3414SOL    HW120711   7.095   9.796   2.491 -0.8894  0.0479  1.6239
 3414SOL    HW220712   7.041   9.920   2.401  1.7263 -0.8641 -1.2720
 3415SOL     OW20713   2.999   5.692   3.400  0.3801 -0.6533 -0.2228
 3415SOL    HW120714   3.088   5.706   3.356 -0.3118 -0.5783 -1.6252
 3415SOL    HW220715   2.982   5.765   3.466  0.9981 -0.1961 -0.5628
 3416SOL     OW20716   3.258   7.777   0.407 -0.0257  0.2201 -0.7321
 3416SOL    HW120717   3.233   7.732   0.322 -2.8177 -0.5629  0.4396
 3416SOL    HW220718   3.226   7.871   0.406 -1.7970 -0.3649  0.2136
 3417SOL     OW20719   8.157   6.392   0.769 -0.4275  0.4930  0.2075
 3417SOL    HW120720   8.135   6.391   0.867  1.0798 -2.9215  0.6095
 3417SOL    HW220721   8.139   6.301   0.731 -1.0889  1.8188 -2.7422
 3418SOL     OW20722   2.590   8.159   3.575  0.6755  0.2117 -0.2159
 3418SOL    HW120723   2.569   8.114   3.662 -0.1638  0.9908 -0.0122
 3418SOL    HW220724   2.529   8.237   3.562  0.9586  0.2415 -1.3988
 3419SOL     OW20725   4.834   1.776   0.926 -0.7307 -0.5098  0.0509
 3419SOL    HW120726   4.866   1.814   1.012 -1.3580 -0.9070  0.4673
 3419SOL    HW220727   4.832   1.847   0.856 -1.9322  0.2422  0.8249
 3420SOL     OW20728   6.460   9.760   1.774  0.0814 -0.0346 -0.1457
 3420SOL    HW120729   6.429   9.667   1.753  0.8813 -0.0574 -1.2741
 3420SOL    HW220730   6.384   9.824   1.764 -0.2873 -0.4669 -0.1135
 3421SOL     OW20731   6.357   0.357   4.275 -0.5758  0.3537  0.4028
 3421SOL    HW120732   6.316   0.423   4.337 -0.0197  1.8189 -0.7614
 3421SOL    HW220733   6.432   0.400   4.225  0.9846 -1.6699  0.9205
 3422SOL     OW20734   0.958   5.775   0.657  0.5964 -0.2837 -0.0096
 3422SOL    HW120735   0.970   5.874   0.658  2.9018 -0.5290 -0.1103
 3422SOL    HW220736   0.977   5.740   0.566  1.6788 -0.9899  0.4640
 3423SOL     OW20737   9.144   7.722   1.479  0.3311 -0.1847 -0.6266
 3423SOL    HW120738   9.165   7.667   1.397  0.9414 -1.2219  0.2127
 3423SOL    HW220739   9.194   7.685   1.557 -1.5976 -0.2601  0.5913
 3424SOL     OW20740   9.894   7.407   2.445 -0.3748  0.3263 -0.3190
 3424SOL    HW120741   9.971   7.390   2.507  0.0589 -1.5678 -1.3567
 3424SOL    HW220742   9.919   7.380   2.352 -2.1733  0.0425 -0.7320
 3425SOL     OW20743   3.794   0.550   3.531  0.7211  0.9962  0.4061
 3425SOL    HW120744   3.871   0.600   3.570  0.8213  0.0421  1.4743
 3425SOL    HW220745   3.728   0.529   3.604 -0.0421  0.8826 -0.3027
 3426SOL     OW20746   1.775   3.609   4.041  0.4357  0.4589 -0.8265
 3426SOL    HW120747   1.861   3.562   4.022  0.2065  0.7165 -2.5818
 3426SOL    HW220748   1.780   3.652   4.131  0.8668 -2.3931  0.5701
 3427SOL     OW20749   7.008   8.721   4.018 -0.5552 -0.2279 -0.0676
 3427SOL    HW120750   7.015   8.639   4.076  0.2089 -0.1587 -0.0679
 3427SOL    HW220751   6.962   8.793   4.069 -0.0435 -0.2257  0.3964
 3428SOL     OW20752   5.395   9.565   3.325  0.9231  0.2937  0.3983
 3428SOL    HW120753   5.331   9.584   3.251  0.5694  2.5875  1.2330
 3428SOL    HW220754   5.481   9.612   3.308  1.7286 -1.2150  0.2298
 3429SOL     OW20755   1.278   6.450   4.741  0.1760  0.6810 -0.1985
 3429SOL    HW120756   1.353   6.397   4.781 -1.3410 -1.2779  0.1198
 3429SOL    HW220757   1.251   6.522   4.805 -0.5696 -0.8596  1.2608
 3430SOL     OW20758   0.015   9.006   3.974 -0.1041 -0.4054 -0.2912
 3430SOL    HW120759   0.020   9.034   3.878  0.0459  0.1766 -0.1164
 3430SOL    HW220760   0.083   8.935   3.991 -0.0300 -0.4042 -0.5787
 3431SOL     OW20761   8.733   9.107   4.316  0.2903 -0.5074 -0.3595
 3431SOL    HW120762   8.820   9.153   4.300 -1.0666  1.9955 -0.7938
 3431SOL    HW220763   8.728   9.025   4.258  1.6199  0.2692 -1.6236
 3432SOL     OW20764   9.220   5.515   2.660 -0.1599  0.2002 -0.5882
 3432SOL    HW120765   9.287   5.541   2.590 -0.3629  0.9187 -0.5111
 3432SOL    HW220766   9.231   5.573   2.740 -0.2435 -0.3108 -0.2037
 3433SOL     OW20767   2.205   4.739   1.186 -0.2717 -0.6505 -0.2174
 3433SOL    HW120768   2.195   4.648   1.145 -1.5910 -0.1319 -1.0607
 3433SOL    HW220769   2.152   4.806   1.133  2.3262  0.9954 -0.8271
 3434SOL     OW20770   0.668   3.831   4.339 -0.2022  0.4403  0.7221
 3434SOL    HW120771   0.757   3.786   4.348 -2.1326 -3.6716  0.2916
 3434SOL    HW220772   0.633   3.854   4.430  1.2619  2.1201  0.8913
 3435SOL     OW20773   0.270   0.780   0.982 -0.2380  0.3943 -0.1267
 3435SOL    HW120774   0.296   0.805   0.889 -1.3754 -1.5764 -1.0208
 3435SOL    HW220775   0.250   0.863   1.034  3.3043  1.6999 -0.7139
 3436SOL     OW20776   2.422   8.656   0.608 -0.0534  0.2961 -0.2915
 3436SOL    HW120777   2.427   8.699   0.518  0.2854 -0.5674 -0.6931
 3436SOL    HW220778   2.389   8.722   0.675  2.9244  1.9790 -0.3819
 3437SOL     OW20779   8.611   6.741   0.433 -0.0684 -0.2107 -0.0248
 3437SOL    HW120780   8.568   6.660   0.394 -1.5796 -0.4071  1.9744
 3437SOL    HW220781   8.559   6.772   0.513  2.5416  0.5816  1.4371
 3438SOL     OW20782   2.228   5.571   4.489  0.0251  0.2419 -0.0988
 3438SOL    HW120783   2.129   5.581   4.500 -0.1885  1.4649 -2.6646
 3438SOL    HW220784   2.269   5.660   4.473  1.2162 -0.5059 -1.3479
 3439SOL     OW20785   1.213   4.857   0.442 -0.0133 -0.4758  0.4742
 3439SOL    HW120786   1.138   4.879   0.379 -1.2496 -0.9560  1.7618
 3439SOL    HW220787   1.297   4.843   0.389 -0.2776  2.3354 -0.8020
 3440SOL     OW20788   0.644   6.466   1.641  0.0293  0.2191 -0.0890
 3440SOL    HW120789   0.732   6.511   1.631  0.1027  0.3922  1.2393
 3440SOL    HW220790   0.581   6.525   1.692 -0.6723 -0.1382 -0.5281
 3441SOL     OW20791   8.075   0.607   2.029 -0.7824  0.1656 -0.8831
 3441SOL    HW120792   8.132   0.568   2.101 -2.1480 -1.3484 -0.5993
 3441SOL    HW220793   8.129   0.621   1.947  0.3227  0.0844 -0.1775
 3442SOL     OW20794   4.118   1.494   2.914  0.5598 -0.0025  0.2887
 3442SOL    HW120795   4.148   1.398   2.918 -3.9925 -1.5644  0.5361
 3442SOL    HW220796   4.088   1.515   2.821 -0.4450  0.4789  0.7170
 3443SOL     OW20797   2.056   2.851   1.921 -0.5917 -0.8982 -0.1732
 3443SOL    HW120798   2.098   2.763   1.902  0.6141 -1.1223  3.1613
 3443SOL    HW220799   2.009   2.847   2.009 -0.8143  1.6793 -0.1314
 3444SOL     OW20800   1.406   0.161   1.994 -0.0372 -0.0141  0.0231
 3444SOL    HW120801   1.472   0.200   1.930  0.5587 -1.2997 -0.1466
 3444SOL    HW220802   1.383   0.068   1.967 -0.1608 -0.3952  1.3953
 3445SOL     OW20803   2.758   8.836   1.636  0.2742  0.8810 -0.1087
 3445SOL    HW120804   2.787   8.746   1.669  0.3559  0.8598 -0.2397
 3445SOL    HW220805   2.658   8.838   1.630  0.3404  0.2568 -1.6402
 3446SOL     OW20806   1.484   3.772   3.202 -0.0965 -0.3629  0.1319
 3446SOL    HW120807   1.528   3.720   3.128 -0.3004 -0.4948  0.1039
 3446SOL    HW220808   1.385   3.771   3.189 -0.1951 -1.0518  0.8398
 3447SOL     OW20809   1.192   6.308   1.800 -0.1401  0.8157  0.4995
 3447SOL    HW120810   1.243   6.373   1.856 -0.3152  0.6332  0.8670
 3447SOL    HW220811   1.252   6.233   1.773 -0.4084  0.2442  1.5150
 3448SOL     OW20812   1.265   0.514   2.378 -0.0205 -0.2228  0.4580
 3448SOL    HW120813   1.271   0.577   2.455 -0.0655 -0.4942  0.6830
 3448SOL    HW220814   1.305   0.556   2.297  0.2501 -0.0347  0.6907
 3449SOL     OW20815   2.712   6.156   4.665 -0.3388  0.0360 -0.4579
 3449SOL    HW120816   2.743   6.118   4.577 -0.5953  0.8498 -0.9060
 3449SOL    HW220817   2.778   6.131   4.736 -0.2649 -0.8519 -0.8306
 3450SOL     OW20818   2.874   9.365   0.510  0.8350  0.3213 -0.6112
 3450SOL    HW120819   2.778   9.337   0.516  1.1888 -1.4566 -2.6584
 3450SOL    HW220820   2.880   9.464   0.514 -1.0595  0.4409 -0.1932
 3451SOL     OW20821   3.361   5.620   3.583  0.6264  0.3931 -0.5031
 3451SOL    HW120822   3.298   5.565   3.639  0.5751  1.4178  0.4558
 3451SOL    HW220823   3.417   5.559   3.527 -0.7805 -0.5612 -0.8993
 3452SOL     OW20824   4.765   9.106   3.867 -0.1423  0.0961  0.5478
 3452SOL    HW120825   4.770   9.013   3.902 -1.6604  0.0975  0.8402
 3452SOL    HW220826   4.824   9.166   3.922  1.0735 -0.7382  0.1656
 3453SOL     OW20827   1.978   2.703   1.610  0.1440 -0.5497  0.1359
 3453SOL    HW120828   2.037   2.744   1.541 -0.9746 -1.6574 -1.4917
 3453SOL    HW220829   2.036   2.662   1.681  1.3054 -0.0384 -0.4906
 3454SOL     OW20830   5.530   0.212   4.131 -0.1569  0.2164 -0.3246
 3454SOL    HW120831   5.512   0.219   4.033  1.5003 -3.0822 -0.9394
 3454SOL    HW220832   5.514   0.301   4.174 -2.1080  1.4231 -3.3419
 3455SOL     OW20833   4.189   0.955   4.372 -0.0882 -0.1546  0.9095
 3455SOL    HW120834   4.260   0.914   4.429 -1.0660 -2.5804  0.4492
 3455SOL    HW220835   4.108   0.896   4.372 -1.7238  2.0346  0.5774
 3456SOL     OW20836   3.703   2.409   0.387 -0.2050 -0.3906  0.6229
 3456SOL    HW120837   3.640   2.342   0.345  1.3473 -1.8723  0.6187
 3456SOL    HW220838   3.780   2.425   0.325  0.0470  0.4876  1.1598
 3457SOL     OW20839   7.604   6.277   1.589  0.3859  1.0583  0.0701
 3457SOL    HW120840   7.508   6.302   1.572  0.1926  0.0631 -0.3331
 3457SOL    HW220841   7.664   6.348   1.552 -0.0550 -0.4467 -3.8238
 3458SOL     OW20842   9.941   0.819   2.898 -0.4596  0.1799  0.6611
 3458SOL    HW120843  10.010   0.747   2.900 -0.3760  0.1681 -1.3035
 3458SOL    HW220844   9.890   0.819   2.983  1.4250 -0.3397  1.8274
 3459SOL     OW20845   1.065   9.132   1.807  0.4305 -0.3096  0.2968
 3459SOL    HW120846   1.041   9.036   1.820  0.4954 -0.1326  1.7941
 3459SOL    HW220847   1.084   9.149   1.710  0.5293 -1.8306  0.0399
 3460SOL     OW20848   1.700   0.440   2.527  0.2689  0.2537 -0.2776
 3460SOL    HW120849   1.740   0.493   2.452 -0.6651  0.0402 -0.9430
 3460SOL    HW220850   1.769   0.422   2.596  0.5370  2.5710  0.0837
 3461SOL     OW20851   1.923   4.277   4.016 -0.2766 -0.2895  0.0958
 3461SOL    HW120852   1.897   4.204   4.080  0.4106 -1.2458 -0.7167
 3461SOL    HW220853   1.933   4.240   3.924  0.8541  0.6935 -0.1889
 3462SOL     OW20854   9.292   7.617   4.559 -0.3059 -0.8231 -0.1176
 3462SOL    HW120855   9.313   7.633   4.462 -2.1736 -1.7733 -0.7135
 3462SOL    HW220856   9.347   7.542   4.593  0.8339 -0.0619 -0.2551
 3463SOL     OW20857   3.301   2.654   3.442  0.7368  0.2567 -0.4936
 3463SOL    HW120858   3.263   2.582   3.385  0.6799  0.7065 -1.0294
 3463SOL    HW220859   3.241   2.670   3.521  0.5141  0.0343 -0.6192
 3464SOL     OW20860   3.158   8.160   2.440 -0.0899 -0.8224 -0.3714
 3464SOL    HW120861   3.127   8.094   2.372  1.1568 -0.4979 -1.2551
 3464SOL    HW220862   3.255   8.180   2.427  0.6674 -2.1853  2.6922
 3465SOL     OW20863   2.992   9.457   3.724  0.3042 -0.4662 -0.3913
 3465SOL    HW120864   3.084   9.485   3.697  0.1546  0.0130 -0.4224
 3465SOL    HW220865   2.972   9.492   3.816 -0.2586  0.4148 -0.8343
 3466SOL     OW20866   9.957   5.299   1.419  0.4312  0.0803 -0.0047
 3466SOL    HW120867   9.874   5.250   1.391  0.2931 -0.7293  1.7475
 3466SOL    HW220868   9.949   5.396   1.395 -0.4293 -0.2582 -1.0929
 3467SOL     OW20869   3.842   0.938   3.070 -0.2021  0.0318 -0.0820
 3467SOL    HW120870   3.768   0.876   3.048  1.2400 -2.4424  1.7955
 3467SOL    HW220871   3.813   1.003   3.141 -0.0602 -2.1044  1.9806
 3468SOL     OW20872   8.860   7.210   1.570  0.0475  0.3504 -0.1576
 3468SOL    HW120873   8.909   7.273   1.510  1.3930 -1.7362 -1.2984
 3468SOL    HW220874   8.920   7.181   1.644 -0.6997  0.7075  0.5925
 3469SOL     OW20875   5.110   8.862   3.742  0.4329 -0.4227  0.0925
 3469SOL    HW120876   5.124   8.898   3.834  0.2769 -1.0770  0.3737
 3469SOL    HW220877   5.031   8.908   3.701 -1.5083 -2.3428  1.4942
 3470SOL     OW20878   1.058   0.233   3.302  0.0668  0.1736 -0.1964
 3470SOL    HW120879   1.092   0.144   3.333 -0.6264  0.2674  0.8529
 3470SOL    HW220880   1.098   0.306   3.357 -0.3051  0.4204 -0.2485
 3471SOL     OW20881   4.901   0.756   4.216  0.0106  0.3476 -0.5840
 3471SOL    HW120882   4.805   0.748   4.187  0.7303 -1.0675 -2.7103
 3471SOL    HW220883   4.952   0.805   4.146  1.0558  0.1718  0.0516
 3472SOL     OW20884   9.931   4.803   0.911 -0.2749 -0.5131 -0.0687
 3472SOL    HW120885   9.971   4.844   0.829  0.9382  0.7454  1.1199
 3472SOL    HW220886   9.898   4.876   0.971 -0.7360 -1.4084  0.7662
 3473SOL     OW20887   2.171   3.122   0.421 -0.2518 -0.0472 -0.5605
 3473SOL    HW120888   2.072   3.122   0.431 -0.3340  1.3371 -1.3068
 3473SOL    HW220889   2.213   3.092   0.507 -1.2253  1.9086  0.6200
 3474SOL     OW20890   1.308   2.634   2.566  0.3282 -0.4369  0.0580
 3474SOL    HW120891   1.352   2.564   2.622 -0.7807 -0.7946  0.5053
 3474SOL    HW220892   1.292   2.715   2.622 -3.1036 -1.6952  1.0580
 3475SOL     OW20893   9.669   6.091   1.215 -0.2244 -0.6482  0.4755
 3475SOL    HW120894   9.765   6.088   1.244 -0.3897  0.7179  1.2002
 3475SOL    HW220895   9.657   6.036   1.133  1.2943 -0.3979  0.0758
 3476SOL     OW20896   0.916   4.990   2.711 -0.6116 -0.2941 -0.1678
 3476SOL    HW120897   0.933   4.922   2.783  0.5134 -0.4828 -0.6098
 3476SOL    HW220898   0.833   5.042   2.734  0.2613  0.3036  1.7689
 3477SOL     OW20899   4.367   1.677   1.630 -0.2102 -0.1090  0.7252
 3477SOL    HW120900   4.389   1.579   1.627 -1.4232 -0.3986  1.0421
 3477SOL    HW220901   4.308   1.695   1.709 -0.8726  0.6955  0.0548
 3478SOL     OW20902   9.745   6.320   0.494  0.2688  0.2345 -0.0762
 3478SOL    HW120903   9.776   6.248   0.432 -0.8021  0.6343 -1.1040
 3478SOL    HW220904   9.812   6.395   0.494  1.3822 -0.7570  0.9944
 3479SOL     OW20905   9.231   7.211   2.762  0.2024  0.0610 -0.2278
 3479SOL    HW120906   9.141   7.170   2.753  0.4254 -0.5299  0.2042
 3479SOL    HW220907   9.299   7.152   2.719  0.6081 -0.3536  0.9628
 3480SOL     OW20908   0.132   8.302   1.569  0.4796 -0.1755  0.9512
 3480SOL    HW120909   0.181   8.377   1.612  1.8125 -0.4955  0.0270
 3480SOL    HW220910   0.103   8.236   1.638  2.5514 -0.6587  1.3850
 3481SOL     OW20911   3.892   0.931   3.477 -0.2856  0.2078 -0.0919
 3481SOL    HW120912   3.985   0.946   3.511 -0.5902 -0.2596  0.9614
 3481SOL    HW220913   3.863   1.010   3.424  1.0515 -0.0255 -1.2039
 3482SOL     OW20914   6.223   0.467   2.972  0.2057  0.3188  0.4803
 3482SOL    HW120915   6.217   0.545   3.036  1.6537  0.2646  0.7125
 3482SOL    HW220916   6.131   0.433   2.952 -0.3379  0.9748  1.7633
 3483SOL     OW20917   6.628   9.320   2.200 -0.2276 -0.0535 -0.5377
 3483SOL    HW120918   6.689   9.251   2.162 -1.6179 -1.9857  0.6673
 3483SOL    HW220919   6.666   9.354   2.286 -1.6461 -2.5454  1.1317
 3484SOL     OW20920   6.923   8.544   2.486 -0.2378 -0.1326 -0.3174
 3484SOL    HW120921   6.886   8.505   2.402  1.1404  1.0782 -1.5130
 3484SOL    HW220922   6.857   8.607   2.525 -0.0727  0.9015 -1.6534
 3485SOL     OW20923   9.585   1.297   2.576  0.1069  0.5971 -0.3821
 3485SOL    HW120924   9.500   1.261   2.538  0.4378  0.8380 -1.3453
 3485SOL    HW220925   9.630   1.355   2.509  2.0848 -1.2063 -0.6658
 3486SOL     OW20926   7.805   0.186   1.005 -0.0130  0.2009 -0.8924
 3486SOL    HW120927   7.872   0.111   1.011 -2.1123 -1.7426 -1.0977
 3486SOL    HW220928   7.769   0.205   1.097  0.9405  1.3801 -0.7527
 3487SOL     OW20929   8.209   9.642   3.505  0.1664  0.1225 -0.0476
 3487SOL    HW120930   8.184   9.570   3.441  1.0074  0.3383 -0.6315
 3487SOL    HW220931   8.212   9.730   3.457  1.6180  0.1621  0.0910
 3488SOL     OW20932   2.077   8.553   2.732 -0.6551 -0.0455  0.2243
 3488SOL    HW120933   1.998   8.581   2.787 -0.0685 -0.6825  1.4093
 3488SOL    HW220934   2.156   8.610   2.755 -0.4242 -0.2646 -0.0174
 3489SOL     OW20935   0.013   7.089   2.095  0.2315 -0.5122 -0.0452
 3489SOL    HW120936  -0.004   7.093   1.996 -0.9587 -0.7874  0.1419
 3489SOL    HW220937   0.108   7.064   2.111  0.4910 -0.2577 -1.1244
 3490SOL     OW20938   1.941   2.605   0.260 -0.5687 -0.2167 -0.1161
 3490SOL    HW120939   1.904   2.689   0.301  0.5183 -0.3962  1.2632
 3490SOL    HW220940   1.887   2.527   0.290  1.1187 -0.5264  2.2157
 3491SOL     OW20941   3.474   1.900   1.182 -1.1060 -0.2759  1.0005
 3491SOL    HW120942   3.496   1.806   1.153  0.3235 -0.0574  1.3546
 3491SOL    HW220943   3.523   1.965   1.123 -0.8936  0.2264  1.7295
 3492SOL     OW20944   9.101   6.009   0.737 -0.2022 -0.1131  0.1792
 3492SOL    HW120945   9.176   6.042   0.795 -0.0687  1.0235 -0.6285
 3492SOL    HW220946   9.125   6.020   0.641 -0.7374 -1.2854 -0.1034
 3493SOL     OW20947   7.394   9.439   1.128  0.1954  0.4250 -0.2639
 3493SOL    HW120948   7.344   9.525   1.142 -0.5492 -0.3763  2.3967
 3493SOL    HW220949   7.335   9.362   1.150  1.6573 -0.6616 -0.0643
 3494SOL     OW20950   3.341   7.772   3.025 -0.1507 -0.5223  0.1464
 3494SOL    HW120951   3.293   7.853   2.991  0.6307  0.5065  1.4291
 3494SOL    HW220952   3.437   7.775   2.995  0.3554  0.0109  1.7601
 3495SOL     OW20953   1.432   8.612   0.240 -0.3344  0.5528 -0.1456
 3495SOL    HW120954   1.425   8.685   0.173  1.2355 -1.7036 -2.8995
 3495SOL    HW220955   1.362   8.543   0.221  1.1154 -0.8641 -0.5404
 3496SOL     OW20956   0.402   5.534   0.961  0.1542  0.0114 -0.8462
 3496SOL    HW120957   0.355   5.615   0.924 -0.7429  0.0421  0.3279
 3496SOL    HW220958   0.492   5.526   0.919 -0.0702  1.1638 -1.5796
 3497SOL     OW20959   7.417   6.570   1.639  0.2808  0.7667  0.5337
 3497SOL    HW120960   7.415   6.663   1.674  3.4987  0.8911  0.5579
 3497SOL    HW220961   7.479   6.566   1.560 -1.1952 -0.9889 -0.5654
 3498SOL     OW20962   2.925   4.094   3.662 -0.4060 -0.0662 -0.3695
 3498SOL    HW120963   2.920   4.075   3.760 -3.1115 -2.7798 -0.9554
 3498SOL    HW220964   2.941   4.192   3.647  1.1870  0.2191  2.7355
 3499SOL     OW20965   5.342   7.397   2.251  0.2813  0.2669 -0.1653
 3499SOL    HW120966   5.421   7.417   2.193 -0.9497  1.2056 -1.5516
 3499SOL    HW220967   5.291   7.482   2.266 -1.2999 -0.6096 -0.5413
 3500SOL     OW20968   3.372   8.412   3.371  0.2980 -0.4001  0.3911
 3500SOL    HW120969   3.405   8.331   3.418 -0.1129 -0.8714 -0.1265
 3500SOL    HW220970   3.320   8.469   3.434  0.1825 -0.7762  0.6301
 3501SOL     OW20971   2.876   7.168   0.621  0.4566  0.5378 -0.2791
 3501SOL    HW120972   2.943   7.100   0.649  1.7540  2.2609  0.9051
 3501SOL    HW220973   2.836   7.211   0.702 -0.1102  1.4141 -1.0114
 3502SOL     OW20974   3.336   4.707   3.645  0.0962  0.3645  0.5749
 3502SOL    HW120975   3.371   4.684   3.554 -2.1354  0.6631 -0.4001
 3502SOL    HW220976   3.335   4.626   3.702  0.1562 -0.1411 -0.1354
 3503SOL     OW20977   1.394   2.251   0.747 -0.4171  0.7453 -0.0377
 3503SOL    HW120978   1.328   2.228   0.675 -1.7448  0.4354  1.2675
 3503SOL    HW220979   1.354   2.320   0.808  0.7188  1.0435  0.3837
 3504SOL     OW20980   2.659   7.539   4.121 -0.0947 -0.1318  0.2652
 3504SOL    HW120981   2.752   7.571   4.109 -0.1377  0.6394  1.8738
 3504SOL    HW220982   2.641   7.524   4.219 -1.0329 -2.1549 -0.1816
 3505SOL     OW20983   3.415   8.947   4.290  0.0938  0.2094 -0.2791
 3505SOL    HW120984   3.391   9.032   4.335 -0.7327 -0.5268  0.6861
 3505SOL    HW220985   3.415   8.961   4.191 -2.0644  0.8172 -0.2186
 3506SOL     OW20986   3.967   2.951   2.636 -0.0934  0.1235 -0.6191
 3506SOL    HW120987   3.946   2.858   2.607 -3.3229  0.4731  0.3882
 3506SOL    HW220988   3.961   2.957   2.736  1.2087  1.1870 -0.5810
 3507SOL     OW20989   5.227   7.510   1.831  0.6107  0.5559 -0.4827
 3507SOL    HW120990   5.240   7.412   1.851  1.0776  1.4015  3.7641
 3507SOL    HW220991   5.130   7.530   1.823  0.3661  0.1830  1.3481
 3508SOL     OW20992   6.434   9.248   2.788 -0.1534 -0.4620 -0.0788
 3508SOL    HW120993   6.369   9.179   2.819  0.0618 -1.2387 -1.3081
 3508SOL    HW220994   6.443   9.320   2.857  0.6661 -2.3711  1.8358
 3509SOL     OW20995   8.594   0.463   1.820  0.2321  0.3378 -0.6530
 3509SOL    HW120996   8.558   0.459   1.727 -0.8775  0.2966 -0.2206
 3509SOL    HW220997   8.542   0.528   1.874  1.8080  1.4713 -0.4423
 3510SOL     OW20998   1.051   6.292   4.736  0.0795 -0.1597  0.1861
 3510SOL    HW120999   1.115   6.369   4.736 -1.5493  1.2438  0.4466
 3510SOL    HW221000   1.067   6.236   4.817  1.4957 -0.2908 -0.1711
 3511SOL     OW21001   1.056   0.910   0.071  0.2581 -0.2549  0.4599
 3511SOL    HW121002   1.113   0.949   0.143 -0.3762  0.8113  0.4014
 3511SOL    HW221003   1.029   0.983   0.008  0.9709 -1.2137 -0.9636
 3512SOL     OW21004   0.957   9.417   1.819  0.1156 -0.0681  0.1828
 3512SOL    HW121005   0.969   9.318   1.823  1.6713  0.0887 -0.1976
 3512SOL    HW221006   0.873   9.439   1.771 -0.8146 -1.2256  1.2390
 3513SOL     OW21007   0.811   4.055   3.566 -0.2026 -0.4457  0.0011
 3513SOL    HW121008   0.767   4.079   3.652  1.3835  2.0976  0.1438
 3513SOL    HW221009   0.908   4.078   3.570  0.0931 -1.1997 -2.1267
 3514SOL     OW21010   7.090   9.838   3.882  0.0860  0.2537  0.4718
 3514SOL    HW121011   7.133   9.911   3.935 -1.7189  1.9000 -0.2666
 3514SOL    HW221012   7.038   9.878   3.807 -1.4115 -1.7867  0.3928
 3515SOL     OW21013   2.545   0.301   1.348 -0.1377 -0.4200 -0.2329
 3515SOL    HW121014   2.617   0.233   1.333 -1.8482 -1.8933 -1.9739
 3515SOL    HW221015   2.456   0.259   1.333 -1.3507  1.6441  0.9192
 3516SOL     OW21016   3.226   3.747   0.472  0.1415  0.1892 -0.2129
 3516SOL    HW121017   3.244   3.807   0.550  1.5599  1.1208 -1.2234
 3516SOL    HW221018   3.269   3.658   0.487  0.3638  0.3488  0.1000
 3517SOL     OW21019   1.374   6.098   2.533  0.1570  0.0801  0.3100
 3517SOL    HW121020   1.464   6.134   2.506  0.3575 -0.8456 -0.3091
 3517SOL    HW221021   1.387   6.019   2.593 -0.2612  0.4673  0.9097
 3518SOL     OW21022   1.052   3.296   0.780 -0.0456 -0.0572  0.3911
 3518SOL    HW121023   1.114   3.347   0.720 -0.9413 -0.1933 -0.6625
 3518SOL    HW221024   1.017   3.216   0.731 -0.5267 -0.3525  1.2118
 3519SOL     OW21025   1.156   1.588   4.416  0.0972 -0.0420 -0.6135
 3519SOL    HW121026   1.063   1.620   4.433  0.3606  0.3459  0.1094
 3519SOL    HW221027   1.216   1.666   4.400  0.4585 -0.2540 -0.2982
 3520SOL     OW21028   0.231   7.173   3.231  0.3822 -0.0723  0.3375
 3520SOL    HW121029   0.253   7.100   3.297  0.9949 -0.2136 -0.0281
 3520SOL    HW221030   0.214   7.258   3.281 -1.1618 -0.6488  0.8394
 3521SOL     OW21031   3.697   8.917   2.059 -0.0808 -0.6725  0.2935
 3521SOL    HW121032   3.662   8.823   2.053 -1.2322 -0.1987 -0.9026
 3521SOL    HW221033   3.779   8.926   2.003  0.5520 -1.1819  1.1283
 3522SOL     OW21034   0.387   0.989   4.270 -0.2278 -0.2541 -0.6562
 3522SOL    HW121035   0.402   0.901   4.314 -0.2357  0.3262  0.5316
 3522SOL    HW221036   0.438   1.060   4.318 -1.7656  0.7158 -0.3937
 3523SOL     OW21037   8.658   7.037   1.797  0.2369  0.3124 -0.3801
 3523SOL    HW121038   8.648   7.058   1.700  1.9012  1.9369 -0.2232
 3523SOL    HW221039   8.636   7.119   1.851  0.1656 -0.3303  0.5724
 3524SOL     OW21040   9.495   9.169   1.502 -0.0913 -0.1338  0.0713
 3524SOL    HW121041   9.464   9.253   1.547  1.4880 -0.7411  2.3597
 3524SOL    HW221042   9.443   9.091   1.538  1.0660 -0.6056  0.7285
 3525SOL     OW21043   0.245   7.557   1.348  0.2640  0.2495 -0.1621
 3525SOL    HW121044   0.266   7.539   1.252 -1.0863  1.6886 -0.7565
 3525SOL    HW221045   0.257   7.655   1.368  2.4366 -0.3496  1.6489
 3526SOL     OW21046   7.750   7.174   1.507  0.2369  0.3033 -0.2009
 3526SOL    HW121047   7.771   7.271   1.498 -0.4252  0.5835  1.1490
 3526SOL    HW221048   7.732   7.153   1.603 -1.6199 -0.7515 -0.7580
 3527SOL     OW21049   4.430   0.914   1.121 -0.7922 -0.1052  0.5166
 3527SOL    HW121050   4.332   0.930   1.105 -0.4332  1.4952 -0.1651
 3527SOL    HW221051   4.481   0.997   1.097  0.7285 -0.9257  0.9129
 3528SOL     OW21052   3.634   0.419   2.995 -0.4165  0.2034 -0.2750
 3528SOL    HW121053   3.583   0.369   3.065 -1.0111  0.1729 -0.7231
 3528SOL    HW221054   3.577   0.428   2.913  0.3007  0.1695 -0.7823
 3529SOL     OW21055   3.473   9.235   4.402 -0.6156  0.0368  0.1852
 3529SOL    HW121056   3.424   9.305   4.453  0.8276  1.9574 -0.9880
 3529SOL    HW221057   3.550   9.202   4.456 -1.6363 -1.1272  0.9787
 3530SOL     OW21058   3.203   3.867   0.054  0.2548  0.4103 -0.4042
 3530SOL    HW121059   3.160   3.906   0.135 -0.7653  1.1289 -1.2690
 3530SOL    HW221060   3.209   3.937  -0.017  1.1129 -0.2174 -0.9564
 3531SOL     OW21061   9.015   8.947   1.828  0.1872  0.1940 -0.8521
 3531SOL    HW121062   9.006   8.908   1.737 -1.1629 -0.6253 -0.3783
 3531SOL    HW221063   9.112   8.959   1.850  0.5239  0.1512 -2.2761
 3532SOL     OW21064   1.163   6.801   2.155  0.4011  0.2258 -0.8799
 3532SOL    HW121065   1.206   6.810   2.245 -1.8208 -2.5507  0.5578
 3532SOL    HW221066   1.098   6.876   2.140  2.2989  1.8520 -1.1031
 3533SOL     OW21067   7.874   6.562   3.395 -0.0816 -0.0593  0.5954
 3533SOL    HW121068   7.817   6.582   3.474  0.3573  1.8049  0.4622
 3533SOL    HW221069   7.819   6.570   3.311  0.2435  1.2760  0.4989
 3534SOL     OW21070   8.896   8.000   2.666  0.3346  0.4097 -0.1215
 3534SOL    HW121071   8.898   7.901   2.679  2.3836  0.2156 -1.6607
 3534SOL    HW221072   8.802   8.033   2.676  0.0672 -1.2271  3.4351
 3535SOL     OW21073   1.150   6.370   1.318 -0.2191 -0.5635 -0.1294
 3535SOL    HW121074   1.220   6.302   1.340  0.6481  0.3057 -0.1393
 3535SOL    HW221075   1.134   6.371   1.220  1.7665  1.1054 -0.4918
 3536SOL     OW21076   1.156   2.733   4.731 -0.3414 -0.1178 -1.0073
 3536SOL    HW121077   1.074   2.685   4.701  0.1720 -1.1015 -0.8630
 3536SOL    HW221078   1.201   2.775   4.652 -1.7946  1.7418 -0.8837
 3537SOL     OW21079   1.313   5.195   3.013 -0.0369 -0.2406  0.0471
 3537SOL    HW121080   1.312   5.125   2.941  1.6084 -1.9235  1.5859
 3537SOL    HW221081   1.221   5.207   3.049 -0.5378 -0.7639 -1.0530
 3538SOL     OW21082   9.605   5.507   0.156 -0.2255  0.3792  0.0481
 3538SOL    HW121083   9.652   5.537   0.238  0.5116  1.6747 -0.8307
 3538SOL    HW221084   9.565   5.416   0.171  0.1020  0.5101  1.7371
 3539SOL     OW21085   3.414   0.737   1.623 -0.2359 -0.0904  0.1438
 3539SOL    HW121086   3.336   0.676   1.641  0.9953 -1.0050  2.6862
 3539SOL    HW221087   3.420   0.805   1.695  0.6121  0.7393 -0.6981
 3540SOL     OW21088   3.542   1.903   1.458 -0.4285 -0.2596 -0.5850
 3540SOL    HW121089   3.516   1.916   1.362 -1.3162 -4.0726 -0.9550
 3540SOL    HW221090   3.501   1.818   1.492  1.3585  0.0965  2.6480
 3541SOL     OW21091   3.469   2.365   4.292  0.2056  0.1530 -0.1332
 3541SOL    HW121092   3.534   2.426   4.339 -0.5028  0.4295  0.5068
 3541SOL    HW221093   3.395   2.342   4.355  0.9625 -2.1732 -0.0560
 3542SOL     OW21094   1.480   1.613   0.581  0.4569  0.4635 -0.2389
 3542SOL    HW121095   1.540   1.569   0.513 -0.9324 -1.9584  0.0767
 3542SOL    HW221096   1.390   1.628   0.541  0.5057  1.8076  0.1183
 3543SOL     OW21097   8.283   7.873   3.749 -0.1365  0.7344 -0.2079
 3543SOL    HW121098   8.303   7.858   3.652 -0.5542  1.2213 -0.3731
 3543SOL    HW221099   8.341   7.813   3.804 -2.0351 -1.7610 -0.8465
 3544SOL     OW21100   6.338   9.082   2.410 -0.3190 -0.1027 -0.3861
 3544SOL    HW121101   6.269   9.011   2.398  0.1305 -0.2337 -2.3257
 3544SOL    HW221102   6.305   9.167   2.369 -0.3856  0.5393  0.9498
 3545SOL     OW21103   5.879   9.379   3.050  0.2137 -0.3965  0.1732
 3545SOL    HW121104   5.934   9.456   3.084  0.0773 -0.7099  1.1188
 3545SOL    HW221105   5.782   9.397   3.068  0.3099 -1.5367  1.9223
 3546SOL     OW21106   1.201   0.123   0.775 -0.3799 -0.1368  0.3649
 3546SOL    HW121107   1.106   0.097   0.757  0.4573 -1.3305 -2.6403
 3546SOL    HW221108   1.254   0.042   0.799  0.7188 -0.1193 -1.9169
 3547SOL     OW21109   3.063   1.760   2.831  0.0987 -0.0806 -0.1868
 3547SOL    HW121110   3.061   1.687   2.764  0.0521  0.9382 -1.3091
 3547SOL    HW221111   3.143   1.817   2.817 -0.2704  0.5456  0.1855
 3548SOL     OW21112   0.270   0.519   1.019 -0.2257 -0.2869  0.3037
 3548SOL    HW121113   0.282   0.618   1.007 -1.9981 -0.2547 -1.4597
 3548SOL    HW221114   0.233   0.501   1.110 -1.1462  0.8082  0.1657
 3549SOL     OW21115   1.421   3.310   2.229 -0.1853  0.4829  0.3077
 3549SOL    HW121116   1.459   3.335   2.318 -0.0862  0.1502  0.3574
 3549SOL    HW221117   1.494   3.311   2.160 -0.0778 -0.1955  0.4108
 3550SOL     OW21118   4.116   8.007   0.567 -0.3746 -0.1396  0.0065
 3550SOL    HW121119   4.140   7.916   0.603  0.1620  1.0454  2.8237
 3550SOL    HW221120   4.193   8.044   0.516  0.1279 -0.4592  0.5302
 3551SOL     OW21121   2.587   1.193   3.254  0.2245  0.4171 -0.6300
 3551SOL    HW121122   2.552   1.121   3.314  0.8444  0.0499 -0.7030
 3551SOL    HW221123   2.511   1.237   3.206 -0.2425  0.4981  0.1862
 3552SOL     OW21124   2.449   8.663   4.248  0.2471  0.9577  0.1220
 3552SOL    HW121125   2.494   8.633   4.333  1.5273  0.1914 -0.8001
 3552SOL    HW221126   2.451   8.588   4.182  0.3796  1.9528 -1.0163
 3553SOL     OW21127   2.590   0.494   2.947 -0.3498 -0.1829 -0.1664
 3553SOL    HW121128   2.679   0.476   2.906  0.4234  2.2241  0.3410
 3553SOL    HW221129   2.579   0.439   3.029  0.1983 -1.3268 -0.8573
 3554SOL     OW21130   2.277   2.605   2.809  0.4237 -0.2498  0.3060
 3554SOL    HW121131   2.304   2.511   2.831  1.2952 -0.0526  0.1086
 3554SOL    HW221132   2.213   2.638   2.878 -0.0552 -1.0586  0.2621
 3555SOL     OW21133   7.285   9.947   0.854 -0.3474  0.3542  0.2626
 3555SOL    HW121134   7.319  10.040   0.841  0.7130 -0.1998 -1.0422
 3555SOL    HW221135   7.305   9.917   0.947  0.6080  0.9177  0.2492
 3556SOL     OW21136   0.140   4.362   1.633  0.4687 -0.4486 -0.2574
 3556SOL    HW121137   0.142   4.406   1.543  0.6261 -0.6573 -0.3559
 3556SOL    HW221138   0.203   4.411   1.694  0.9191 -0.7540 -0.4702
 3557SOL     OW21139   6.735   9.876   2.191 -0.4706 -0.2009  0.3729
 3557SOL    HW121140   6.652   9.931   2.199  0.0157  0.8098 -1.2445
 3557SOL    HW221141   6.713   9.786   2.154 -0.8133  0.1907 -0.3923
 3558SOL     OW21142   5.904   9.388   3.380 -0.5797 -0.1957  0.0245
 3558SOL    HW121143   5.819   9.401   3.328 -0.4973 -0.2844 -0.1317
 3558SOL    HW221144   5.933   9.476   3.419 -0.0083  0.1087 -1.0586
 3559SOL     OW21145   1.120   3.523   3.348  0.8998 -0.3028 -0.6996
 3559SOL    HW121146   1.169   3.514   3.435  0.4487  1.0890 -0.2855
 3559SOL    HW221147   1.130   3.616   3.314 -1.8110  0.1251 -0.3869
 3560SOL     OW21148   4.406   1.329   0.749  0.3226 -0.6109  0.3622
 3560SOL    HW121149   4.342   1.384   0.802 -2.1956 -2.6117 -0.4728
 3560SOL    HW221150   4.375   1.324   0.654  3.4039  0.8738 -0.7747
 3561SOL     OW21151   7.555   7.803   0.655  0.0447  0.6607 -0.7206
 3561SOL    HW121152   7.489   7.852   0.598 -1.3940 -0.0559  0.2851
 3561SOL    HW221153   7.550   7.705   0.636  0.2960  0.5273 -0.1155
 3562SOL     OW21154   9.636   7.289   3.775  0.4897 -0.1658  0.2330
 3562SOL    HW121155   9.632   7.195   3.807 -0.5957  0.8985  3.4305
 3562SOL    HW221156   9.573   7.301   3.698 -1.5578 -1.3857  1.6763
 3563SOL     OW21157   1.935   7.049   1.543 -0.8236 -0.1969 -0.3563
 3563SOL    HW121158   1.939   7.089   1.635  0.2605  0.4729 -0.6805
 3563SOL    HW221159   1.921   6.950   1.551 -0.4406 -0.1924  0.5525
 3564SOL     OW21160   8.808   8.890   3.941 -0.4062  0.2828 -0.2700
 3564SOL    HW121161   8.877   8.960   3.920 -1.2855  0.9469 -1.0011
 3564SOL    HW221162   8.802   8.826   3.864  2.0013 -1.9522  1.3309
 3565SOL     OW21163   4.602   8.851   4.292 -0.0522  0.5918  0.5056
 3565SOL    HW121164   4.653   8.937   4.303 -1.1620  1.3033  0.1128
 3565SOL    HW221165   4.524   8.866   4.231 -0.9924 -0.3960  1.4534
 3566SOL     OW21166   0.547   1.825   1.167 -0.2862  0.7604  0.6399
 3566SOL    HW121167   0.517   1.778   1.250  0.0780 -0.5793  0.0231
 3566SOL    HW221168   0.472   1.882   1.133 -0.6903  0.7383  1.4583
 3567SOL     OW21169   1.131   7.161   0.197  0.3373 -0.0997 -0.2867
 3567SOL    HW121170   1.230   7.146   0.191  0.1363 -1.0318 -1.5993
 3567SOL    HW221171   1.112   7.258   0.194  1.3078  0.1821  1.6256
 3568SOL     OW21172   9.032   8.802   1.610  0.3493  0.3536 -0.1422
 3568SOL    HW121173   9.125   8.765   1.618  0.9840  2.0981  0.9098
 3568SOL    HW221174   8.966   8.727   1.616  1.6201 -0.7247  1.0462
 3569SOL     OW21175   7.471   0.398   1.415  0.7544 -0.0989 -0.4072
 3569SOL    HW121176   7.432   0.472   1.470 -1.8813 -1.6793 -0.0420
 3569SOL    HW221177   7.509   0.435   1.331 -1.7845  1.5200 -0.8768
 3570SOL     OW21178   2.776   4.318   3.077  0.1758  0.1643  0.3646
 3570SOL    HW121179   2.786   4.418   3.073 -0.3062  0.1896 -0.2900
 3570SOL    HW221180   2.794   4.280   2.986 -3.4345  0.0020 -0.3223
 3571SOL     OW21181   1.848   9.714   4.174 -0.3670 -0.8479 -0.0383
 3571SOL    HW121182   1.937   9.670   4.167  0.5477  0.8839  0.5057
 3571SOL    HW221183   1.792   9.689   4.095  1.5069  0.0062 -1.6711
 3572SOL     OW21184   9.478   6.330   0.042  0.9298 -0.6046  0.6410
 3572SOL    HW121185   9.490   6.423   0.077 -2.9394  1.6971 -3.6223
 3572SOL    HW221186   9.433   6.274   0.111 -0.6334  1.9276  1.7333
 3573SOL     OW21187   5.908   0.720   3.180 -0.2592  0.2469  0.3046
 3573SOL    HW121188   5.917   0.645   3.245  0.2444  1.5261  1.7351
 3573SOL    HW221189   5.831   0.702   3.119  1.3777 -2.6260 -1.0173
 3574SOL     OW21190   9.569   7.484   2.878  0.5033 -0.4770 -1.2056
 3574SOL    HW121191   9.662   7.459   2.854  0.3699 -1.6754 -0.5047
 3574SOL    HW221192   9.567   7.577   2.915  1.5347 -0.7513 -0.4616
 3575SOL     OW21193   0.717   2.076   2.283  0.2827 -0.1725 -0.4549
 3575SOL    HW121194   0.760   2.165   2.299  0.9054 -0.5664  0.0818
 3575SOL    HW221195   0.741   2.014   2.358 -1.3114 -0.3617 -0.0997
 3576SOL     OW21196   1.559   4.286   3.815  0.3202 -0.3830  0.0880
 3576SOL    HW121197   1.573   4.374   3.859  0.7468 -0.8473  0.9021
 3576SOL    HW221198   1.608   4.284   3.728 -1.5087  0.9687 -0.9940
 3577SOL     OW21199   3.786   0.512   0.576 -0.3983  0.0932 -0.1115
 3577SOL    HW121200   3.763   0.500   0.673 -0.8904 -1.2811 -0.3896
 3577SOL    HW221201   3.703   0.535   0.525 -0.0554  1.2949 -0.1393
 3578SOL     OW21202   2.865   1.071   4.395 -0.1142 -0.2537  0.5881
 3578SOL    HW121203   2.783   1.095   4.448  0.6020  1.3305  1.0055
 3578SOL    HW221204   2.839   1.010   4.320 -1.1664 -2.3534  2.6250
 3579SOL     OW21205   2.759   4.673   0.323  0.2767  0.5527 -0.4891
 3579SOL    HW121206   2.723   4.609   0.391  0.1704  0.6430 -0.4613
 3579SOL    HW221207   2.726   4.765   0.343 -0.7739  0.3849 -1.3808
 3580SOL     OW21208   5.319   8.692   1.827  0.4031  0.1470 -0.3228
 3580SOL    HW121209   5.375   8.649   1.898 -0.2559  1.8356  1.2513
 3580SOL    HW221210   5.236   8.639   1.814  0.5240 -0.1725  0.1844
 3581SOL     OW21211   0.333   3.978   2.500  0.2326  0.1812  0.0655
 3581SOL    HW121212   0.309   4.013   2.590  1.1210 -0.1930  0.4502
 3581SOL    HW221213   0.371   3.886   2.509  1.6661  0.6970 -0.5433
 3582SOL     OW21214   9.738   4.690   0.181  0.1432  0.1990  0.0462
 3582SOL    HW121215   9.829   4.702   0.140  0.2898 -0.0270  0.2965
 3582SOL    HW221216   9.744   4.620   0.252 -0.4199 -0.4556 -0.5483
 3583SOL     OW21217   5.830   9.915   1.803 -0.2035 -0.0481 -0.0273
 3583SOL    HW121218   5.740   9.940   1.766 -0.4780  0.3454  0.8746
 3583SOL    HW221219   5.901   9.941   1.738 -0.5877  1.8025  0.2497
 3584SOL     OW21220   4.100   3.908   2.681  0.3344  0.1817 -0.5258
 3584SOL    HW121221   4.036   3.982   2.698  0.6048  0.2208  0.3054
 3584SOL    HW221222   4.138   3.918   2.589 -0.6311  0.3194 -0.9139
 3585SOL     OW21223   2.486   7.612   1.047  0.2766  0.1262  0.1458
 3585SOL    HW121224   2.391   7.604   1.076 -0.1805  0.8438 -1.1282
 3585SOL    HW221225   2.506   7.707   1.023  1.4318  0.0544  0.7738
 3586SOL     OW21226   1.903   1.270   1.984 -0.2937 -0.0997  0.0251
 3586SOL    HW121227   1.992   1.272   1.939 -0.0222 -0.7507  0.5416
 3586SOL    HW221228   1.914   1.278   2.083 -0.9030  1.4821 -0.0079
 3587SOL     OW21229   1.905   7.261   3.021  0.4492 -0.0562  0.6689
 3587SOL    HW121230   1.867   7.339   2.970  1.0488  0.1421  0.5296
 3587SOL    HW221231   1.999   7.244   2.991 -0.2838 -2.0094 -0.6448
 3588SOL     OW21232   4.166   9.633   4.352  0.7526  0.1326 -0.2710
 3588SOL    HW121233   4.203   9.660   4.263  0.5841 -0.5792 -0.5523
 3588SOL    HW221234   4.066   9.625   4.346  0.7549 -0.0629 -0.0538
 3589SOL     OW21235   1.237   8.129   1.999 -0.3784  0.0065  0.0425
 3589SOL    HW121236   1.232   8.133   1.899 -1.5799 -0.9436  0.0629
 3589SOL    HW221237   1.297   8.054   2.027  0.5046  0.6994  0.0371
 3590SOL     OW21238   8.728   9.002   0.100  0.4519  0.0896 -0.1139
 3590SOL    HW121239   8.654   9.069   0.088  0.4861  0.1062 -0.2330
 3590SOL    HW221240   8.790   9.034   0.172  1.2034  0.8291 -1.0831
 3591SOL     OW21241   6.585   8.507   2.080 -0.0575  0.0635 -0.5068
 3591SOL    HW121242   6.489   8.532   2.063  0.0966  0.8064 -0.2909
 3591SOL    HW221243   6.589   8.448   2.160 -0.2827  0.4791 -0.1851
 3592SOL     OW21244   9.705   0.411   2.528  0.5632  0.2517 -0.4224
 3592SOL    HW121245   9.642   0.335   2.515  0.6781  0.1275 -0.2548
 3592SOL    HW221246   9.770   0.414   2.452 -0.6161  1.3349 -1.4238
 3593SOL     OW21247   7.830   0.449   0.429  0.5696  0.4448 -0.0184
 3593SOL    HW121248   7.822   0.362   0.477 -1.1593  0.2167 -0.7007
 3593SOL    HW221249   7.791   0.522   0.484 -0.2501  0.3851 -0.5114
 3594SOL     OW21250   1.560   9.114   3.558  0.4070  0.1039  0.3206
 3594SOL    HW121251   1.562   9.077   3.651 -1.8013 -1.4478 -0.2081
 3594SOL    HW221252   1.567   9.039   3.493  0.6829  1.0691 -0.7729
 3595SOL     OW21253   2.707   8.320   3.177  0.1744  0.0420  0.8374
 3595SOL    HW121254   2.627   8.349   3.229 -1.0723  2.3164 -2.2581
 3595SOL    HW221255   2.686   8.234   3.129 -0.0173  0.0629  0.8839
 3596SOL     OW21256   1.252   3.294   0.404  0.0912  0.2263 -0.5026
 3596SOL    HW121257   1.330   3.240   0.438 -1.7484 -0.6233  2.5898
 3596SOL    HW221258   1.233   3.369   0.468 -0.7784  1.2515 -1.9425
 3597SOL     OW21259   8.819   6.968   2.039 -0.1009 -0.3663  0.3869
 3597SOL    HW121260   8.749   6.959   1.968 -1.4437 -2.8960  1.9273
 3597SOL    HW221261   8.852   6.877   2.064  1.8042  0.6310  1.5933
 3598SOL     OW21262   3.784   2.705   0.484 -0.1262  0.2917  0.1346
 3598SOL    HW121263   3.737   2.628   0.528  1.5511 -2.3302 -2.4527
 3598SOL    HW221264   3.732   2.735   0.404  0.6426 -0.0709 -0.5093
 3599SOL     OW21265   1.033   5.962   1.153 -0.4315  0.3582 -0.1944
 3599SOL    HW121266   1.118   5.909   1.148 -1.1774 -1.0470  1.5405
 3599SOL    HW221267   1.033   6.017   1.236 -1.4504 -0.0700  0.0898
 3600SOL     OW21268   0.214   6.872   3.022 -0.1520 -0.2571  0.4782
 3600SOL    HW121269   0.282   6.870   2.949 -1.3682 -3.0010 -0.6436
 3600SOL    HW221270   0.138   6.930   2.994 -0.4852 -1.0721 -0.3572
 3601SOL     OW21271   1.065   0.177   4.487  0.8416 -0.5594 -0.2741
 3601SOL    HW121272   0.978   0.205   4.445  0.7439  1.2325  1.0635
 3601SOL    HW221273   1.083   0.081   4.466  0.3767  0.0347 -3.7106
 3602SOL     OW21274   6.412   7.701   2.636 -0.2011 -0.4070 -0.8201
 3602SOL    HW121275   6.380   7.622   2.583 -1.9816 -0.3837  0.1794
 3602SOL    HW221276   6.495   7.676   2.685 -0.6478 -1.6258 -0.6576
 3603SOL     OW21277   3.511   6.957   2.362 -0.0827 -0.3037  0.6455
 3603SOL    HW121278   3.471   6.968   2.453  0.7563 -1.2977  1.1481
 3603SOL    HW221279   3.488   6.867   2.326 -0.8293  0.2764 -0.3445
 3604SOL     OW21280   4.613   1.349   3.662  0.8046  0.2841 -0.2463
 3604SOL    HW121281   4.589   1.400   3.579  2.0001 -0.6007 -1.1444
 3604SOL    HW221282   4.600   1.408   3.742 -2.5469  0.4695 -0.8219
 3605SOL     OW21283   0.949   0.790   4.316  0.1638  0.0037  0.2961
 3605SOL    HW121284   1.048   0.793   4.300  0.0828 -1.4783 -0.6578
 3605SOL    HW221285   0.906   0.732   4.246 -1.1878 -0.5654  1.5617
 3606SOL     OW21286   0.470   9.366   1.593 -0.1071 -0.3180 -0.4425
 3606SOL    HW121287   0.436   9.457   1.618  1.2111  0.0272  0.1594
 3606SOL    HW221288   0.563   9.355   1.629 -0.1069 -1.7504 -0.8741
 3607SOL     OW21289   8.219   9.858   3.358 -0.0918  0.0652 -0.5056
 3607SOL    HW121290   8.245   9.839   3.263  1.3394  0.4238 -0.2035
 3607SOL    HW221291   8.278   9.931   3.394 -0.3520 -0.3595  0.7852
 3608SOL     OW21292   3.826   8.035   2.577  0.0544 -0.2499  0.6189
 3608SOL    HW121293   3.833   8.014   2.675  0.0186 -1.1798  0.4304
 3608SOL    HW221294   3.917   8.055   2.541 -0.0662  1.1126  1.0592
 3609SOL     OW21295   3.775   1.004   4.685  0.3936  0.0427 -0.4900
 3609SOL    HW121296   3.808   0.970   4.773 -1.3456 -0.1665  0.0913
 3609SOL    HW221297   3.840   1.071   4.649  0.6126  0.8990  1.4477
 3610SOL     OW21298   8.882   9.355   3.201  0.0879  0.0219 -0.2586
 3610SOL    HW121299   8.960   9.299   3.227 -0.3197 -0.5129 -0.1884
 3610SOL    HW221300   8.824   9.305   3.137 -1.4598 -0.5146  1.5106
 3611SOL     OW21301   5.714   9.252   1.494 -0.1628  0.1401 -0.3765
 3611SOL    HW121302   5.628   9.253   1.443 -1.1177 -2.0293  1.1162
 3611SOL    HW221303   5.736   9.345   1.522 -2.6446  0.6191  0.1719
 3612SOL     OW21304   3.533   9.995   2.124  0.0423 -0.1244 -0.3314
 3612SOL    HW121305   3.586   9.935   2.183  1.8210  1.8545  0.1366
 3612SOL    HW221306   3.580  10.083   2.114 -2.6290  1.3328 -0.7320
 3613SOL     OW21307   9.163   4.928   0.743  0.1162 -0.1338 -0.1982
 3613SOL    HW121308   9.202   4.893   0.828  1.2179 -0.9112 -1.0110
 3613SOL    HW221309   9.083   4.984   0.764  0.4689 -0.1860  1.3570
 3614SOL     OW21310   7.644   9.997   0.636 -0.2513  0.6180 -0.3504
 3614SOL    HW121311   7.554   9.961   0.661  0.8830 -2.1226 -0.0958
 3614SOL    HW221312   7.638  10.040   0.546 -1.7953  0.3190 -0.4094
 3615SOL     OW21313   3.164   1.320   3.571 -0.0057  0.3993 -0.5873
 3615SOL    HW121314   3.245   1.346   3.625  0.8632 -3.3380  0.0626
 3615SOL    HW221315   3.184   1.332   3.474  1.2372 -0.1231 -0.4147
 3616SOL     OW21316   9.917   8.874   0.281  0.2422  0.3337 -0.1242
 3616SOL    HW121317   9.925   8.913   0.373  0.4910 -0.2699  0.1092
 3616SOL    HW221318   9.831   8.904   0.240 -0.3056 -0.1551  0.6621
 3617SOL     OW21319   2.267   3.392   0.410 -0.6213  0.4371  0.2701
 3617SOL    HW121320   2.191   3.430   0.463 -0.3428 -1.3991  2.0677
 3617SOL    HW221321   2.246   3.298   0.384  0.2044  0.5822 -0.9962
 3618SOL     OW21322   2.056   1.313   1.678 -0.4652 -0.1654  0.5063
 3618SOL    HW121323   2.087   1.355   1.763 -1.4779  0.0133  0.8002
 3618SOL    HW221324   2.035   1.384   1.611  0.1910 -0.3006  0.1517
 3619SOL     OW21325   2.465   8.754   0.950  0.3806  0.2374 -0.6125
 3619SOL    HW121326   2.445   8.804   1.034  1.5671 -0.5218  0.1217
 3619SOL    HW221327   2.473   8.657   0.970 -1.0462 -0.1676 -1.8956
 3620SOL     OW21328   0.181   7.270   4.234  0.5425 -0.1655  0.2923
 3620SOL    HW121329   0.257   7.330   4.207  0.7407 -0.0549  1.1081
 3620SOL    HW221330   0.138   7.234   4.151  0.7066  0.7388 -0.1990
 3621SOL     OW21331   3.323   4.608   2.788  0.4624  0.7105 -0.3306
 3621SOL    HW121332   3.282   4.680   2.843  1.3957  1.0622 -0.0897
 3621SOL    HW221333   3.352   4.645   2.700 -1.5582  0.0267 -1.3231
 3622SOL     OW21334   4.373   8.726   1.451  0.1933 -0.0302  0.4774
 3622SOL    HW121335   4.313   8.672   1.392  1.7715 -0.2917 -0.9490
 3622SOL    HW221336   4.446   8.666   1.487 -0.7283  0.1285  2.7061
 3623SOL     OW21337   2.769   6.278   1.004 -0.3431  0.1708 -0.2489
 3623SOL    HW121338   2.805   6.203   1.059  0.3819 -0.1053 -1.0945
 3623SOL    HW221339   2.813   6.363   1.032  0.2899 -0.0247 -0.6441
 3624SOL     OW21340   3.922   0.923   0.124  0.5618 -0.2581 -0.1126
 3624SOL    HW121341   3.944   0.927   0.222  2.9855  0.4496 -0.6468
 3624SOL    HW221342   3.986   0.862   0.078  0.7714  1.0330 -1.5746
 3625SOL     OW21343   3.469   9.539   3.332 -0.5583 -0.1943  0.3588
 3625SOL    HW121344   3.422   9.534   3.244  0.3873  1.2973 -0.2447
 3625SOL    HW221345   3.496   9.447   3.361  1.4739 -0.4707 -2.2107
 3626SOL     OW21346   1.125   9.873   0.440  0.0613  0.2396 -0.5923
 3626SOL    HW121347   1.210   9.821   0.454 -0.2689 -0.9698 -2.8728
 3626SOL    HW221348   1.148   9.970   0.428  1.0481  0.0269 -0.5331
 3627SOL     OW21349   1.875   5.175   2.454 -0.0557  0.3751 -0.0147
 3627SOL    HW121350   1.827   5.124   2.383 -0.8065 -0.5746  1.1507
 3627SOL    HW221351   1.910   5.260   2.416 -0.4857 -0.0969 -1.5078
 3628SOL     OW21352   9.247   7.662   0.618 -0.7518 -0.2224  0.1865
 3628SOL    HW121353   9.175   7.688   0.554  2.0797  2.4041 -2.1040
 3628SOL    HW221354   9.264   7.737   0.682  1.3694  0.1159 -0.7117
 3629SOL     OW21355   2.836   0.558   4.075 -0.0537 -0.1394  0.2973
 3629SOL    HW121356   2.775   0.589   4.148 -0.8749 -0.6760 -0.1545
 3629SOL    HW221357   2.819   0.461   4.056 -0.9632  0.4038 -1.7075
 3630SOL     OW21358   1.028   9.720   4.487  0.5123  0.5508 -0.6768
 3630SOL    HW121359   0.956   9.763   4.541  1.6923  0.7162  0.7956
 3630SOL    HW221360   0.987   9.662   4.417 -1.0524  1.3304 -0.4302
 3631SOL     OW21361   6.559   7.649   1.858  0.3930  0.3997  0.7125
 3631SOL    HW121362   6.570   7.741   1.822  0.8363 -0.2163 -0.7509
 3631SOL    HW221363   6.603   7.643   1.948 -0.0951  1.7408  1.0612
 3632SOL     OW21364   0.855   8.640   3.822  0.1644 -0.1421 -0.6352
 3632SOL    HW121365   0.885   8.732   3.800  0.3274 -0.2604 -0.9083
 3632SOL    HW221366   0.779   8.644   3.888  2.1856  0.1243  1.7544
 3633SOL     OW21367   0.185   4.994   2.520  0.6039  0.2604  0.2076
 3633SOL    HW121368   0.107   5.029   2.573 -0.1140 -0.2197 -0.5119
 3633SOL    HW221369   0.232   5.070   2.475 -0.5529  0.3959 -0.8140
 3634SOL     OW21370   2.728   1.804   0.522  0.2774 -0.5395  0.3401
 3634SOL    HW121371   2.817   1.759   0.514  0.3912 -0.5930  1.7951
 3634SOL    HW221372   2.721   1.849   0.610  0.1287  2.3029 -1.0670
 3635SOL     OW21373   0.115   8.444   0.322 -0.3835  0.1284  0.2619
 3635SOL    HW121374   0.154   8.421   0.412 -0.2676 -0.2829  0.1092
 3635SOL    HW221375   0.165   8.521   0.284 -0.0598 -0.0606  0.3013
 3636SOL     OW21376   2.520   7.875   0.981 -0.6587  0.5479  0.0153
 3636SOL    HW121377   2.534   7.849   0.886 -1.2819  4.2078 -1.1620
 3636SOL    HW221378   2.604   7.917   1.016 -0.6743 -0.1205  0.8729
 3637SOL     OW21379   2.128   5.563   0.971 -0.3927 -0.1983 -0.6108
 3637SOL    HW121380   2.196   5.620   1.017 -0.7035  0.0729 -0.4876
 3637SOL    HW221381   2.159   5.542   0.878 -0.4523  0.4861 -0.7886
 3638SOL     OW21382   1.057   9.885   2.179  0.1227  0.3886  0.2684
 3638SOL    HW121383   1.154   9.902   2.165 -0.0744  0.2780 -1.2975
 3638SOL    HW221384   1.008   9.972   2.184 -0.1380  0.4314 -2.2970
 3639SOL     OW21385   3.102   0.845   1.330  0.1415 -0.0741 -0.1381
 3639SOL    HW121386   3.149   0.928   1.300 -0.4429  0.1113 -0.5562
 3639SOL    HW221387   3.153   0.765   1.301  0.0143  0.1189 -0.9000
 3640SOL     OW21388   5.723   9.486   1.637  0.2907  0.1037 -0.0448
 3640SOL    HW121389   5.748   9.502   1.733  1.0143  0.2846 -0.2576
 3640SOL    HW221390   5.641   9.539   1.615  1.0378  1.3356  0.0457
 3641SOL     OW21391   3.230   4.362   2.651  0.4902 -0.1437  0.4058
 3641SOL    HW121392   3.219   4.391   2.555  1.1793 -1.0094  0.0632
 3641SOL    HW221393   3.294   4.424   2.697  0.7166 -0.1532  0.1067
 3642SOL     OW21394   8.930   8.265   2.074 -0.1575 -0.4537  0.0338
 3642SOL    HW121395   8.890   8.286   2.163  0.9020 -0.2786  0.4735
 3642SOL    HW221396   8.885   8.184   2.036 -0.5794 -0.5590  0.7489
 3643SOL     OW21397   5.131   8.973   2.726  0.3233 -0.1514  0.4468
 3643SOL    HW121398   5.140   8.876   2.702  0.4331 -0.4479  1.6284
 3643SOL    HW221399   5.209   8.999   2.783  0.0594  0.5246  0.4927
 3644SOL     OW21400   0.838   8.864   4.026 -0.3396  0.0710  0.1317
 3644SOL    HW121401   0.850   8.921   4.107  1.7551 -0.0547 -0.0799
 3644SOL    HW221402   0.869   8.771   4.046  0.4612  0.1132 -0.8925
 3645SOL     OW21403   3.523   5.264   2.905 -0.0422  0.4109 -0.1392
 3645SOL    HW121404   3.563   5.241   2.994  1.7107 -0.2259 -1.0680
 3645SOL    HW221405   3.584   5.328   2.857  0.0515 -0.8220 -1.7081
 3646SOL     OW21406   3.915   1.882   0.416 -0.5874 -0.6156 -0.3338
 3646SOL    HW121407   3.938   1.948   0.345 -5.1764  1.2049 -0.2942
 3646SOL    HW221408   3.943   1.917   0.505 -0.6036  0.0400 -0.5899
 3647SOL     OW21409   6.515   0.132   3.824 -0.7208 -0.0867  0.1859
 3647SOL    HW121410   6.471   0.135   3.914  0.7742 -1.3329  0.9830
 3647SOL    HW221411   6.447   0.110   3.754 -2.0772  1.7743  0.8669
 3648SOL     OW21412   4.535   0.285   4.418  0.1321  0.4351  0.5436
 3648SOL    HW121413   4.631   0.260   4.424  0.2794  0.0383 -2.4355
 3648SOL    HW221414   4.526   0.385   4.422  0.3178  0.3657  4.0357
 3649SOL     OW21415   0.373   9.637   3.343 -0.7114  0.2680 -0.4499
 3649SOL    HW121416   0.438   9.570   3.380 -1.1762 -0.6989 -1.3495
 3649SOL    HW221417   0.323   9.681   3.417  1.2413  1.3021  0.2868
 3650SOL     OW21418   2.323   7.339   1.368  0.4116  0.8175  0.1242
 3650SOL    HW121419   2.412   7.329   1.325  0.5341  0.8326  0.3743
 3650SOL    HW221420   2.252   7.308   1.305  0.7824 -1.6208  0.8315
 3651SOL     OW21421   7.993   6.887   1.275  0.3275 -0.4306  0.3067
 3651SOL    HW121422   8.086   6.852   1.286  0.6070 -0.1416 -1.0448
 3651SOL    HW221423   7.960   6.924   1.362  1.3410 -0.8659  0.8754
 3652SOL     OW21424   9.133   0.409   0.796  0.0232 -0.0291  0.1832
 3652SOL    HW121425   9.163   0.464   0.874 -0.0640 -0.6854  0.6926
 3652SOL    HW221426   9.082   0.329   0.830 -3.3816  1.6971 -0.6938
 3653SOL     OW21427   8.409   5.417   2.238  0.0351 -0.5261 -0.0402
 3653SOL    HW121428   8.449   5.485   2.299 -1.2930  0.9433 -0.7686
 3653SOL    HW221429   8.470   5.338   2.232  1.3364  0.3496  1.2640
 3654SOL     OW21430   0.049   0.825   1.400 -0.5356 -0.3454  0.1034
 3654SOL    HW121431   0.050   0.739   1.452 -1.6710 -0.4313 -0.0026
 3654SOL    HW221432   0.127   0.881   1.426 -0.4685 -0.8816  1.0782
 3655SOL     OW21433   2.741   9.338   4.425  0.5240  0.2190 -0.3207
 3655SOL    HW121434   2.741   9.378   4.516 -2.5334 -1.3232  0.4387
 3655SOL    HW221435   2.721   9.408   4.357 -1.2164  0.6496  0.6212
 3656SOL     OW21436   3.749   0.236   3.370 -0.2221  0.4303 -0.7261
 3656SOL    HW121437   3.802   0.175   3.429  0.4728  0.8273 -0.9364
 3656SOL    HW221438   3.732   0.322   3.417 -2.8756 -0.6017  0.3354
 3657SOL     OW21439   3.745   4.216   2.077 -0.0360  0.2728  0.5708
 3657SOL    HW121440   3.661   4.212   2.023  0.0600  0.6201  0.3982
 3657SOL    HW221441   3.802   4.292   2.046  0.6595 -0.3776  0.2271
 3658SOL     OW21442   8.284   8.825   3.588  0.4051 -0.2131 -0.0479
 3658SOL    HW121443   8.267   8.846   3.684 -0.7505 -0.3835 -0.2034
 3658SOL    HW221444   8.331   8.737   3.580  1.2148  0.1798  0.3982
 3659SOL     OW21445   0.690   7.981   1.851  0.1859  0.1380 -0.2097
 3659SOL    HW121446   0.607   8.035   1.843  1.0329  1.3490 -0.9988
 3659SOL    HW221447   0.755   8.029   1.910  0.3288 -0.7979  0.4012
 3660SOL     OW21448   9.375   8.033   3.303 -0.4310 -0.1244 -0.2109
 3660SOL    HW121449   9.424   8.118   3.323  0.8667 -1.1153  0.8872
 3660SOL    HW221450   9.317   8.047   3.222 -0.7790  1.9993  0.3612
 3661SOL     OW21451   2.584   0.557   1.370 -0.5047  0.2391  0.7590
 3661SOL    HW121452   2.577   0.458   1.361  0.4857  0.0629  1.7825
 3661SOL    HW221453   2.665   0.580   1.425 -0.8489  1.6009  0.7215
 3662SOL     OW21454   9.930   6.731   2.904  0.9461  0.2533 -1.1378
 3662SOL    HW121455   9.936   6.712   3.002  1.3110 -0.5518 -1.3089
 3662SOL    HW221456   9.952   6.827   2.886 -1.4381  1.0275 -0.1886
 3663SOL     OW21457   3.921   0.765   0.465 -0.3433 -0.4429 -0.1156
 3663SOL    HW121458   3.905   0.689   0.527 -0.1784  0.7466  1.4245
 3663SOL    HW221459   3.837   0.820   0.458 -0.4583 -0.7443 -1.2000
 3664SOL     OW21460   0.036   1.114   1.699  0.0917 -0.3029  0.3167
 3664SOL    HW121461   0.011   1.018   1.704 -0.0437 -0.2232  1.1962
 3664SOL    HW221462  -0.047   1.170   1.695  0.1680 -0.2124 -0.0722
 3665SOL     OW21463   4.522   0.586   3.376  0.4348  0.1070 -0.7107
 3665SOL    HW121464   4.515   0.686   3.372  2.6015  0.2234 -2.3695
 3665SOL    HW221465   4.596   0.561   3.438 -1.3966 -0.5773  1.2893
 3666SOL     OW21466   3.027   4.763   3.814  0.8731  0.4775  0.0441
 3666SOL    HW121467   3.012   4.672   3.853  2.6469  0.8620  1.6943
 3666SOL    HW221468   3.044   4.754   3.716 -2.5660 -0.6054 -0.5360
 3667SOL     OW21469   1.414   3.431   2.980  0.4086  0.2448 -0.4650
 3667SOL    HW121470   1.368   3.390   3.058  0.8604 -2.1741 -1.4120
 3667SOL    HW221471   1.346   3.469   2.917 -0.0766 -0.0088 -0.0935
 3668SOL     OW21472   7.215   7.169   3.377 -0.6276  0.4482  0.6351
 3668SOL    HW121473   7.251   7.083   3.414  0.4224 -0.6949 -2.8862
 3668SOL    HW221474   7.120   7.155   3.348 -0.8125  0.8070  1.0615
 3669SOL     OW21475   3.000   8.714   4.351 -0.4877  0.4378  0.4719
 3669SOL    HW121476   3.026   8.729   4.256  0.2304 -0.6388  0.4790
 3669SOL    HW221477   3.071   8.750   4.412 -0.3471  0.0256  0.5588
 3670SOL     OW21478   2.830   8.390   0.769  0.2007  0.1071  0.1453
 3670SOL    HW121479   2.766   8.428   0.704  1.2704  0.2535 -0.8366
 3670SOL    HW221480   2.920   8.381   0.726  0.4458 -1.6232  0.9797
 3671SOL     OW21481   2.866   6.268   1.978 -0.1240 -0.2397  0.4576
 3671SOL    HW121482   2.771   6.293   1.995  0.0300  1.3276 -0.8689
 3671SOL    HW221483   2.924   6.349   1.984  0.6850 -0.6112 -1.8551
 3672SOL     OW21484   0.789   9.800   0.376 -0.1128  0.0544 -0.1233
 3672SOL    HW121485   0.823   9.875   0.319 -0.5150 -0.4679 -1.0685
 3672SOL    HW221486   0.853   9.783   0.450  0.3689  0.8209 -0.3526
 3673SOL     OW21487   4.741   2.516   2.408 -0.3788 -0.0997  0.4551
 3673SOL    HW121488   4.753   2.543   2.503  1.8657 -1.1819  0.5212
 3673SOL    HW221489   4.722   2.418   2.403 -0.6652 -0.0131 -0.2012
 3674SOL     OW21490   7.935   0.190   1.943 -0.1859 -0.2544 -0.2223
 3674SOL    HW121491   7.852   0.134   1.945 -0.4454  0.1500  1.2490
 3674SOL    HW221492   7.913   0.282   1.977  0.5722  0.2775 -1.1348
 3675SOL     OW21493   8.837   9.619   0.511 -0.3072  0.5878  0.0962
 3675SOL    HW121494   8.928   9.632   0.471 -0.1876 -1.1377 -0.2515
 3675SOL    HW221495   8.807   9.704   0.554  1.4105  1.2211  0.0966
 3676SOL     OW21496   9.799   5.890   3.198  0.9176 -0.6207  0.5765
 3676SOL    HW121497   9.703   5.913   3.212  0.3927 -2.3649 -0.0383
 3676SOL    HW221498   9.857   5.960   3.241 -0.6046  1.1706 -0.2440
 3677SOL     OW21499   9.678   8.591   1.355 -0.4547 -0.2595  0.3493
 3677SOL    HW121500   9.656   8.686   1.377  0.7846 -0.1471  1.1465
 3677SOL    HW221501   9.771   8.585   1.320 -0.9102 -1.0365 -0.7444
 3678SOL     OW21502   0.581   7.511   2.573 -0.2238 -0.0974  0.1838
 3678SOL    HW121503   0.669   7.557   2.574 -0.3252  0.1412 -0.8939
 3678SOL    HW221504   0.548   7.499   2.667 -0.9107  3.4012  0.4632
 3679SOL     OW21505   1.860   7.777   4.525  0.4235  0.2208  0.2047
 3679SOL    HW121506   1.921   7.853   4.547 -1.1495  1.7601 -0.6050
 3679SOL    HW221507   1.808   7.751   4.606 -0.9108  1.7611 -0.1371
 3680SOL     OW21508   1.005   4.436   2.176 -0.1937 -0.4290  0.5417
 3680SOL    HW121509   1.049   4.365   2.121 -1.2882 -0.9018  0.2429
 3680SOL    HW221510   0.921   4.399   2.216 -1.0784  0.8476 -0.0669
 3681SOL     OW21511   2.543   1.078   1.670  0.0262  0.0185 -0.3730
 3681SOL    HW121512   2.628   1.027   1.666 -1.0391 -2.2153  2.9694
 3681SOL    HW221513   2.479   1.041   1.603 -0.0887 -1.9049  0.7455
 3682SOL     OW21514   1.727   3.269   3.816 -0.3068 -0.1581  0.2644
 3682SOL    HW121515   1.688   3.296   3.904  0.0330 -1.5424  0.8462
 3682SOL    HW221516   1.810   3.321   3.798 -2.2049  2.6699 -0.8744
 3683SOL     OW21517   1.564   0.421   0.868 -0.2351  0.4449  0.1548
 3683SOL    HW121518   1.465   0.413   0.882 -0.0314  0.4354  1.6168
 3683SOL    HW221519   1.581   0.488   0.796 -1.3712 -1.0203 -1.5286
 3684SOL     OW21520   5.476   6.847   3.060 -0.5759 -0.0365 -0.0955
 3684SOL    HW121521   5.427   6.764   3.088  1.5102 -0.5943  2.1175
 3684SOL    HW221522   5.541   6.825   2.987 -0.3865 -0.2536  0.1377
 3685SOL     OW21523   8.597   6.981   2.946  0.0258 -0.1940  0.0612
 3685SOL    HW121524   8.610   6.923   3.026 -0.4793 -0.9293 -0.3829
 3685SOL    HW221525   8.502   7.011   2.941 -0.2902 -1.3144 -1.0209
 3686SOL     OW21526   3.268   3.095   2.957  0.9553 -0.6060 -0.0684
 3686SOL    HW121527   3.269   3.100   3.057 -0.4105  1.3986 -0.1300
 3686SOL    HW221528   3.339   3.156   2.920 -0.9300  1.4518 -0.3741
 3687SOL     OW21529   0.053   4.778   2.881 -0.4036  0.6772  0.0160
 3687SOL    HW121530   0.004   4.703   2.925 -0.7743  1.4029  0.8565
 3687SOL    HW221531   0.147   4.750   2.861 -0.4971  0.0419  0.4554
 3688SOL     OW21532   1.662   9.203   4.173 -0.3317 -0.4050  0.0625
 3688SOL    HW121533   1.703   9.243   4.255 -0.6425  1.4566 -0.6505
 3688SOL    HW221534   1.615   9.275   4.121  2.3394 -0.9294 -3.2927
 3689SOL     OW21535   3.158   0.473   4.322  0.2666  0.1333 -0.4207
 3689SOL    HW121536   3.117   0.550   4.372 -1.0162 -0.9050  0.1519
 3689SOL    HW221537   3.242   0.444   4.369  0.1383  0.4509  0.0120
 3690SOL     OW21538   5.344   7.933   3.527  0.1337 -0.0394  0.2157
 3690SOL    HW121539   5.300   7.940   3.616  1.4343  0.3666  0.8246
 3690SOL    HW221540   5.287   7.876   3.467 -0.6673 -0.4384  1.3334
 3691SOL     OW21541   8.605   6.725   2.086 -0.4415 -0.4538 -0.1237
 3691SOL    HW121542   8.511   6.746   2.058 -0.1929  0.3108 -0.3731
 3691SOL    HW221543   8.604   6.641   2.142 -1.4358  0.2201  0.9095
 3692SOL     OW21544   0.088   4.843   2.087  0.3988  0.4446 -0.0510
 3692SOL    HW121545   0.153   4.869   2.158  0.0457 -3.7340  1.9528
 3692SOL    HW221546  -0.005   4.865   2.118  0.4049  0.7490 -0.2449
 3693SOL     OW21547   0.040   7.210   3.003 -0.0338  0.2138  0.0064
 3693SOL    HW121548  -0.008   7.296   2.989  0.8651  0.8775  0.9327
 3693SOL    HW221549   0.100   7.218   3.083  0.6009 -1.0363 -0.3351
 3694SOL     OW21550   9.522   7.759   2.010  1.0589  0.4177 -0.4218
 3694SOL    HW121551   9.595   7.755   1.942  2.7011  2.0710  1.1636
 3694SOL    HW221552   9.472   7.845   2.000  1.7227  0.9729  0.8110
 3695SOL     OW21553   8.279   7.213   4.689  0.7197  0.9781 -0.4955
 3695SOL    HW121554   8.202   7.210   4.625  1.4935 -0.7315 -1.3850
 3695SOL    HW221555   8.257   7.159   4.770  1.1026  0.2379 -0.8854
 3696SOL     OW21556   2.568   0.112   1.715  0.4052  0.6720 -0.5704
 3696SOL    HW121557   2.657   0.079   1.686  0.4101 -0.1611  0.3714
 3696SOL    HW221558   2.579   0.172   1.794 -0.1460 -2.4961  2.0259
 3697SOL     OW21559   6.883   7.484   3.197  0.0875 -0.8893 -0.0915
 3697SOL    HW121560   6.784   7.471   3.210  0.0869 -0.7895  0.0055
 3697SOL    HW221561   6.927   7.395   3.185  0.1310 -1.0119  0.8989
 3698SOL     OW21562   1.194   7.492   2.835  0.0865  0.5869  0.0054
 3698SOL    HW121563   1.281   7.528   2.801  1.0261 -2.4844 -1.0726
 3698SOL    HW221564   1.201   7.475   2.933  0.4686  0.9686  0.0482
 3699SOL     OW21565   1.096   9.365   1.143 -0.1466  0.3044  0.0216
 3699SOL    HW121566   1.012   9.311   1.146  1.6188 -2.4281  2.8931
 3699SOL    HW221567   1.164   9.318   1.087  0.9336  0.2377  1.3711
 3700SOL     OW21568   1.784   0.758   1.258 -0.1159  1.1077  0.0937
 3700SOL    HW121569   1.721   0.750   1.180 -0.7480 -0.7530  0.7564
 3700SOL    HW221570   1.867   0.705   1.238 -0.8714 -0.5426  1.2340
 3701SOL     OW21571   2.199   9.350   2.901  0.4279 -0.2978  0.0915
 3701SOL    HW121572   2.223   9.443   2.930  0.3259 -0.1665 -0.2469
 3701SOL    HW221573   2.168   9.352   2.806 -0.8551 -0.4718  0.4934
 3702SOL     OW21574   2.615   1.278   4.410 -0.1996 -0.3244  0.3144
 3702SOL    HW121575   2.640   1.371   4.438 -0.1783 -0.4932  0.8682
 3702SOL    HW221576   2.577   1.280   4.318  2.5825 -0.1337 -0.8996
 3703SOL     OW21577   0.929   5.004   0.990 -0.1632 -0.6598 -0.3217
 3703SOL    HW121578   0.877   4.934   1.039 -1.3970  0.4599 -0.0057
 3703SOL    HW221579   1.012   5.028   1.042 -0.8785 -0.3011  0.6639
 3704SOL     OW21580   9.739   0.134   4.668  0.4552 -0.4879  0.5755
 3704SOL    HW121581   9.787   0.219   4.687 -0.1982 -0.2174  1.0239
 3704SOL    HW221582   9.641   0.152   4.659  0.6084 -0.7343 -2.1653
 3705SOL     OW21583   9.598   8.817   1.900  0.0728 -0.4067  0.3569
 3705SOL    HW121584   9.682   8.789   1.946 -0.2007 -2.6974 -0.5198
 3705SOL    HW221585   9.603   8.915   1.878  1.6129 -0.0426  2.1746
 3706SOL     OW21586   5.622   8.851   3.478 -0.2175  0.1773 -0.0948
 3706SOL    HW121587   5.570   8.908   3.542  0.1875  0.8627 -0.3720
 3706SOL    HW221588   5.712   8.892   3.463  0.2779 -0.8149  0.1128
 3707SOL     OW21589   8.815   6.469   3.812  0.7857 -0.0874  0.7481
 3707SOL    HW121590   8.912   6.452   3.798  0.5070  0.3201 -1.7974
 3707SOL    HW221591   8.761   6.410   3.751 -0.4198  3.0046 -1.2868
 3708SOL     OW21592   7.943   6.992   0.608  0.3829 -0.3382  0.0733
 3708SOL    HW121593   8.027   7.019   0.655  1.0463 -0.6597 -0.9337
 3708SOL    HW221594   7.938   7.037   0.519  0.8231 -2.4454 -1.0333
 3709SOL     OW21595   3.518   8.248   4.190  0.4581  0.1521  0.1809
 3709SOL    HW121596   3.453   8.174   4.211  1.8858 -1.0519  0.4557
 3709SOL    HW221597   3.543   8.244   4.093  0.5231  0.2907  0.1919
 3710SOL     OW21598   4.520   7.768   1.627 -0.1661  0.1967 -0.3183
 3710SOL    HW121599   4.427   7.735   1.643  0.2536 -1.4300 -1.1161
 3710SOL    HW221600   4.550   7.739   1.536  0.8225  1.4219 -0.3925
 3711SOL     OW21601   1.160   6.477   3.134 -0.1213  0.3437 -0.2912
 3711SOL    HW121602   1.126   6.411   3.067 -0.2051  0.7652 -0.6696
 3711SOL    HW221603   1.255   6.456   3.158 -0.0547  0.2604 -0.6321
 3712SOL     OW21604   2.823   2.508   2.430 -0.1227 -0.1978 -0.4790
 3712SOL    HW121605   2.908   2.473   2.470  0.2180 -0.1967 -1.1893
 3712SOL    HW221606   2.785   2.580   2.489  1.3934  1.1661 -1.1199
 3713SOL     OW21607   2.339   5.313   1.817 -0.3323  0.0781  0.1759
 3713SOL    HW121608   2.428   5.345   1.786 -0.3921  0.8352  0.7587
 3713SOL    HW221609   2.335   5.317   1.917 -0.7519 -0.6637  0.1904
 3714SOL     OW21610   8.180   6.996   2.364 -0.5635  0.4155  0.0421
 3714SOL    HW121611   8.165   7.093   2.343  1.2203  0.6586 -0.1476
 3714SOL    HW221612   8.195   6.946   2.278 -1.6874 -0.0835  0.1220
 3715SOL     OW21613   1.164   9.549   1.632  0.4274 -0.0668 -0.3734
 3715SOL    HW121614   1.118   9.502   1.707  0.5899  0.3404 -0.0175
 3715SOL    HW221615   1.259   9.519   1.627  0.0623 -1.0916 -1.2629
 3716SOL     OW21616   1.028   8.167   1.126  0.5263 -0.0721 -0.2650
 3716SOL    HW121617   1.085   8.239   1.086 -0.4309 -0.2270 -1.9877
 3716SOL    HW221618   0.987   8.200   1.211 -1.5526  2.2278 -2.0639
 3717SOL     OW21619   2.320   1.585   4.637  0.2540 -0.3283 -0.5042
 3717SOL    HW121620   2.251   1.542   4.697  0.1571 -1.7064 -1.5872
 3717SOL    HW221621   2.275   1.651   4.577  0.3849  1.2426  1.0904
 3718SOL     OW21622   8.341   5.181   2.017 -0.1725 -0.9716 -0.2303
 3718SOL    HW121623   8.304   5.273   2.032 -0.6791 -1.2579  0.3300
 3718SOL    HW221624   8.423   5.169   2.073 -1.5521 -1.7259  1.7144
 3719SOL     OW21625   1.990   8.341   0.426 -0.5445 -0.7937  0.2795
 3719SOL    HW121626   2.067   8.277   0.434  0.3289  0.4233  2.0564
 3719SOL    HW221627   2.004   8.401   0.347  0.6213 -0.2428  0.8897
 3720SOL     OW21628   2.340   4.500   4.589  0.7398 -0.0976  0.3456
 3720SOL    HW121629   2.330   4.421   4.650  1.8054  1.0230  1.9938
 3720SOL    HW221630   2.387   4.472   4.506 -2.5532 -2.1134 -0.9266
 3721SOL     OW21631   1.624   8.769   1.277  0.1276 -0.4142 -0.3787
 3721SOL    HW121632   1.530   8.746   1.255 -0.4590  0.4527  1.1311
 3721SOL    HW221633   1.627   8.860   1.319  1.6961 -0.2302 -0.8390
 3722SOL     OW21634   4.115   7.719   4.299  0.0011  0.0793  0.4489
 3722SOL    HW121635   4.033   7.666   4.321  0.0832 -0.1128  0.3030
 3722SOL    HW221636   4.176   7.722   4.378 -0.1047  0.1417  0.5271
 3723SOL     OW21637   4.125   7.277   1.456  0.0249 -0.0728  0.7743
 3723SOL    HW121638   4.188   7.209   1.494 -0.2219  0.1467  1.5990
 3723SOL    HW221639   4.177   7.344   1.403  0.3901 -0.3569  0.7715
 3724SOL     OW21640   0.729   4.529   0.927 -0.2427  0.3817  0.2936
 3724SOL    HW121641   0.771   4.451   0.881  0.5847  1.8113 -1.4041
 3724SOL    HW221642   0.676   4.582   0.862 -0.0158  1.7832  1.2297
 3725SOL     OW21643   5.709   7.558   2.291 -0.1997 -0.0766  0.2000
 3725SOL    HW121644   5.696   7.654   2.268  3.5013 -0.2041 -2.9878
 3725SOL    HW221645   5.638   7.503   2.246  0.1582  0.8266 -1.5196
 3726SOL     OW21646   5.968   8.091   2.346 -0.3357  0.2511 -0.4852
 3726SOL    HW121647   5.948   8.140   2.431 -3.2551  0.8295 -1.4486
 3726SOL    HW221648   6.042   8.026   2.362  1.1928  2.4447  1.7206
 3727SOL     OW21649   2.072   8.400   4.313  0.2512  0.0176  0.5223
 3727SOL    HW121650   1.973   8.399   4.300  0.0268 -0.6726  2.2083
 3727SOL    HW221651   2.108   8.488   4.281 -1.1486  1.0448  1.6889
 3728SOL     OW21652   9.775   8.424   1.599 -0.6278 -0.0424 -0.2225
 3728SOL    HW121653   9.679   8.399   1.612 -0.7050 -0.6251 -1.7999
 3728SOL    HW221654   9.824   8.347   1.556 -0.8355  2.3339 -5.0351
 3729SOL     OW21655   1.942   1.771   2.027 -0.4908  0.4458  0.0279
 3729SOL    HW121656   1.893   1.719   2.097 -0.9419 -1.2906 -1.5457
 3729SOL    HW221657   1.876   1.819   1.969 -0.2868 -0.6746 -1.1539
 3730SOL     OW21658   7.966   7.207   3.881 -0.9057 -0.4282 -0.0467
 3730SOL    HW121659   8.006   7.179   3.969 -0.3522  0.8273  0.1063
 3730SOL    HW221660   7.889   7.269   3.898  0.5210  1.4807 -0.5082
 3731SOL     OW21661   5.468   9.323   1.371  0.1271 -0.2536 -0.3995
 3731SOL    HW121662   5.421   9.399   1.413  0.7247 -0.7183  1.1444
 3731SOL    HW221663   5.415   9.239   1.384  0.8331 -0.5842  0.3762
 3732SOL     OW21664   0.305   0.088   4.337  0.1156 -0.3274 -0.3768
 3732SOL    HW121665   0.298  -0.011   4.346 -0.8733 -0.3376 -1.2698
 3732SOL    HW221666   0.265   0.132   4.418  3.8093 -0.7017  1.7559
 3733SOL     OW21667   3.487   4.107   0.488 -0.4756 -0.0308 -0.1399
 3733SOL    HW121668   3.472   4.131   0.393 -0.4616  0.8417  0.0749
 3733SOL    HW221669   3.511   4.010   0.495  1.1240  0.2628 -1.1826
 3734SOL     OW21670   9.676   5.371   2.415  0.0479  0.6497  0.1763
 3734SOL    HW121671   9.678   5.354   2.513  1.3167 -1.1883 -0.1296
 3734SOL    HW221672   9.764   5.344   2.375 -0.4126  1.4948 -1.4437
 3735SOL     OW21673   2.282   9.055   3.826 -0.6598  0.4428 -0.4378
 3735SOL    HW121674   2.222   9.036   3.748 -0.8042  2.5538 -0.8837
 3735SOL    HW221675   2.287   9.154   3.840 -0.6530  0.0736  2.2634
 3736SOL     OW21676   1.614   3.171   0.024 -0.0963 -0.3822  0.5095
 3736SOL    HW121677   1.537   3.107   0.023  0.1222 -0.6704  1.3547
 3736SOL    HW221678   1.700   3.120   0.014  0.1140 -0.2921  1.7724
 3737SOL     OW21679   3.222   5.856   4.636  0.1977  0.0753  0.0687
 3737SOL    HW121680   3.170   5.789   4.689  0.1181  0.0514 -0.0392
 3737SOL    HW221681   3.290   5.900   4.695  1.0784 -0.9687 -0.1272
 3738SOL     OW21682   3.645   4.573   1.288 -0.3942 -0.1891  0.7353
 3738SOL    HW121683   3.721   4.547   1.229  0.2438  0.3855  1.2897
 3738SOL    HW221684   3.571   4.506   1.279 -0.4325  0.0664 -0.9257
 3739SOL     OW21685   8.490   6.042   1.989 -0.1631  0.9971  0.0678
 3739SOL    HW121686   8.526   5.965   2.043  2.5900  2.1657 -0.0494
 3739SOL    HW221687   8.474   6.012   1.895 -0.3270  0.2383  0.3335
 3740SOL     OW21688   3.420   5.066   1.770  0.5990 -0.6960  0.4040
 3740SOL    HW121689   3.364   5.144   1.799 -0.5517 -1.5259  0.4268
 3740SOL    HW221690   3.437   5.006   1.848  0.8005 -0.8966  0.2074
 3741SOL     OW21691   0.966   8.045   0.754  0.0091 -0.6002 -0.0412
 3741SOL    HW121692   0.937   8.116   0.690  0.9544 -2.1188 -2.2358
 3741SOL    HW221693   1.007   8.087   0.834  3.3434  1.3810 -2.6427
 3742SOL     OW21694   5.003   8.030   2.817  0.2117 -0.1380  0.2841
 3742SOL    HW121695   4.966   8.049   2.909 -0.7552  0.5468 -0.2305
 3742SOL    HW221696   4.946   8.077   2.749  1.5549  0.2189 -0.5952
 3743SOL     OW21697   9.193   6.892   0.297  0.0077 -0.2189 -0.5438
 3743SOL    HW121698   9.142   6.958   0.352 -0.5749 -0.2233 -1.0864
 3743SOL    HW221699   9.132   6.848   0.232  0.6227 -0.5157 -0.9200
 3744SOL     OW21700   9.614   6.360   4.289  0.2924 -0.6243 -0.0507
 3744SOL    HW121701   9.686   6.298   4.321  0.8072  1.0387  2.1997
 3744SOL    HW221702   9.656   6.436   4.238 -0.0222 -0.5284 -0.1662
 3745SOL     OW21703   7.860   9.532   1.198 -0.4761  0.2317  0.1031
 3745SOL    HW121704   7.875   9.630   1.204 -0.3953  0.3427 -1.7286
 3745SOL    HW221705   7.773   9.509   1.242 -1.0154  1.2573 -0.4237
 3746SOL     OW21706   3.405   9.127   4.014 -0.0336  0.6014 -0.1373
 3746SOL    HW121707   3.431   9.215   4.054  0.2154  0.2061  0.5708
 3746SOL    HW221708   3.329   9.141   3.951 -2.1995  0.8876  2.4261
 3747SOL     OW21709   9.306   8.206   2.707 -0.7033  0.2319 -0.3007
 3747SOL    HW121710   9.399   8.229   2.734 -0.5316  1.4555 -1.8603
 3747SOL    HW221711   9.307   8.167   2.614 -1.5480 -1.4739  0.3718
 3748SOL     OW21712   2.667   2.707   2.642  0.4939  0.3606 -0.2310
 3748SOL    HW121713   2.636   2.680   2.733  0.1849  2.1015  0.1910
 3748SOL    HW221714   2.689   2.804   2.641  0.6853  0.3222 -1.9739
 3749SOL     OW21715   1.501   2.464   2.688 -0.5689 -0.6900 -0.2103
 3749SOL    HW121716   1.516   2.461   2.787 -2.8759 -1.2340  0.1664
 3749SOL    HW221717   1.506   2.371   2.651 -0.1502 -0.5382 -0.5392
 3750SOL     OW21718   1.758   6.059   1.095 -0.1180  0.0861 -0.6263
 3750SOL    HW121719   1.772   6.158   1.101 -0.1105  0.2125 -2.5097
 3750SOL    HW221720   1.798   6.015   1.176  2.3586  1.3517 -1.1205
 3751SOL     OW21721   1.586   3.328   1.109 -0.2108 -0.0385 -0.3464
 3751SOL    HW121722   1.643   3.253   1.144  1.0284  1.2773  0.5013
 3751SOL    HW221723   1.499   3.329   1.157 -0.5095 -1.3208 -0.8133
 3752SOL     OW21724   3.378   9.512   1.039  0.5434 -0.5343  0.0601
 3752SOL    HW121725   3.307   9.484   0.975 -0.4260  1.8379  0.0167
 3752SOL    HW221726   3.455   9.551   0.989 -0.0062  0.8710  0.2776
 3753SOL     OW21727   0.837   0.385   3.981 -0.1823  0.2304 -0.3851
 3753SOL    HW121728   0.927   0.358   4.017 -0.4783 -0.1684  0.0693
 3753SOL    HW221729   0.768   0.374   4.053 -0.6061  0.4638 -0.7551
 3754SOL     OW21730   2.327   4.281   1.206  0.0615  0.3174  0.6280
 3754SOL    HW121731   2.270   4.278   1.288  0.0781 -0.9849  0.5956
 3754SOL    HW221732   2.423   4.281   1.232  0.0691 -0.4016  0.6003
 3755SOL     OW21733   7.306   9.215   2.042 -0.2827  0.0533  0.1665
 3755SOL    HW121734   7.225   9.166   2.076 -1.4016  1.1233 -0.9076
 3755SOL    HW221735   7.349   9.266   2.117  0.3038 -1.7256  1.0762
 3756SOL     OW21736   8.045   9.565   3.888 -0.2228  0.0757  0.1790
 3756SOL    HW121737   8.108   9.582   3.964  1.8256  0.2866 -1.5186
 3756SOL    HW221738   8.037   9.466   3.872 -2.1744 -0.0845  1.8562
 3757SOL     OW21739   2.501   6.462   4.365 -0.1930  0.3967  0.4238
 3757SOL    HW121740   2.564   6.398   4.321 -1.7582 -0.7458 -0.2338
 3757SOL    HW221741   2.552   6.531   4.416  1.5422 -0.9347  0.5063
 3758SOL     OW21742   1.541   4.871   2.698  0.3286  0.3936  0.4248
 3758SOL    HW121743   1.630   4.916   2.698 -0.1359  1.3429  0.3268
 3758SOL    HW221744   1.543   4.792   2.759  1.3962  0.0771 -0.0067
 3759SOL     OW21745   0.434   3.969   3.019  0.4640  0.0688  0.1017
 3759SOL    HW121746   0.494   4.033   2.972  1.1206 -0.0232  0.8027
 3759SOL    HW221747   0.458   3.965   3.116  0.3310 -1.1119  0.0996
 3760SOL     OW21748   3.927   8.034   2.069  0.2972  0.0144  0.2060
 3760SOL    HW121749   4.011   8.024   2.124  0.2381 -1.0082  0.1279
 3760SOL    HW221750   3.931   7.971   1.992 -0.1020  0.6922 -0.3650
 3761SOL     OW21751   2.267   2.678   2.439 -0.1021  0.4383 -0.1166
 3761SOL    HW121752   2.308   2.600   2.486  0.0229  0.5834  0.0157
 3761SOL    HW221753   2.325   2.758   2.450 -0.0339  0.4570 -0.5810
 3762SOL     OW21754   9.628   4.526   0.432 -0.2837  0.1571  0.0386
 3762SOL    HW121755   9.630   4.617   0.473 -0.7431  0.2004 -0.0277
 3762SOL    HW221756   9.533   4.501   0.410 -0.2283 -0.5863  0.6048
 3763SOL     OW21757   1.678   6.884   3.618  0.5189  0.4760 -0.1362
 3763SOL    HW121758   1.633   6.932   3.693  0.7167 -1.2270  1.0846
 3763SOL    HW221759   1.641   6.917   3.531 -0.9974  1.1720  0.7558
 3764SOL     OW21760   4.997   8.008   3.409  0.2632  0.0442 -0.1285
 3764SOL    HW121761   5.082   8.020   3.358  0.3930 -0.5817 -0.0637
 3764SOL    HW221762   4.958   7.919   3.389  0.5408 -0.3909  1.1809
 3765SOL     OW21763   0.001   2.959   1.792  0.2878 -0.0858 -0.0331
 3765SOL    HW121764   0.083   2.983   1.740  0.1421 -1.2327 -0.7972
 3765SOL    HW221765  -0.079   3.003   1.752  0.2761 -0.4012 -0.3527
 3766SOL     OW21766   1.087   0.974   2.728 -0.2604 -0.0714 -0.1184
 3766SOL    HW121767   1.081   1.046   2.660 -0.5378 -2.2879 -2.5052
 3766SOL    HW221768   1.180   0.939   2.732 -0.3716 -0.3355  0.2141
 3767SOL     OW21769   4.033   9.097   1.665  0.3021 -0.4256 -0.1360
 3767SOL    HW121770   4.120   9.049   1.654  1.4233  1.1122  1.6113
 3767SOL    HW221771   4.037   9.184   1.617  0.3109  0.3298  1.2082
 3768SOL     OW21772   3.693   3.114   0.812  0.3289  0.2117  0.2012
 3768SOL    HW121773   3.722   3.083   0.721 -0.9774 -0.8361  0.1105
 3768SOL    HW221774   3.748   3.192   0.840  0.3126  0.9960 -1.8003
 3769SOL     OW21775   3.033   9.237   0.671 -0.2864  0.7112 -0.1080
 3769SOL    HW121776   3.047   9.138   0.663 -2.4866  0.4182 -0.5226
 3769SOL    HW221777   2.959   9.266   0.611 -0.1242  2.5227  0.5240
 3770SOL     OW21778   8.033   9.074   0.469 -0.3276 -0.2877 -0.2736
 3770SOL    HW121779   8.055   9.164   0.508 -2.4958  0.8349 -1.5321
 3770SOL    HW221780   7.935   9.058   0.475 -0.1015 -2.1069 -1.0711
 3771SOL     OW21781   1.265   0.675   1.046  0.4260  0.4449  0.0532
 3771SOL    HW121782   1.248   0.643   1.139  0.7503  0.6683  0.1950
 3771SOL    HW221783   1.220   0.615   0.980  0.3067  0.2091  0.3504
 3772SOL     OW21784   3.173   8.524   2.850  0.2015  0.2288 -0.3144
 3772SOL    HW121785   3.158   8.479   2.939 -0.9484 -0.8225 -1.0268
 3772SOL    HW221786   3.258   8.576   2.854  0.5380 -0.3866  1.1847
 3773SOL     OW21787   9.569   4.071   1.549  0.2872 -0.5499  0.9053
 3773SOL    HW121788   9.570   3.971   1.548 -0.2948 -0.5485  0.3332
 3773SOL    HW221789   9.490   4.102   1.601  0.4399 -0.3813  1.0374
 3774SOL     OW21790   0.427   0.364   0.193  0.1244 -0.1965  0.4262
 3774SOL    HW121791   0.423   0.281   0.248 -1.4115 -0.7327 -0.4760
 3774SOL    HW221792   0.516   0.408   0.205  1.1143 -2.2060  0.5453
 3775SOL     OW21793   9.359   0.509   3.671  0.5446  0.4904 -0.0610
 3775SOL    HW121794   9.392   0.597   3.638  1.6289  0.4755  0.9313
 3775SOL    HW221795   9.268   0.491   3.634  0.4067  1.9201 -0.4519
 3776SOL     OW21796   5.913   1.225   2.857  0.3953  0.1626  0.8885
 3776SOL    HW121797   5.819   1.207   2.886  0.9764 -3.4084  0.7448
 3776SOL    HW221798   5.927   1.191   2.764  1.4863  1.9433  0.3645
 3777SOL     OW21799   2.874   4.821   4.589 -0.0401 -0.3854  0.3893
 3777SOL    HW121800   2.869   4.793   4.685  1.9771 -0.4360  0.5047
 3777SOL    HW221801   2.894   4.919   4.584 -2.6373  0.1676 -0.0132
 3778SOL     OW21802   0.785   1.545   0.454 -0.6177 -0.4772  0.2413
 3778SOL    HW121803   0.857   1.579   0.394  0.3507 -1.2986  0.9276
 3778SOL    HW221804   0.696   1.570   0.416 -0.0324 -1.1943 -1.6695
 3779SOL     OW21805   8.431   7.170   1.141  0.1845  0.3392  0.0271
 3779SOL    HW121806   8.459   7.088   1.092 -0.8203 -0.1359  0.2332
 3779SOL    HW221807   8.402   7.240   1.075  1.3031  0.6316 -0.1579
 3780SOL     OW21808   0.934   5.211   4.643 -0.1544 -0.3407 -0.3006
 3780SOL    HW121809   0.838   5.237   4.651  0.0976  1.0787 -1.6762
 3780SOL    HW221810   0.956   5.141   4.711 -1.8892  0.0981  0.7240
 3781SOL     OW21811   3.921   2.898   3.205 -0.2949 -0.1219 -0.5864
 3781SOL    HW121812   3.994   2.833   3.231 -0.4163 -0.4501 -1.0575
 3781SOL    HW221813   3.840   2.881   3.261 -0.0369  0.1925 -0.1141
 3782SOL     OW21814   1.894   9.276   2.185 -0.1723  0.4172 -0.3817
 3782SOL    HW121815   1.837   9.340   2.237 -0.1955 -0.3612  0.5676
 3782SOL    HW221816   1.847   9.189   2.178  0.8510 -0.2007  0.3118
 3783SOL     OW21817   2.398   5.050   4.659  0.1979 -0.5423 -0.3511
 3783SOL    HW121818   2.313   5.072   4.611  0.8918  1.1252 -0.8420
 3783SOL    HW221819   2.405   4.951   4.671 -0.7106 -0.8595 -2.3305
 3784SOL     OW21820   9.075   8.980   0.814  0.3456  1.1937 -0.0572
 3784SOL    HW121821   8.998   9.042   0.823 -0.0541  0.7556 -0.4259
 3784SOL    HW221822   9.136   8.990   0.893  0.4534  2.2708 -0.2761
 3785SOL     OW21823   9.594   7.025   1.911  0.8269 -0.1420 -0.4457
 3785SOL    HW121824   9.566   6.930   1.898  2.4878 -0.9049  1.4061
 3785SOL    HW221825   9.553   7.062   1.994 -0.4217  1.0363 -1.5509
 3786SOL     OW21826   2.566   4.526   4.098  0.3295  0.4991  0.2069
 3786SOL    HW121827   2.595   4.605   4.043 -0.9403  0.9625  0.1787
 3786SOL    HW221828   2.532   4.454   4.038 -0.6196  0.8223  0.3404
 3787SOL     OW21829   8.090   0.016   2.060  0.5383  0.1202  0.0899
 3787SOL    HW121830   8.108  -0.075   2.022 -1.6329 -0.6275  0.7950
 3787SOL    HW221831   8.036   0.069   1.994 -0.2562  0.0479  0.6821
 3788SOL     OW21832   2.686   3.627   3.424  0.2694 -0.0340  0.5113
 3788SOL    HW121833   2.679   3.714   3.374  0.0616 -0.2158  0.2228
 3788SOL    HW221834   2.756   3.570   3.383 -0.3838 -0.4690 -0.0084
 3789SOL     OW21835   3.030   3.463   2.810  0.1022  0.2624 -0.2841
 3789SOL    HW121836   3.029   3.560   2.786 -0.8284  0.2667 -0.2407
 3789SOL    HW221837   3.030   3.452   2.910  0.0237  0.2140 -0.2892
 3790SOL     OW21838   8.648   6.395   0.655 -0.0089  0.4580  0.1431
 3790SOL    HW121839   8.604   6.449   0.584 -0.1695  1.1496  0.7626
 3790SOL    HW221840   8.746   6.415   0.657 -0.0929  0.8439  0.4716
 3791SOL     OW21841   6.545   7.157   2.694  0.2439  0.1997  0.1724
 3791SOL    HW121842   6.457   7.199   2.718 -1.1551 -2.1585 -0.6071
 3791SOL    HW221843   6.586   7.207   2.617 -1.7308 -0.2205 -1.2123
 3792SOL     OW21844   1.939   9.374   3.957  0.4597 -0.1221  0.2309
 3792SOL    HW121845   1.963   9.297   4.016 -1.0378 -0.9103 -0.1631
 3792SOL    HW221846   1.923   9.341   3.864 -0.7039  0.5807  0.1764
 3793SOL     OW21847   1.679   9.434   0.029 -0.1099 -0.3633 -0.8809
 3793SOL    HW121848   1.711   9.380   0.107  0.3967 -0.1524 -0.9419
 3793SOL    HW221849   1.623   9.376  -0.030 -0.0196 -0.6783 -0.6601
 3794SOL     OW21850   2.784   2.190   4.305 -0.4011 -0.0950  1.1062
 3794SOL    HW121851   2.728   2.240   4.371 -1.1247  0.0614  0.3926
 3794SOL    HW221852   2.732   2.111   4.271  0.5114 -1.0062  1.7891
 3795SOL     OW21853   2.545   0.090   2.088  0.3268  0.3108  0.5946
 3795SOL    HW121854   2.460   0.082   2.141 -0.2376 -1.0945 -0.4763
 3795SOL    HW221855   2.590   0.001   2.084  0.6177  0.5063 -0.8359
 3796SOL     OW21856   2.728   7.576   1.956  0.5912  1.2800  0.3644
 3796SOL    HW121857   2.817   7.585   1.999  0.4250  1.8984  0.5862
 3796SOL    HW221858   2.661   7.632   2.006 -0.4360 -1.0263  1.6607
 3797SOL     OW21859   8.468   8.152   0.600 -0.1249 -0.1256 -0.4059
 3797SOL    HW121860   8.512   8.242   0.608  1.7567 -1.1309  0.9455
 3797SOL    HW221861   8.372   8.160   0.627  0.5322  1.0958  1.7068
 3798SOL     OW21862   2.596   3.066   0.634 -0.1943  0.1139 -0.2170
 3798SOL    HW121863   2.667   3.091   0.568  0.2439 -0.8173 -0.1040
 3798SOL    HW221864   2.625   2.986   0.686 -0.1975  1.3045  1.6722
 3799SOL     OW21865   0.626   2.201   4.219  0.5031  0.0623  0.1392
 3799SOL    HW121866   0.569   2.283   4.217  1.1558  0.5029 -0.6943
 3799SOL    HW221867   0.650   2.174   4.126  0.8004 -0.7230  0.4350
 3800SOL     OW21868   2.631   5.941   3.595 -0.3431  0.1532 -0.1762
 3800SOL    HW121869   2.554   5.937   3.531  1.5726  0.0272 -2.5191
 3800SOL    HW221870   2.713   5.904   3.552  1.4132  1.6516  1.7621
 3801SOL     OW21871   7.860   8.961   3.555 -0.1134  1.2022  0.2049
 3801SOL    HW121872   7.896   8.965   3.462  0.5477  0.0540  0.3933
 3801SOL    HW221873   7.818   9.048   3.579 -0.8333  1.3127 -1.3831
 3802SOL     OW21874   8.523   6.925   3.197 -0.2024 -0.6895  0.2044
 3802SOL    HW121875   8.480   7.006   3.237 -0.6817 -0.0918 -1.4716
 3802SOL    HW221876   8.453   6.858   3.174  0.1437 -1.3573  1.0625
 3803SOL     OW21877   6.201   9.884   1.754 -0.0092 -0.3636  0.0270
 3803SOL    HW121878   6.146   9.897   1.671  0.4238  0.7688 -0.0858
 3803SOL    HW221879   6.193   9.965   1.813  0.7160 -0.6241  0.4962
 3804SOL     OW21880   1.088   7.029   1.803  0.1127 -0.4424  0.0141
 3804SOL    HW121881   1.186   7.024   1.824 -0.0418  0.1466  0.8799
 3804SOL    HW221882   1.075   7.076   1.716  0.5275  0.6998  0.5632
 3805SOL     OW21883   3.431   5.288   1.041 -0.1987  0.1356  0.0930
 3805SOL    HW121884   3.392   5.202   1.075  1.7226  0.8852  4.5208
 3805SOL    HW221885   3.528   5.292   1.066  0.4193  2.4626 -2.4518
 3806SOL     OW21886   0.723   4.522   4.736  0.2089 -0.0931  0.0011
 3806SOL    HW121887   0.702   4.620   4.734  2.0332  0.3574  1.5842
 3806SOL    HW221888   0.820   4.510   4.757 -0.3941 -2.2754  1.6121
 3807SOL     OW21889   8.584   7.265   1.929 -0.2471 -0.0548  0.4441
 3807SOL    HW121890   8.613   7.334   1.863 -0.5073  0.7437  1.1487
 3807SOL    HW221891   8.520   7.307   1.994  1.6859 -0.2320  2.5251
 3808SOL     OW21892   7.252   0.256   3.037  0.2098  0.2878 -0.0691
 3808SOL    HW121893   7.316   0.186   3.005 -0.4104 -1.0649  1.6034
 3808SOL    HW221894   7.175   0.263   2.975 -0.5627 -1.7155  0.6488
 3809SOL     OW21895   8.289   7.498   3.245 -0.1586 -0.3027 -0.0419
 3809SOL    HW121896   8.304   7.541   3.156 -2.1811  0.6485  0.0670
 3809SOL    HW221897   8.378   7.480   3.288  0.7982  0.4166 -1.6714
 3810SOL     OW21898   2.351   4.226   4.335  0.3434 -0.0897 -0.0411
 3810SOL    HW121899   2.295   4.283   4.275  0.4368  0.8790  0.7869
 3810SOL    HW221900   2.307   4.218   4.425  1.2879  0.2781  0.4562
 3811SOL     OW21901   3.480   7.952   4.597  0.2309 -0.0906  0.1310
 3811SOL    HW121902   3.414   7.908   4.537 -0.6990  0.3983  0.7762
 3811SOL    HW221903   3.455   7.934   4.692 -0.5453  2.3569  0.4179
 3812SOL     OW21904   1.332   6.897   1.190  0.1710 -0.4607  0.1802
 3812SOL    HW121905   1.428   6.887   1.214  0.2766  0.0152 -0.0470
 3812SOL    HW221906   1.279   6.823   1.232  0.4943 -0.1718  1.0864
 3813SOL     OW21907   0.528   7.448   3.833 -0.2650  0.1271 -0.0368
 3813SOL    HW121908   0.621   7.451   3.796  0.6351  1.7503  2.2343
 3813SOL    HW221909   0.500   7.540   3.861 -2.0540 -0.5611  0.5206
 3814SOL     OW21910   2.489   5.286   0.663 -0.2276  0.4288  0.2272
 3814SOL    HW121911   2.511   5.189   0.676 -1.0282  0.1854 -0.1738
 3814SOL    HW221912   2.573   5.340   0.665  0.4960 -0.5347 -1.9944
 3815SOL     OW21913   0.684   8.401   1.115  0.2300 -0.1348 -0.3423
 3815SOL    HW121914   0.713   8.372   1.206 -1.0509  1.4648  0.5986
 3815SOL    HW221915   0.692   8.323   1.052 -0.6403 -1.8124  1.5456
 3816SOL     OW21916   0.991   4.333   1.435  0.4803 -0.4096 -0.2085
 3816SOL    HW121917   1.065   4.346   1.369  0.7870 -0.6927  0.0791
 3816SOL    HW221918   0.963   4.237   1.436  0.7467 -0.4825  0.3588
 3817SOL     OW21919   1.677   6.606   3.120 -0.1250 -0.0145  0.1348
 3817SOL    HW121920   1.607   6.653   3.174 -1.8023 -1.8331 -0.3852
 3817SOL    HW221921   1.744   6.564   3.182  1.3266  2.8568  0.6073
 3818SOL     OW21922   2.391   7.184   2.600 -0.1974 -0.3224 -0.4428
 3818SOL    HW121923   2.298   7.181   2.564 -0.4090 -0.3789  0.1002
 3818SOL    HW221924   2.388   7.197   2.699  0.3770 -0.1534 -0.4426
 3819SOL     OW21925   7.458   8.768   4.524  0.1013 -0.2999 -0.1907
 3819SOL    HW121926   7.367   8.806   4.508 -0.5355 -1.4697  0.5781
 3819SOL    HW221927   7.451   8.669   4.536  1.4156 -0.3395  0.3453
 3820SOL     OW21928   7.515   9.214   4.326 -0.3855  0.1680 -0.1523
 3820SOL    HW121929   7.594   9.273   4.341 -1.7831  1.8663  0.8411
 3820SOL    HW221930   7.537   9.120   4.352  1.4232  0.5342 -0.3205
 3821SOL     OW21931   9.469   0.703   1.131 -0.0226  0.4083 -0.2956
 3821SOL    HW121932   9.372   0.721   1.116 -0.3420 -1.6478 -0.9390
 3821SOL    HW221933   9.481   0.657   1.219 -0.1106 -2.6263 -1.7814
 3822SOL     OW21934   2.066   6.619   3.240  0.2383  0.3221 -0.3025
 3822SOL    HW121935   2.016   6.692   3.287  1.3947  1.4560 -0.7944
 3822SOL    HW221936   2.008   6.538   3.232 -1.6194  1.6888 -1.0857
 3823SOL     OW21937   0.770   3.396   2.729  0.1371  0.8810  0.3451
 3823SOL    HW121938   0.685   3.360   2.765  0.7989 -0.8717  0.1969
 3823SOL    HW221939   0.844   3.377   2.793  0.6620  1.1099 -0.1843
 3824SOL     OW21940   8.151   4.999   2.010 -0.0374 -0.2360  0.0015
 3824SOL    HW121941   8.067   5.034   1.967 -0.1067 -0.2070  0.1602
 3824SOL    HW221942   8.227   5.059   1.987  0.1215 -0.7728 -0.9089
 3825SOL     OW21943   3.525   0.918   4.626  0.8780 -0.1213 -0.1114
 3825SOL    HW121944   3.623   0.933   4.635  0.8964 -1.5350  2.6756
 3825SOL    HW221945   3.507   0.823   4.603  0.1909  0.3655 -1.6307
 3826SOL     OW21946   9.583   8.624   4.182  0.4735 -0.0561  0.2289
 3826SOL    HW121947   9.558   8.677   4.263 -0.4911  0.2718 -0.2837
 3826SOL    HW221948   9.528   8.540   4.179  2.0174 -1.1326  1.0597
 3827SOL     OW21949   0.788   1.561   3.792  0.1133  0.2335  0.2933
 3827SOL    HW121950   0.707   1.614   3.818  0.5590  1.6565 -1.1121
 3827SOL    HW221951   0.870   1.606   3.829  0.2327 -1.8556  2.7510
 3828SOL     OW21952   2.508   0.470   2.578 -0.0393  0.2479 -0.6005
 3828SOL    HW121953   2.455   0.446   2.660  1.3098 -0.0020  0.2159
 3828SOL    HW221954   2.588   0.411   2.573 -0.8995 -0.7746 -2.9421
 3829SOL     OW21955   2.339   2.578   1.541 -0.3216 -0.2909 -0.5015
 3829SOL    HW121956   2.362   2.639   1.465 -0.7305 -2.5298 -2.5100
 3829SOL    HW221957   2.422   2.535   1.576 -0.3479 -0.9767 -1.2446
 3830SOL     OW21958   9.272   6.831   1.076 -0.0369 -0.1137 -0.1131
 3830SOL    HW121959   9.244   6.755   1.136 -1.5213  0.7371  0.2942
 3830SOL    HW221960   9.347   6.881   1.118 -0.2503 -0.2673  0.4498
 3831SOL     OW21961   2.990   3.086   0.620  0.3005 -0.6676  0.9769
 3831SOL    HW121962   3.080   3.079   0.578  1.2933 -1.0763  3.1278
 3831SOL    HW221963   2.923   3.040   0.562  1.0584  1.4925 -1.7221
 3832SOL     OW21964   1.021   7.218   2.407  0.3147 -0.1478 -0.2663
 3832SOL    HW121965   0.938   7.212   2.462 -0.5270 -2.3190 -1.7009
 3832SOL    HW221966   1.023   7.307   2.361 -1.5868 -0.3266 -0.7508
 3833SOL     OW21967   7.583   8.948   4.368  0.5957  0.2337 -0.0883
 3833SOL    HW121968   7.564   8.912   4.277 -0.0697  0.1692  0.0715
 3833SOL    HW221969   7.566   8.877   4.436  0.8016  0.3715  0.1087
 3834SOL     OW21970   3.448   6.731   3.126 -0.1877  0.1292 -0.0894
 3834SOL    HW121971   3.392   6.648   3.127 -2.0304  1.3621  0.9056
 3834SOL    HW221972   3.542   6.707   3.149 -0.9965 -1.4894  1.6920
 3835SOL     OW21973   6.952   7.569   2.487 -0.4945  0.8211  0.0738
 3835SOL    HW121974   6.861   7.610   2.479 -0.7981 -0.4143 -4.0329
 3835SOL    HW221975   6.983   7.541   2.397  3.7745  0.6916  1.5087
 3836SOL     OW21976   9.861   8.495   4.690  0.4298 -0.7195 -0.0629
 3836SOL    HW121977   9.844   8.396   4.684 -0.1657 -0.6860  0.8264
 3836SOL    HW221978   9.822   8.540   4.610 -0.0823 -1.1126 -0.0409
 3837SOL     OW21979   2.818   0.571   1.535  0.0717 -0.3087  0.3083
 3837SOL    HW121980   2.894   0.511   1.507 -1.4234 -1.3605 -1.6087
 3837SOL    HW221981   2.844   0.666   1.520  0.9503 -0.6677 -0.4914
 3838SOL     OW21982   8.018   7.144   1.157 -0.4789  0.2878  0.0098
 3838SOL    HW121983   8.088   7.171   1.223 -1.3176 -0.5296  1.2685
 3838SOL    HW221984   7.995   7.048   1.170 -1.8958  0.5661 -0.3294
 3839SOL     OW21985   1.365   5.267   2.502 -0.2457 -0.1062 -0.1264
 3839SOL    HW121986   1.279   5.307   2.470 -0.1770  0.2945  0.1835
 3839SOL    HW221987   1.347   5.208   2.581 -0.1496  0.5249  0.3734
 3840SOL     OW21988   8.231   8.861   3.844 -0.7063 -0.1822 -0.5211
 3840SOL    HW121989   8.227   8.933   3.913 -1.7697  0.9436 -1.7146
 3840SOL    HW221990   8.176   8.783   3.874 -1.5831  0.4990 -0.2954
 3841SOL     OW21991   1.211   1.292   1.306 -0.0917 -0.7351 -0.2325
 3841SOL    HW121992   1.279   1.350   1.261 -1.3399  0.0779 -1.1185
 3841SOL    HW221993   1.119   1.328   1.287 -0.7713 -1.8566  0.8773
 3842SOL     OW21994   6.821   7.255   2.833  0.3913  0.0623  0.0192
 3842SOL    HW121995   6.758   7.207   2.771  2.0283 -3.1133  0.6870
 3842SOL    HW221996   6.876   7.320   2.781 -0.6394 -0.0754 -1.2666
 3843SOL     OW21997   3.205   5.847   3.092 -0.1370  0.0456 -0.4872
 3843SOL    HW121998   3.225   5.793   3.174 -0.6124  0.7586  0.1102
 3843SOL    HW221999   3.160   5.932   3.119  0.6375  0.7499 -1.4212
 3844SOL     OW22000   3.003   1.488   4.161  0.6043 -0.2904  0.0528
 3844SOL    HW122001   3.003   1.424   4.238  0.9349 -3.0448 -2.1593
 3844SOL    HW222002   3.014   1.438   4.075 -4.0171  2.2450 -2.1954
 3845SOL     OW22003   6.341   9.049   1.992  0.3714  0.1306  0.1200
 3845SOL    HW122004   6.439   9.037   1.980  0.5244 -0.3366  1.7567
 3845SOL    HW222005   6.298   8.961   2.014 -0.1723  0.6032  0.9962
 3846SOL     OW22006   2.911   1.359   3.664 -0.1880  0.3873  0.1696
 3846SOL    HW122007   2.856   1.316   3.592  0.5474  0.4880 -0.4628
 3846SOL    HW222008   3.003   1.377   3.629  0.1442  0.5358  1.1061
 3847SOL     OW22009   0.780   1.898   1.324  0.2171 -0.0817  0.1632
 3847SOL    HW122010   0.699   1.893   1.264  0.8203  1.1539 -0.7510
 3847SOL    HW222011   0.751   1.922   1.416 -0.4160  0.8137 -0.2640
 3848SOL     OW22012   1.592   4.675   1.350  0.3620 -0.7425  0.0371
 3848SOL    HW122013   1.668   4.730   1.387 -0.1328  0.1619 -0.2606
 3848SOL    HW222014   1.551   4.621   1.423  1.3773 -1.3398  0.1739
 3849SOL     OW22015   2.666   6.956   2.202  0.6588  0.2705  0.4080
 3849SOL    HW122016   2.672   6.958   2.302  0.1853  0.1661  0.4389
 3849SOL    HW222017   2.756   6.934   2.164  0.3916 -1.7080  0.8769
 3850SOL     OW22018   1.121   4.967   1.615 -0.2734  0.0565 -0.5396
 3850SOL    HW122019   1.120   4.906   1.536 -3.5536 -0.1573 -0.4003
 3850SOL    HW222020   1.092   4.917   1.697  0.5439  0.9146  0.2959
 3851SOL     OW22021   4.168   3.659   2.049  0.1423 -0.4825 -0.6900
 3851SOL    HW122022   4.081   3.646   2.000  1.0585  0.5157 -2.6245
 3851SOL    HW222023   4.212   3.570   2.062 -0.9147 -0.9399 -0.1601
 3852SOL     OW22024   0.895   5.360   2.537 -0.6033 -0.2763 -0.4751
 3852SOL    HW122025   0.853   5.451   2.532  1.3647  0.6940 -0.0798
 3852SOL    HW222026   0.983   5.362   2.489 -1.1021 -2.3296 -1.5278
 3853SOL     OW22027   1.637   0.951   1.554  0.0541  0.1434  0.5323
 3853SOL    HW122028   1.716   0.973   1.497 -1.2486  2.9993 -0.2769
 3853SOL    HW222029   1.579   1.032   1.564 -2.4869 -1.7188  1.5961
 3854SOL     OW22030   2.241   3.511   1.231 -0.1292  0.1985 -0.0914
 3854SOL    HW122031   2.164   3.516   1.295 -0.8291 -2.0406 -0.7200
 3854SOL    HW222032   2.281   3.420   1.235  1.5490  0.8876 -0.8876
 3855SOL     OW22033   9.656   4.976   2.298  0.1455  0.3253  0.6849
 3855SOL    HW122034   9.586   5.042   2.326 -2.8501 -2.9811  1.4632
 3855SOL    HW222035   9.648   4.894   2.355  2.3281 -1.5554 -1.6118
 3856SOL     OW22036   3.613   8.615   3.360 -0.3393  0.5551 -0.1947
 3856SOL    HW122037   3.554   8.536   3.343 -0.6061  0.9393 -1.0505
 3856SOL    HW222038   3.569   8.674   3.428 -0.2481  0.0923  0.2737
 3857SOL     OW22039   7.439   8.505   1.774 -0.5073  0.0557 -0.3910
 3857SOL    HW122040   7.464   8.529   1.680 -1.1418  0.4284 -0.4666
 3857SOL    HW222041   7.506   8.440   1.810 -0.0842  0.1509 -0.9901
 3858SOL     OW22042   2.974   5.323   1.040 -0.3509  0.3245  0.6354
 3858SOL    HW122043   3.054   5.307   0.984 -0.9252  1.6803 -0.5827
 3858SOL    HW222044   2.996   5.305   1.136  0.5171 -2.4262 -0.0237
 3859SOL     OW22045   3.169   9.472   0.724  0.0830  0.5056  0.4977
 3859SOL    HW122046   3.096   9.521   0.676 -1.5925  0.4627  2.9526
 3859SOL    HW222047   3.145   9.375   0.732  0.1115  0.6106  1.8801
 3860SOL     OW22048   5.190   8.890   1.954 -0.1808 -0.4843 -0.1346
 3860SOL    HW122049   5.184   8.854   2.048  1.7168 -1.4106 -0.3424
 3860SOL    HW222050   5.247   8.830   1.899  1.8186  2.0279 -0.9040
 3861SOL     OW22051   0.802   2.644   4.284  0.4432 -0.1479  0.4980
 3861SOL    HW122052   0.860   2.563   4.295  1.3320  0.7080  2.2438
 3861SOL    HW222053   0.857   2.719   4.247  0.4898  0.6957  2.2371
 3862SOL     OW22054   9.069   8.325   3.445 -0.4930  0.1041  0.1528
 3862SOL    HW122055   8.991   8.294   3.391  0.5503  0.3111 -1.4965
 3862SOL    HW222056   9.118   8.246   3.481 -0.5776 -0.0550 -0.0769
 3863SOL     OW22057   1.237   5.223   2.143 -0.7423  0.5465 -0.0512
 3863SOL    HW122058   1.263   5.320   2.144  0.4953  0.2679 -1.8545
 3863SOL    HW222059   1.186   5.204   2.059 -1.5791 -0.2224  0.6304
 3864SOL     OW22060   7.712   9.250   0.890  0.2567  0.4570  0.2531
 3864SOL    HW122061   7.742   9.339   0.855 -0.5693  0.6414 -0.0116
 3864SOL    HW222062   7.644   9.211   0.826  2.8899 -1.7831 -1.2852
 3865SOL     OW22063   2.946   5.628   3.771 -0.1904  0.5244  0.6403
 3865SOL    HW122064   3.030   5.575   3.764 -0.9593 -0.5945 -0.1901
 3865SOL    HW222065   2.867   5.568   3.762 -1.1214  1.3633  2.7772
 3866SOL     OW22066   3.470   8.935   0.855 -0.1362 -0.1855 -0.6065
 3866SOL    HW122067   3.544   8.986   0.898 -0.3898 -0.4852  0.1916
 3866SOL    HW222068   3.506   8.885   0.776  0.7058 -1.0521  0.3137
 3867SOL     OW22069   0.551   0.563   1.199 -0.1870  0.2642 -0.2037
 3867SOL    HW122070   0.467   0.565   1.145 -0.1248 -1.2454 -0.3752
 3867SOL    HW222071   0.629   0.544   1.139 -0.4532 -4.3341  0.7468
 3868SOL     OW22072   0.470   2.470   2.497 -0.1734 -0.0323  0.0834
 3868SOL    HW122073   0.475   2.508   2.589 -0.8609  2.2605 -0.7908
 3868SOL    HW222074   0.551   2.496   2.445  0.0337 -0.9873 -0.0683
 3869SOL     OW22075   3.354   1.089   0.860  0.1487  0.4484 -0.2449
 3869SOL    HW122076   3.328   1.184   0.873 -0.8743  0.1467 -0.0480
 3869SOL    HW222077   3.292   1.030   0.911 -0.0860 -0.4114 -1.5023
 3870SOL     OW22078   4.311   9.281   3.308 -0.0277  0.0686 -0.5875
 3870SOL    HW122079   4.215   9.287   3.333  0.0874  1.6315 -0.5028
 3870SOL    HW222080   4.368   9.297   3.389  0.3060 -1.4673 -0.5078
 3871SOL     OW22081   2.664   9.503   4.639 -0.1291  0.1558 -0.1991
 3871SOL    HW122082   2.643   9.584   4.584 -1.1652 -0.2213 -0.3652
 3871SOL    HW222083   2.660   9.526   4.736 -1.4237  0.0722 -0.2219
 3872SOL     OW22084   2.549   1.386   0.962  0.1449 -0.3787 -0.1429
 3872SOL    HW122085   2.525   1.343   0.875 -2.2020 -0.1419  0.3576
 3872SOL    HW222086   2.604   1.323   1.017  0.7762 -0.9087 -1.3780
 3873SOL     OW22087   0.895   3.540   4.154 -0.2431  1.0936  0.2332
 3873SOL    HW122088   0.920   3.589   4.071 -2.1386  1.3519 -0.2203
 3873SOL    HW222089   0.935   3.586   4.233  0.5642  1.5535 -0.4307
 3874SOL     OW22090   4.005   1.170   4.621 -0.4114 -0.0080  0.0025
 3874SOL    HW122091   4.006   1.192   4.523 -0.5383  1.5127  0.3284
 3874SOL    HW222092   4.091   1.127   4.646 -0.2744 -0.1725 -0.7289
 3875SOL     OW22093   3.459   7.371   3.035  0.2532  0.1454 -0.2599
 3875SOL    HW122094   3.509   7.441   2.984  0.5406 -0.2487 -0.5284
 3875SOL    HW222095   3.430   7.299   2.972 -0.8031  0.4519 -0.1298
 3876SOL     OW22096   3.745   2.877   4.707  0.4190  0.3719 -0.1619
 3876SOL    HW122097   3.819   2.901   4.770  0.1749  0.9256 -0.0886
 3876SOL    HW222098   3.684   2.955   4.695  1.7185  1.0356 -2.8673
 3877SOL     OW22099   6.491   9.684   2.736  0.3996  0.4469 -0.1443
 3877SOL    HW122100   6.507   9.588   2.759  2.2425  0.6141 -0.6660
 3877SOL    HW222101   6.526   9.702   2.644  0.4359  1.7287  0.1197
 3878SOL     OW22102   0.324   4.411   3.205  0.4270 -0.0843 -0.2652
 3878SOL    HW122103   0.270   4.369   3.132  1.8302  0.4578 -1.6673
 3878SOL    HW222104   0.381   4.484   3.166  0.3721  0.9644  1.5842
 3879SOL     OW22105   0.366   1.526   2.256 -0.3233  0.0644  0.3848
 3879SOL    HW122106   0.443   1.467   2.233 -0.9076 -0.2382 -0.8149
 3879SOL    HW222107   0.397   1.600   2.315  0.9940  0.2778 -0.5648
 3880SOL     OW22108   2.977   2.301   4.124 -0.0057 -0.2371 -0.1102
 3880SOL    HW122109   2.912   2.283   4.197  0.4508  1.3536  0.7112
 3880SOL    HW222110   2.948   2.380   4.071  0.6829 -0.1921 -0.4351
 3881SOL     OW22111   4.137   0.714   4.744 -0.1099  0.1687 -0.2789
 3881SOL    HW122112   4.080   0.656   4.687  0.8299 -0.7025 -0.3439
 3881SOL    HW222113   4.186   0.780   4.687 -0.1000  0.0965 -0.3538
 3882SOL     OW22114   3.853   7.646   1.862 -0.0414  0.0966  0.4861
 3882SOL    HW122115   3.937   7.701   1.856  0.7377 -0.9894  1.2548
 3882SOL    HW222116   3.785   7.696   1.916  0.3186  0.7196  0.3790
 3883SOL     OW22117   0.311   4.486   1.786 -0.6322  0.2247  0.1579
 3883SOL    HW122118   0.362   4.509   1.869 -1.5823 -1.3300  1.1806
 3883SOL    HW222119   0.251   4.562   1.762 -1.5321  0.0379  1.8055
 3884SOL     OW22120   4.213   7.009   2.019  0.8892 -0.7238 -0.3989
 3884SOL    HW122121   4.234   6.992   1.923  1.3608 -0.4257 -0.3524
 3884SOL    HW222122   4.133   7.068   2.025  1.5219  0.1824 -0.6421
 3885SOL     OW22123   8.992   6.865   0.071  0.0361  0.4242  0.0801
 3885SOL    HW122124   8.978   6.792   0.004  0.5450  0.6695 -0.2948
 3885SOL    HW222125   8.923   6.936   0.058 -0.0741  0.3090  0.0393
 3886SOL     OW22126   2.859   7.362   2.345  0.0450  0.6620 -0.0398
 3886SOL    HW122127   2.878   7.266   2.326  1.9614  1.0430 -0.1298
 3886SOL    HW222128   2.919   7.394   2.418 -1.3398  1.4997  0.7429
 3887SOL     OW22129   2.349   6.446   3.693  0.3389  0.1039 -0.0672
 3887SOL    HW122130   2.315   6.494   3.612  1.0439  0.0965 -0.3748
 3887SOL    HW222131   2.350   6.347   3.676  1.1785  0.1499 -0.3266
 3888SOL     OW22132   8.607   7.618   2.350 -0.2248 -0.1931 -0.3656
 3888SOL    HW122133   8.544   7.551   2.391 -1.0450  1.4912  1.2157
 3888SOL    HW222134   8.680   7.570   2.301 -1.2407 -2.2247  0.0505
 3889SOL     OW22135   1.703   6.845   0.873  0.2047  0.5412  0.3424
 3889SOL    HW122136   1.739   6.914   0.935  1.5603  1.3690 -1.3283
 3889SOL    HW222137   1.629   6.885   0.818 -1.0176 -0.1973  1.4134
 3890SOL     OW22138   0.941   1.815   4.226 -0.3923 -0.3543  0.0475
 3890SOL    HW122139   0.962   1.799   4.323 -1.1604  0.1845  0.3059
 3890SOL    HW222140   0.844   1.799   4.210 -0.1309 -1.1179 -0.7861
 3891SOL     OW22141   0.066   9.080   1.280  0.8781 -0.6296  0.2196
 3891SOL    HW122142  -0.018   9.062   1.330  1.1971 -0.3734  0.8509
 3891SOL    HW222143   0.096   8.996   1.233 -0.3035 -0.4414 -0.8914
 3892SOL     OW22144   7.168   8.836   3.843 -0.2395  0.6305 -0.0545
 3892SOL    HW122145   7.222   8.885   3.912  0.7030 -0.1343 -0.2415
 3892SOL    HW222146   7.116   8.763   3.887  2.1374 -1.3609 -0.4316
 3893SOL     OW22147   9.133   6.414   3.774  0.0630  0.4626  0.3297
 3893SOL    HW122148   9.136   6.479   3.697 -0.6659  1.0956  0.8231
 3893SOL    HW222149   9.191   6.448   3.848 -2.1618  1.7934  1.5185
 3894SOL     OW22150   4.074   2.153   2.835  0.3067 -0.5061  0.6407
 3894SOL    HW122151   4.113   2.067   2.867  1.6100  0.2683  1.1624
 3894SOL    HW222152   4.148   2.216   2.809 -0.6189  0.6067  0.6715
 3895SOL     OW22153   0.064   9.223   3.088 -0.2016 -0.0088  0.3140
 3895SOL    HW122154   0.083   9.131   3.055  1.3949  0.8477 -1.2663
 3895SOL    HW222155  -0.030   9.248   3.066 -0.0466 -0.5452 -1.0051
 3896SOL     OW22156   0.525   4.167   1.125 -0.1522 -0.6657 -0.0390
 3896SOL    HW122157   0.564   4.110   1.052 -0.2153  1.4662 -1.7957
 3896SOL    HW222158   0.426   4.154   1.127  0.1007 -2.6126  1.3715
 3897SOL     OW22159   9.890   0.725   2.451 -0.1016  0.1328  0.5328
 3897SOL    HW122160   9.947   0.805   2.432 -1.3562  1.1121  0.8062
 3897SOL    HW222161   9.948   0.649   2.481  1.0564  1.0848  0.7449
 3898SOL     OW22162   2.845   0.365   4.626  0.0255  0.1582  0.1426
 3898SOL    HW122163   2.943   0.370   4.649  0.0992  1.1608 -0.3534
 3898SOL    HW222164   2.802   0.454   4.643 -0.5869  0.0045 -0.5666
 3899SOL     OW22165   1.056   6.531   2.212 -0.1430 -0.3939  0.7063
 3899SOL    HW122166   1.031   6.511   2.118  2.5106 -0.1257 -0.0857
 3899SOL    HW222167   1.095   6.623   2.218  2.0035 -1.3279  1.5990
 3900SOL     OW22168   0.761   5.238   4.276  0.6718 -0.3963  1.0426
 3900SOL    HW122169   0.709   5.165   4.230 -0.2047  0.6848  0.2997
 3900SOL    HW222170   0.857   5.211   4.282  0.4416 -1.4181  0.3418
 3901SOL     OW22171   2.500   2.684   2.106  0.1720 -0.1181 -0.3841
 3901SOL    HW122172   2.513   2.723   2.015  0.4554  0.1005 -0.2508
 3901SOL    HW222173   2.476   2.756   2.171 -2.7428 -0.6574 -0.8261
 3902SOL     OW22174   2.928   2.841   2.348 -0.4279 -0.3202 -0.3723
 3902SOL    HW122175   3.024   2.869   2.340 -0.3338  0.2546  2.2950
 3902SOL    HW222176   2.889   2.828   2.257  1.3937  2.1382 -1.5353
 3903SOL     OW22177   4.322   9.092   1.914 -0.3687 -0.3910 -0.0565
 3903SOL    HW122178   4.338   9.183   1.874  0.4014 -1.3012 -1.8940
 3903SOL    HW222179   4.253   9.099   1.986  0.4941  1.8315  0.6010
 3904SOL     OW22180   0.919   0.476   2.605 -0.2786 -0.0862 -0.3452
 3904SOL    HW122181   0.845   0.422   2.646 -0.6945  1.4676  1.0295
 3904SOL    HW222182   0.892   0.573   2.604  1.5841  0.4414 -0.1737
 3905SOL     OW22183   0.681   6.310   3.142  0.0545  0.5029 -0.1253
 3905SOL    HW122184   0.655   6.327   3.047  1.3953 -1.5584 -0.8767
 3905SOL    HW222185   0.657   6.217   3.168  1.8752  0.2534  0.7909
 3906SOL     OW22186   1.298   8.397   1.901 -0.0006 -0.4379  0.0734
 3906SOL    HW122187   1.325   8.479   1.951 -0.9043  0.3815 -0.7634
 3906SOL    HW222188   1.275   8.325   1.966 -2.8648  1.1673  0.9208
 3907SOL     OW22189   3.525   9.896   1.449  0.0170 -0.1706  0.9231
 3907SOL    HW122190   3.593   9.841   1.496  1.4918  2.6946  2.3238
 3907SOL    HW222191   3.447   9.912   1.510 -0.9435 -1.6640  0.0984
 3908SOL     OW22192   6.808   9.140   0.548 -0.5205 -0.8758 -0.0439
 3908SOL    HW122193   6.865   9.075   0.497  0.7315 -0.9090  1.3472
 3908SOL    HW222194   6.851   9.231   0.545  0.7639 -1.3147  2.7014
 3909SOL     OW22195   9.814   8.086   2.554  0.4462 -0.0139 -0.1905
 3909SOL    HW122196   9.743   8.020   2.577 -0.8863  1.2383 -0.6676
 3909SOL    HW222197   9.775   8.161   2.500  2.3188  0.1842 -1.3256
 3910SOL     OW22198   3.790   8.223   3.479 -0.8362  0.4365 -0.0999
 3910SOL    HW122199   3.838   8.283   3.543  0.1217  0.6396 -1.0115
 3910SOL    HW222200   3.777   8.270   3.392 -0.5939 -0.4756 -0.6345
 3911SOL     OW22201   3.294   1.905   2.919  0.4848 -0.1278  0.1188
 3911SOL    HW122202   3.237   1.959   2.983 -1.0990 -0.7260 -0.7606
 3911SOL    HW222203   3.355   1.966   2.870  0.3981  0.5754  0.8687
 3912SOL     OW22204   1.721   7.603   2.105 -0.1436  0.2511 -0.7292
 3912SOL    HW122205   1.671   7.541   2.044  1.3557 -1.0990 -0.6383
 3912SOL    HW222206   1.769   7.672   2.051  0.7976 -0.6553 -1.0675
 3913SOL     OW22207   3.237   8.929   0.279  0.0581 -0.4556  0.0048
 3913SOL    HW122208   3.300   8.896   0.350 -0.7675  0.7088  1.2843
 3913SOL    HW222209   3.260   8.884   0.193  1.1483 -1.8091  0.9601
 3914SOL     OW22210   2.151   2.497   0.070 -0.1342 -0.1438  0.0810
 3914SOL    HW122211   2.065   2.537   0.102 -0.2688 -0.0206 -0.4330
 3914SOL    HW222212   2.137   2.399   0.054 -0.6107  0.1727 -1.5159
 3915SOL     OW22213   1.155   4.836   4.586  0.5043 -0.5788  0.2196
 3915SOL    HW122214   1.238   4.865   4.537  1.1502  0.6797  2.0258
 3915SOL    HW222215   1.155   4.737   4.594  3.4033 -0.4494  2.8553
 3916SOL     OW22216   3.583   2.555   2.817  0.5156  0.3611 -0.1466
 3916SOL    HW122217   3.618   2.614   2.744 -0.4132  0.5378 -0.4610
 3916SOL    HW222218   3.629   2.577   2.903  2.1194 -0.3260 -0.8158
 3917SOL     OW22219   1.126   6.013   0.882 -0.4296  0.2899 -0.1645
 3917SOL    HW122220   1.065   6.003   0.804 -0.4084  0.8996 -0.2645
 3917SOL    HW222221   1.072   6.021   0.966 -0.4237 -1.4744  0.0167
 3918SOL     OW22222   0.262   4.255   1.216 -0.1962  0.2973 -0.4413
 3918SOL    HW122223   0.246   4.317   1.139  0.7231 -0.5324 -1.3302
 3918SOL    HW222224   0.225   4.294   1.300 -4.4730 -0.3241 -1.8896
 3919SOL     OW22225   5.129   7.680   3.092  0.1168 -0.0398 -0.0700
 3919SOL    HW122226   5.137   7.761   3.034 -0.1499  0.5925  0.7682
 3919SOL    HW222227   5.094   7.603   3.038 -0.7637  0.7187 -0.5824
 3920SOL     OW22228   4.073   9.071   3.158 -1.0538 -1.0155  0.1755
 3920SOL    HW122229   4.173   9.075   3.149 -0.9271 -0.6776  1.5579
 3920SOL    HW222230   4.049   9.045   3.252 -2.2634 -1.2786 -0.1967
 3921SOL     OW22231   9.849   8.769   2.017 -0.1453 -0.4291 -0.2287
 3921SOL    HW122232   9.880   8.779   2.111  0.0021 -2.8436  0.0090
 3921SOL    HW222233   9.906   8.824   1.957  1.9250 -1.5207  0.7050
 3922SOL     OW22234   4.746   9.143   3.335 -0.7297 -0.3088 -0.2163
 3922SOL    HW122235   4.811   9.217   3.351  0.4269 -1.5259  0.7726
 3922SOL    HW222236   4.661   9.162   3.384 -0.8176  0.8386 -0.7801
 3923SOL     OW22237   3.543   2.989   3.203 -0.0360  0.4231  0.1402
 3923SOL    HW122238   3.529   2.914   3.139 -0.1838 -0.4812  1.2197
 3923SOL    HW222239   3.528   2.957   3.296  2.8509  1.0401  0.8611
 3924SOL     OW22240   2.082   3.067   0.109 -0.2247  0.2361  0.1276
 3924SOL    HW122241   2.162   3.056   0.167  1.0401  1.2350 -1.3807
 3924SOL    HW222242   2.111   3.101   0.019 -2.4206  1.4698 -0.1450
 3925SOL     OW22243   1.948   9.692   1.820 -0.0928  0.0318  0.3451
 3925SOL    HW122244   1.923   9.788   1.830 -0.9874 -0.2365  0.6783
 3925SOL    HW222245   1.886   9.636   1.875 -0.3591 -0.8375 -0.8397
 3926SOL     OW22246   2.380   1.221   4.539 -0.4212  0.1432 -0.3222
 3926SOL    HW122247   2.450   1.238   4.469 -0.5887 -2.2180 -1.1189
 3926SOL    HW222248   2.302   1.175   4.498 -0.4344 -1.4856  1.4082
 3927SOL     OW22249   1.063   9.224   4.487  0.0643 -0.1155  0.3103
 3927SOL    HW122250   1.150   9.174   4.487 -0.4183 -0.9659  0.4335
 3927SOL    HW222251   1.053   9.274   4.573  0.9621  0.9325 -0.1822
 3928SOL     OW22252   3.544   4.749   3.902 -0.0850 -0.4421  0.0103
 3928SOL    HW122253   3.478   4.709   3.839  1.8915 -1.4048 -1.5023
 3928SOL    HW222254   3.587   4.677   3.956  0.8658  0.0148 -0.1296
 3929SOL     OW22255   1.657   7.646   3.980  0.2166  0.6869  0.4376
 3929SOL    HW122256   1.665   7.557   3.934  1.6316  1.7981 -1.5268
 3929SOL    HW222257   1.701   7.641   4.070 -1.1686 -1.0539  1.0577
 3930SOL     OW22258   7.935   6.907   4.277  0.1859 -0.3802  0.3284
 3930SOL    HW122259   7.993   6.913   4.195  1.2717 -1.9646  0.9369
 3930SOL    HW222260   7.848   6.954   4.260  0.5370 -0.3665 -1.6033
 3931SOL     OW22261   3.734   9.625   3.334 -1.1511  0.0133 -0.0349
 3931SOL    HW122262   3.638   9.598   3.340 -1.2890  0.4403 -0.2993
 3931SOL    HW222263   3.770   9.601   3.244 -0.6047 -1.4401  0.5515
 3932SOL     OW22264   0.213   8.629   2.150 -0.0940  0.1547  0.1395
 3932SOL    HW122265   0.278   8.703   2.168 -0.6167  1.1333 -1.7955
 3932SOL    HW222266   0.122   8.668   2.135 -0.4991 -0.9378 -0.3142
 3933SOL     OW22267   2.163   6.262   4.175 -0.3592 -0.1952 -0.3338
 3933SOL    HW122268   2.203   6.343   4.218  1.7014 -1.1560 -0.3808
 3933SOL    HW222269   2.081   6.288   4.125  0.3454  1.8936 -0.4529
 3934SOL     OW22270   1.156   8.455   4.433 -0.1040 -0.6596  0.3150
 3934SOL    HW122271   1.113   8.393   4.499 -0.1842 -3.1802 -1.9912
 3934SOL    HW222272   1.118   8.547   4.444 -1.6020 -1.4914  2.4082
 3935SOL     OW22273   2.437   2.230   2.632 -0.2105  0.2678 -0.7906
 3935SOL    HW122274   2.394   2.231   2.542 -1.2635  1.7188 -0.2957
 3935SOL    HW222275   2.453   2.324   2.662 -1.0096 -0.1651  1.0533
 3936SOL     OW22276   7.582   9.984   1.255 -0.3246 -0.3648 -0.5145
 3936SOL    HW122277   7.678   9.958   1.241 -0.2179 -0.1787 -0.1314
 3936SOL    HW222278   7.576  10.050   1.329 -0.5737  0.8226 -1.5797
 3937SOL     OW22279   9.118   9.335   0.944 -0.1852  0.1111  0.0074
 3937SOL    HW122280   9.121   9.325   0.845  1.4644  1.3786 -0.0866
 3937SOL    HW222281   9.164   9.257   0.987 -1.0018 -0.4942 -0.2039
 3938SOL     OW22282   0.679   5.245   4.657  0.0128 -0.5178 -0.1971
 3938SOL    HW122283   0.650   5.210   4.746 -0.7376 -0.4630 -0.4102
 3938SOL    HW222284   0.603   5.296   4.616  0.6960  0.3501 -0.4050
 3939SOL     OW22285   2.999   8.383   2.432  0.2765 -0.3795 -0.4998
 3939SOL    HW122286   3.046   8.296   2.435  0.7454 -0.1488 -1.0564
 3939SOL    HW222287   3.045   8.444   2.367 -0.0262  0.2907 -0.0934
 3940SOL     OW22288   0.344   0.113   0.279 -0.4658 -0.3267 -0.6186
 3940SOL    HW122289   0.281   0.067   0.217  1.3313 -0.2729 -2.5616
 3940SOL    HW222290   0.431   0.063   0.282 -0.1946  0.2260  1.0805
 3941SOL     OW22291   9.716   9.326   2.779 -0.1588  0.5200  0.0587
 3941SOL    HW122292   9.756   9.331   2.870  0.5372  2.4514 -0.3349
 3941SOL    HW222293   9.721   9.415   2.735 -1.8674 -0.0186 -1.3001
 3942SOL     OW22294   0.933   7.664   3.752  0.2109  0.4910  0.1111
 3942SOL    HW122295   0.980   7.732   3.809 -0.4750 -0.7241  2.2052
 3942SOL    HW222296   0.989   7.643   3.672  2.3585  0.4442  1.5921
 3943SOL     OW22297   3.496   7.927   0.583 -0.0685 -0.6767  0.4223
 3943SOL    HW122298   3.499   7.948   0.485 -1.1271 -2.6239 -0.0584
 3943SOL    HW222299   3.587   7.941   0.623  0.0596  1.4168 -0.5414
 3944SOL     OW22300   2.326   7.641   1.842  0.5834 -0.0596  0.6013
 3944SOL    HW122301   2.397   7.603   1.783 -1.5981  0.5203 -2.5209
 3944SOL    HW222302   2.263   7.568   1.869  0.1645  0.1129  0.1076
 3945SOL     OW22303   5.190   0.191   1.877  0.0679 -0.4850  0.2332
 3945SOL    HW122304   5.257   0.264   1.866 -0.1619 -0.2985  0.0584
 3945SOL    HW222305   5.231   0.114   1.925 -0.0136  0.2031  1.4122
 3946SOL     OW22306   3.268   9.810   2.080  0.1136  0.1247 -0.0191
 3946SOL    HW122307   3.345   9.866   2.111 -0.1076 -0.3244  1.3841
 3946SOL    HW222308   3.186   9.866   2.074  0.0171  0.0873  0.8500
 3947SOL     OW22309   1.144   6.424   0.376  0.5440  0.1842 -0.0963
 3947SOL    HW122310   1.096   6.367   0.442  0.8993  1.1291  0.9814
 3947SOL    HW222311   1.136   6.383   0.285  1.0892 -1.7835  0.7023
 3948SOL     OW22312   0.294   5.864   1.897  0.4297 -0.3021 -0.6694
 3948SOL    HW122313   0.372   5.893   1.952  0.2655  0.1522 -0.6742
 3948SOL    HW222314   0.219   5.929   1.909  0.3633 -0.2494 -1.3601
 3949SOL     OW22315   3.691   9.327   1.183 -0.4468  0.1526  0.2179
 3949SOL    HW122316   3.656   9.387   1.255  0.6165  0.4816  0.4662
 3949SOL    HW222317   3.761   9.266   1.221 -0.8583 -0.6130 -0.2369
 3950SOL     OW22318   1.512   2.726   2.179  0.3625  0.1630 -0.6369
 3950SOL    HW122319   1.551   2.725   2.271  1.6704 -0.4561 -1.1818
 3950SOL    HW222320   1.450   2.648   2.168 -0.7225  0.9096  0.0959
 3951SOL     OW22321   3.593   8.911   1.333 -0.0710  0.4534 -0.0772
 3951SOL    HW122322   3.536   8.978   1.382 -2.5531 -0.7755 -1.1794
 3951SOL    HW222323   3.534   8.852   1.277  1.8774 -3.6015  1.9545
 3952SOL     OW22324   1.319   5.963   1.526  0.2003 -0.2001  0.7079
 3952SOL    HW122325   1.368   5.914   1.454 -1.5805 -1.6014  0.4315
 3952SOL    HW222326   1.294   6.054   1.493 -1.4857 -1.1920 -0.8560
 3953SOL     OW22327   7.289   0.077   4.700 -0.3154 -0.5345  0.1428
 3953SOL    HW122328   7.282   0.097   4.603 -3.6462  1.4104  0.6856
 3953SOL    HW222329   7.308   0.162   4.750  1.7954 -1.5809  1.1842
 3954SOL     OW22330   2.176   2.567   0.432 -0.3299  0.0079  0.1878
 3954SOL    HW122331   2.255   2.613   0.391  0.4348 -0.1322  1.4526
 3954SOL    HW222332   2.104   2.557   0.364 -0.0027  1.8891 -0.4639
 3955SOL     OW22333   2.247   6.109   2.372  0.2809 -0.4595  0.0088
 3955SOL    HW122334   2.218   6.014   2.382  1.0260 -0.6284  0.6284
 3955SOL    HW222335   2.184   6.158   2.311  0.4310 -1.5969 -1.0757
 3956SOL     OW22336   4.255   1.038   0.909  0.1209 -0.0902  0.0488
 3956SOL    HW122337   4.279   1.095   0.831  0.5171 -0.1838  0.1016
 3956SOL    HW222338   4.271   0.942   0.887 -2.6744 -0.3857 -0.8322
 3957SOL     OW22339   2.059   6.231   0.701 -0.0677 -0.0053 -0.1276
 3957SOL    HW122340   1.997   6.291   0.752 -1.8783 -3.0494  1.3983
 3957SOL    HW222341   2.152   6.243   0.736 -0.5017  1.3763  0.6133
 3958SOL     OW22342   2.326   2.463   3.494  0.7248 -0.2609 -0.8649
 3958SOL    HW122343   2.395   2.428   3.431  0.2157 -1.5833 -0.6944
 3958SOL    HW222344   2.372   2.501   3.575  1.2833 -0.4572 -1.0882
 3959SOL     OW22345   0.679   2.653   0.466 -0.0473  0.3492  0.0051
 3959SOL    HW122346   0.761   2.709   0.480 -0.3729  0.3205  2.3183
 3959SOL    HW222347   0.690   2.566   0.514 -1.0276 -0.0723 -0.5277
 3960SOL     OW22348   1.181   1.066   1.909 -0.0008 -0.0160  0.5477
 3960SOL    HW122349   1.141   0.984   1.867  0.8285  0.5966 -1.5104
 3960SOL    HW222350   1.178   1.058   2.008 -2.8896 -1.1179  0.4323
 3961SOL     OW22351   1.899   0.934   0.330 -0.0635  0.2144  0.4523
 3961SOL    HW122352   1.939   0.843   0.318  1.2593  0.6779  1.3333
 3961SOL    HW222353   1.862   0.942   0.423  0.7853  0.9519  0.7273
 3962SOL     OW22354   1.882   1.352   2.446 -0.3736  0.3741  0.3536
 3962SOL    HW122355   1.877   1.258   2.481 -0.5707  0.3107  0.1528
 3962SOL    HW222356   1.790   1.390   2.438 -0.3565  0.2222 -0.5634
 3963SOL     OW22357   1.609   2.063   3.288 -0.0466  0.1762 -0.3448
 3963SOL    HW122358   1.681   2.117   3.331 -0.4178  0.2154  0.2300
 3963SOL    HW222359   1.566   2.004   3.356 -0.0580 -0.3884 -0.8409
 3964SOL     OW22360   1.005   5.731   4.418 -0.5702 -0.4938 -0.0982
 3964SOL    HW122361   0.943   5.654   4.402 -1.4223 -0.3586  2.3183
 3964SOL    HW222362   0.953   5.807   4.458  0.9091  0.0651  0.8078
 3965SOL     OW22363   8.387   6.906   2.565 -0.1705 -0.2249  0.8062
 3965SOL    HW122364   8.331   6.932   2.486  0.5235 -0.5331  0.2010
 3965SOL    HW222365   8.407   6.808   2.562 -0.0472 -0.2175  1.3053
 3966SOL     OW22366   1.464   3.870   2.498 -0.8660 -0.3129  0.0213
 3966SOL    HW122367   1.404   3.888   2.577  0.9249 -1.3882  1.6696
 3966SOL    HW222368   1.438   3.930   2.423 -1.7890  1.6480  1.8454
 3967SOL     OW22369   7.997   9.302   3.839 -0.3399 -0.8570  0.0680
 3967SOL    HW122370   8.088   9.268   3.816 -0.6815 -1.1342 -0.9108
 3967SOL    HW222371   7.933   9.274   3.768 -0.9466  0.4065  0.1096
 3968SOL     OW22372   8.500   6.149   3.712  0.2385  0.2251 -0.1748
 3968SOL    HW122373   8.599   6.162   3.706  0.2519 -0.1386 -0.8135
 3968SOL    HW222374   8.465   6.119   3.623 -0.1045 -2.0285  0.6910
 3969SOL     OW22375   3.077   7.096   4.657 -0.5204  0.2207 -0.4503
 3969SOL    HW122376   3.012   7.020   4.662 -0.5921  0.3116 -0.0123
 3969SOL    HW222377   3.082   7.141   4.746 -0.7792  0.9838 -0.8191
 3970SOL     OW22378   3.701   3.134   4.292  0.1665 -0.7151  0.0339
 3970SOL    HW122379   3.742   3.069   4.356 -0.6085  1.3691  2.7493
 3970SOL    HW222380   3.656   3.208   4.343 -1.0807  0.6740 -2.9256
 3971SOL     OW22381   3.186   8.991   1.823 -0.4519 -0.0010  0.6200
 3971SOL    HW122382   3.124   8.913   1.823  0.9368 -1.1654  2.9129
 3971SOL    HW222383   3.280   8.959   1.824  0.1760  1.7373  0.1358
 3972SOL     OW22384   4.409   0.324   2.382  0.2849 -0.4843  0.0890
 3972SOL    HW122385   4.314   0.342   2.355  0.2203 -0.4521  0.3414
 3972SOL    HW222386   4.422   0.225   2.393  0.3379 -0.5059 -0.1600
 3973SOL     OW22387   8.228   6.591   2.751 -0.0227  0.0118 -0.2209
 3973SOL    HW122388   8.130   6.608   2.739 -0.0382 -0.9929 -1.7237
 3973SOL    HW222389   8.279   6.643   2.682  0.5114  0.5629  0.5797
 3974SOL     OW22390   3.345   1.074   1.600 -0.3871  0.2080 -0.1295
 3974SOL    HW122391   3.296   1.161   1.595  1.7512  1.6845  2.7589
 3974SOL    HW222392   3.315   1.023   1.681  0.4138 -0.4344 -0.2323
 3975SOL     OW22393   0.958   6.767   3.420 -0.1801 -0.3479  0.7043
 3975SOL    HW122394   0.864   6.759   3.454 -0.1842 -1.9466  0.3105
 3975SOL    HW222395   0.993   6.859   3.443 -2.0609  0.5057  0.2602
 3976SOL     OW22396   7.459   0.589   2.211 -0.0938 -0.6744 -0.3069
 3976SOL    HW122397   7.514   0.510   2.241  0.4699  0.1410  0.8223
 3976SOL    HW222398   7.516   0.671   2.212 -0.8472 -0.1457 -0.9067
 3977SOL     OW22399   0.900   2.251   1.865  0.4824 -0.7462  0.5106
 3977SOL    HW122400   0.850   2.183   1.920 -0.0287 -0.2711  0.6462
 3977SOL    HW222401   0.961   2.205   1.801 -0.9660 -1.3856 -0.4397
 3978SOL     OW22402   3.567   9.629   1.855  0.1852 -0.2739 -0.4187
 3978SOL    HW122403   3.626   9.710   1.856  0.1374 -0.2483  0.3338
 3978SOL    HW222404   3.604   9.563   1.790  0.2785  0.3071 -0.9692
 3979SOL     OW22405   0.756   6.207   0.110 -0.2578  0.8088  0.5969
 3979SOL    HW122406   0.793   6.236   0.021 -0.6161 -0.4731  0.0137
 3979SOL    HW222407   0.753   6.285   0.172  0.1113  1.6966 -0.4861
 3980SOL     OW22408   0.983   5.547   3.107 -0.2270  0.0181  0.2098
 3980SOL    HW122409   1.076   5.577   3.086 -0.2338 -0.3845 -0.4076
 3980SOL    HW222410   0.948   5.599   3.185  0.0674  1.0164 -0.3207
 3981SOL     OW22411   1.096   1.508   3.191  0.5310 -0.0863 -0.1963
 3981SOL    HW122412   1.068   1.428   3.244  0.3634 -0.5235 -0.9494
 3981SOL    HW222413   1.106   1.586   3.253  1.4578 -0.8703  0.6623
 3982SOL     OW22414   2.774   5.124   1.186 -0.0980 -0.2458  0.1858
 3982SOL    HW122415   2.848   5.190   1.197  1.0295 -1.3589 -0.6275
 3982SOL    HW222416   2.779   5.055   1.258  0.1643 -0.8086 -0.3749
 3983SOL     OW22417   1.684   8.889   0.157  0.2047  0.2209  0.5154
 3983SOL    HW122418   1.737   8.887   0.072  0.0759  0.0191  0.4407
 3983SOL    HW222419   1.587   8.876   0.137  0.5855 -4.1218  1.0457
 3984SOL     OW22420   0.203   1.209   3.494 -0.1371  0.1024  0.3676
 3984SOL    HW122421   0.294   1.219   3.534 -1.0266 -0.5368  2.7083
 3984SOL    HW222422   0.160   1.299   3.484  0.4961  0.3514 -0.0781
 3985SOL     OW22423   2.775   5.174   0.512  0.0992 -0.1352  0.5531
 3985SOL    HW122424   2.726   5.254   0.478 -1.1988 -1.0110  0.2944
 3985SOL    HW222425   2.833   5.200   0.589  0.2737  1.1885 -0.0225
 3986SOL     OW22426   2.147   2.249   3.790 -0.2782  0.8410  0.7018
 3986SOL    HW122427   2.214   2.268   3.862 -0.5448  1.4993  0.7793
 3986SOL    HW222428   2.194   2.236   3.703 -0.0162  0.8901  0.8368
 3987SOL     OW22429   7.802   8.743   3.147 -0.1350  0.0667 -0.2686
 3987SOL    HW122430   7.797   8.768   3.244  0.8973 -1.5483  0.2240
 3987SOL    HW222431   7.889   8.698   3.129  1.1659  3.3000 -2.6847
 3988SOL     OW22432   1.722   9.012   3.263 -0.4233  0.1095  0.3011
 3988SOL    HW122433   1.790   8.957   3.213 -0.2395  0.0894  0.5723
 3988SOL    HW222434   1.686   9.083   3.202 -1.6055 -1.1082 -0.4493
 3989SOL     OW22435   3.873   4.000   4.599  0.3659 -0.1341  0.3670
 3989SOL    HW122436   3.850   4.079   4.541 -0.3167 -1.8226 -1.7177
 3989SOL    HW222437   3.791   3.972   4.650 -0.2913 -1.4604 -1.3502
 3990SOL     OW22438   1.876   6.871   4.746 -0.2059 -0.0805 -0.4295
 3990SOL    HW122439   1.893   6.879   4.648  0.0820  0.7242 -0.3195
 3990SOL    HW222440   1.811   6.941   4.775 -2.7241 -2.2906 -0.5887
 3991SOL     OW22441   1.551   7.758   3.196 -0.4467 -0.2381 -0.8458
 3991SOL    HW122442   1.518   7.669   3.164 -1.5814  0.2213 -0.9748
 3991SOL    HW222443   1.592   7.748   3.286 -2.2035 -0.5960 -0.0688
 3992SOL     OW22444   3.953   2.971   2.253 -0.0213 -0.6992 -0.2709
 3992SOL    HW122445   3.985   2.910   2.181  1.3086 -0.2044 -0.1051
 3992SOL    HW222446   3.874   3.023   2.220  1.3355  0.4328 -1.8229
 3993SOL     OW22447   1.098   1.102   2.965 -0.1496 -0.6241  0.9658
 3993SOL    HW122448   1.118   1.056   3.051  1.0477  0.4578  1.2826
 3993SOL    HW222449   1.090   1.034   2.892  1.8309 -1.3069  1.3710
 3994SOL     OW22450   1.975   8.279   0.835  0.7860 -0.5687  0.0071
 3994SOL    HW122451   1.977   8.370   0.794  0.3542 -0.0799  1.0512
 3994SOL    HW222452   1.891   8.232   0.808 -0.6744  0.6759  2.2524
 3995SOL     OW22453   1.027   1.984   2.367 -0.4818  0.1054  0.5345
 3995SOL    HW122454   1.034   1.927   2.285  1.1478  0.3774  0.4845
 3995SOL    HW222455   1.097   1.956   2.433 -1.4439  0.2346  1.6396
 3996SOL     OW22456   6.242   7.100   2.543  0.2401 -0.3249 -0.2403
 3996SOL    HW122457   6.279   7.056   2.462 -1.3738 -0.3039 -1.0126
 3996SOL    HW222458   6.169   7.042   2.582  0.9227 -0.2890  1.1276
 3997SOL     OW22459   3.629   9.706   4.355  0.3955 -0.3562 -0.4792
 3997SOL    HW122460   3.606   9.736   4.448 -1.2149 -0.0188 -0.9664
 3997SOL    HW222461   3.551   9.657   4.316  1.5497 -1.6576 -1.1785
 3998SOL     OW22462   0.227   2.331   1.256  0.0650 -0.0267 -0.6227
 3998SOL    HW122463   0.252   2.239   1.285 -0.1842  0.4637  1.2509
 3998SOL    HW222464   0.271   2.398   1.316 -1.4921  1.0012 -0.5716
 3999SOL     OW22465   1.735   5.969   0.259  0.0094  0.5476 -0.0840
 3999SOL    HW122466   1.828   5.977   0.224 -0.5615  2.1070 -1.3239
 3999SOL    HW222467   1.737   5.937   0.354  1.8212  1.1660  0.1001
 4000SOL     OW22468   8.816   7.135   2.955 -0.1072 -0.3491 -0.1405
 4000SOL    HW122469   8.724   7.100   2.942 -0.0767 -0.6107  0.3524
 4000SOL    HW222470   8.814   7.212   3.019 -0.0831  0.1221 -0.7013
 4001SOL     OW22471   2.049   9.123   4.596 -0.1150  0.4347 -0.0422
 4001SOL    HW122472   2.132   9.127   4.652 -0.7794 -0.4726  1.0129
 4001SOL    HW222473   1.988   9.198   4.621 -0.8871 -0.5945  1.2275
 4002SOL     OW22474   3.246   3.180   2.173  0.1017 -0.2192  0.4697
 4002SOL    HW122475   3.155   3.184   2.132  1.0105  0.6974 -1.5329
 4002SOL    HW222476   3.245   3.227   2.261 -1.1656  0.5933  0.0396
 4003SOL     OW22477   3.620   8.047   3.621 -0.3964  0.2004  0.6745
 4003SOL    HW122478   3.637   8.028   3.718 -0.4562  0.3956  0.7241
 4003SOL    HW222479   3.674   8.127   3.593 -0.8791  0.5441  0.7162
 4004SOL     OW22480   3.560   7.327   0.219 -0.3357 -0.4452  0.5015
 4004SOL    HW122481   3.580   7.296   0.311  0.7273  0.3976  0.5751
 4004SOL    HW222482   3.562   7.427   0.216  0.9527 -0.4805 -0.6975
 4005SOL     OW22483   3.375   0.361   1.505  0.0997 -0.3200 -0.2477
 4005SOL    HW122484   3.342   0.449   1.538 -1.1993 -1.4288  1.5067
 4005SOL    HW222485   3.336   0.343   1.414 -0.1607  0.6159 -0.3222
 4006SOL     OW22486   7.306   0.056   2.443  0.2863 -0.3539 -0.4238
 4006SOL    HW122487   7.306   0.120   2.520  0.4502 -0.0188 -0.7001
 4006SOL    HW222488   7.232  -0.010   2.455 -1.0721  1.0033 -1.0631
 4007SOL     OW22489   8.532   8.587   3.814  0.9360 -0.0170  0.1988
 4007SOL    HW122490   8.515   8.620   3.907  1.2731 -0.6109  0.4747
 4007SOL    HW222491   8.574   8.660   3.760 -1.3484  1.0834 -0.1585
 4008SOL     OW22492   7.375   8.778   3.066 -0.6603  0.4968 -0.0210
 4008SOL    HW122493   7.286   8.806   3.030  0.0169  1.8100 -0.7142
 4008SOL    HW222494   7.437   8.758   2.990 -0.2231  0.0264  0.4542
 4009SOL     OW22495   5.689   0.652   3.039 -0.2011  0.7191 -0.4029
 4009SOL    HW122496   5.720   0.594   2.964 -1.6320  0.8917 -1.1545
 4009SOL    HW222497   5.611   0.609   3.084 -0.5981  1.5491 -0.2889
 4010SOL     OW22498   0.682   5.380   0.203  0.1722 -0.4549  0.2976
 4010SOL    HW122499   0.679   5.285   0.173  2.0842 -1.1029  2.0459
 4010SOL    HW222500   0.598   5.427   0.175 -0.2425 -2.3081 -1.6563
 4011SOL     OW22501   8.584   6.636   3.781  0.3655 -0.0787  0.6217
 4011SOL    HW122502   8.648   6.561   3.765  0.7342 -0.0538  1.9123
 4011SOL    HW222503   8.546   6.627   3.873 -0.0140  0.9995  0.5670
 4012SOL     OW22504   9.434   5.489   3.472  0.2749  0.0301  0.1246
 4012SOL    HW122505   9.477   5.486   3.562 -1.2683  1.3289  0.9354
 4012SOL    HW222506   9.477   5.421   3.412  3.3448  1.1719  0.9181
 4013SOL     OW22507   1.969   3.737   0.679 -0.1020 -0.4307 -0.4290
 4013SOL    HW122508   1.891   3.733   0.617 -0.0195 -0.9609 -0.5034
 4013SOL    HW222509   1.992   3.644   0.708 -0.2911 -0.1707  0.5786
 4014SOL     OW22510   0.605   0.943   1.421  0.1072 -0.0237  0.1054
 4014SOL    HW122511   0.549   0.988   1.352 -1.6700 -1.6133  0.4705
 4014SOL    HW222512   0.636   0.854   1.387  0.0331 -0.3834  0.9481
 4015SOL     OW22513   3.248   2.421   2.394 -0.0681  0.0075 -0.2121
 4015SOL    HW122514   3.160   2.378   2.373  0.3649 -0.2121 -1.6155
 4015SOL    HW222515   3.300   2.433   2.309  1.8932 -1.2524  0.7682
 4016SOL     OW22516   1.375   2.608   0.418  0.5610 -0.1136 -0.2677
 4016SOL    HW122517   1.317   2.665   0.360  0.3295  1.4444  1.4537
 4016SOL    HW222518   1.318   2.544   0.470  0.5856 -0.1307 -0.2618
 4017SOL     OW22519   9.083   8.904   3.487  0.0495  0.0896 -0.3752
 4017SOL    HW122520   9.068   8.825   3.428 -0.3648 -0.1536  0.0516
 4017SOL    HW222521   9.001   8.961   3.487  0.1691  0.2603 -0.2917
 4018SOL     OW22522   4.832   1.259   3.106  0.0868 -0.0357 -0.5459
 4018SOL    HW122523   4.745   1.307   3.110 -0.1459 -0.5496  0.8489
 4018SOL    HW222524   4.818   1.162   3.130  1.1168 -0.0045  0.2286
 4019SOL     OW22525   5.540   7.699   3.302  0.2256 -0.0774 -0.1238
 4019SOL    HW122526   5.633   7.719   3.332  0.5729  0.5051 -1.5278
 4019SOL    HW222527   5.495   7.641   3.369  0.8584  1.4145  1.6508
 4020SOL     OW22528   9.138   8.897   2.766 -0.1577 -0.2259 -0.1546
 4020SOL    HW122529   9.107   8.855   2.681  1.0428 -1.2533 -0.1041
 4020SOL    HW222530   9.166   8.991   2.748 -0.5378 -0.2218 -0.7590
 4021SOL     OW22531   1.287   3.020   0.210  0.4471  0.6408  0.4639
 4021SOL    HW122532   1.337   3.015   0.124  0.1654  1.0638  0.2726
 4021SOL    HW222533   1.190   3.000   0.194  0.2690  1.4056  0.5590
 4022SOL     OW22534   3.865   1.209   0.100  0.1959 -0.1491 -0.4627
 4022SOL    HW122535   3.925   1.132   0.081  2.3510  1.0467  1.2643
 4022SOL    HW222536   3.887   1.285   0.039  1.1274  0.6224  0.8068
 4023SOL     OW22537   0.617   2.253   1.097 -0.0369  0.3282 -0.7393
 4023SOL    HW122538   0.600   2.350   1.084  1.3175  0.5462 -1.0180
 4023SOL    HW222539   0.537   2.200   1.070 -1.8118  1.5089  2.0384
 4024SOL     OW22540   4.237   7.622   1.709  0.0625 -0.1429  0.1200
 4024SOL    HW122541   4.227   7.638   1.610  1.8646 -0.3010 -0.0902
 4024SOL    HW222542   4.190   7.537   1.733  0.7824 -0.8337 -0.8503
 4025SOL     OW22543   3.249   0.610   1.296 -0.0696  0.1512 -0.3041
 4025SOL    HW122544   3.349   0.608   1.294  0.0843 -1.6303  3.5585
 4025SOL    HW222545   3.213   0.529   1.249  0.3724 -0.1437 -0.1390
 4026SOL     OW22546   0.750   8.752   0.834  0.7109 -0.1356  0.0752
 4026SOL    HW122547   0.825   8.706   0.880  1.2870 -0.1550 -0.8773
 4026SOL    HW222548   0.692   8.684   0.789  0.6981 -0.0381 -0.0528
 4027SOL     OW22549   2.081   4.728   0.059  0.0928  0.4468 -0.1333
 4027SOL    HW122550   2.092   4.728  -0.040 -3.1316  2.8718 -0.5599
 4027SOL    HW222551   2.148   4.790   0.100 -0.4766  1.7383 -1.1005
 4028SOL     OW22552   9.288   0.413   1.821  0.3304  0.0834  0.4822
 4028SOL    HW122553   9.189   0.425   1.812  0.3895  0.1657 -0.0866
 4028SOL    HW222554   9.334   0.454   1.742  0.8547  0.5094  1.0040
 4029SOL     OW22555   1.689   4.579   3.743  0.1348 -0.9279 -0.2316
 4029SOL    HW122556   1.717   4.600   3.649  2.3595  3.8781  1.3567
 4029SOL    HW222557   1.595   4.610   3.757 -0.5415 -2.5114 -1.0512
 4030SOL     OW22558   1.613   9.711   3.783  0.0856 -0.6896  0.1987
 4030SOL    HW122559   1.657   9.658   3.855  2.1370  1.4022  0.5330
 4030SOL    HW222560   1.552   9.779   3.823 -0.0471 -0.6250 -0.1101
 4031SOL     OW22561   2.827   7.565   2.954  0.6106 -0.1134 -0.5815
 4031SOL    HW122562   2.915   7.524   2.979  0.9283  0.2508 -1.1048
 4031SOL    HW222563   2.761   7.493   2.937  1.0247 -0.4011 -0.9860
 4032SOL     OW22564   7.192   8.883   4.534 -0.1340 -0.1118 -0.3978
 4032SOL    HW122565   7.191   8.896   4.633  0.4897  3.6544 -0.8184
 4032SOL    HW222566   7.107   8.919   4.495  0.0761 -0.6210 -1.3462
 4033SOL     OW22567   4.495   9.542   2.091 -0.3055  0.5995  0.4160
 4033SOL    HW122568   4.400   9.574   2.092 -0.5711 -0.0873 -1.7288
 4033SOL    HW222569   4.498   9.446   2.065  1.3211  2.0070 -5.1635
 4034SOL     OW22570   2.141   5.487   1.723  0.2550  0.2073 -0.0108
 4034SOL    HW122571   2.234   5.466   1.753 -0.2790 -0.9235  0.9003
 4034SOL    HW222572   2.112   5.574   1.763  0.2029 -0.4064  1.3017
 4035SOL     OW22573   7.294   0.208   1.506 -0.4741 -0.0966 -0.0122
 4035SOL    HW122574   7.240   0.243   1.583 -1.3801  0.9073 -1.0785
 4035SOL    HW222575   7.354   0.281   1.472 -2.0202  0.3089 -1.9518
 4036SOL     OW22576   3.061   3.432   3.087  0.4919 -0.5718  0.2293
 4036SOL    HW122577   3.108   3.503   3.139 -0.6008 -0.8984  1.6838
 4036SOL    HW222578   3.045   3.353   3.145 -0.7367 -0.9479 -0.5907
 4037SOL     OW22579   0.190   3.061   2.030  0.2972  0.4338  0.1539
 4037SOL    HW122580   0.185   3.151   2.073 -0.6827  0.3037  0.3339
 4037SOL    HW222581   0.106   3.044   1.978  1.2935  0.4156 -1.4785
 4038SOL     OW22582   1.097   2.496   1.150  0.0281 -0.2376 -0.2046
 4038SOL    HW122583   1.133   2.431   1.083 -0.6867  0.2371 -1.0693
 4038SOL    HW222584   1.171   2.553   1.185  0.8321 -2.1364  1.2891
 4039SOL     OW22585   3.886   6.820   3.704 -0.2949  0.2100  0.1447
 4039SOL    HW122586   3.883   6.839   3.606 -0.8946  0.1394  0.1437
 4039SOL    HW222587   3.804   6.768   3.730 -0.6697  1.1411  0.8730
 4040SOL     OW22588   0.831   7.632   2.574  0.2185  0.4212  0.3353
 4040SOL    HW122589   0.805   7.706   2.513  2.1439 -0.2370 -1.3548
 4040SOL    HW222590   0.887   7.669   2.648 -2.1471  1.2247  1.7746
 4041SOL     OW22591   6.703   7.278   2.529  0.6833  0.7101  0.6147
 4041SOL    HW122592   6.781   7.217   2.518  1.0227  1.2767 -0.0941
 4041SOL    HW222593   6.705   7.349   2.459 -0.9607  0.1956  0.0119
 4042SOL     OW22594   9.804   7.421   2.024 -0.1436 -0.1369 -0.1229
 4042SOL    HW122595   9.851   7.388   2.106  0.2749  1.1505  0.1524
 4042SOL    HW222596   9.844   7.507   1.994 -0.1455 -0.6930 -1.8166
 4043SOL     OW22597   9.297   6.007   1.091  0.4141 -0.1422 -0.5757
 4043SOL    HW122598   9.344   5.921   1.112 -1.0274 -0.9259 -0.4689
 4043SOL    HW222599   9.337   6.048   1.009  1.7963 -0.3802 -0.0338
 4044SOL     OW22600   5.455   8.656   3.349 -0.4924  0.3940 -0.2369
 4044SOL    HW122601   5.388   8.596   3.392  0.4009 -0.0521  0.5466
 4044SOL    HW222602   5.523   8.684   3.417 -0.2858  1.4188 -0.8498
 4045SOL     OW22603   3.463   7.960   2.315 -0.3298  0.4102 -0.0196
 4045SOL    HW122604   3.525   7.983   2.240 -0.8176 -0.2052 -0.6122
 4045SOL    HW222605   3.382   8.018   2.310  0.4291  1.5961  1.0763
 4046SOL     OW22606   7.858   9.774   1.310  0.1652  0.1711 -0.0652
 4046SOL    HW122607   7.776   9.784   1.366  0.6909  2.1252  0.3690
 4046SOL    HW222608   7.937   9.813   1.357  1.4827 -2.1652 -0.2389
 4047SOL     OW22609   2.292   0.641   1.984 -0.4546  0.0047  1.2580
 4047SOL    HW122610   2.236   0.582   2.042 -0.5985  1.0581  2.1977
 4047SOL    HW222611   2.345   0.704   2.041 -0.8081  1.2437  0.2466
 4048SOL     OW22612   6.921   8.495   1.761 -0.4351  0.1232 -0.7226
 4048SOL    HW122613   6.970   8.552   1.695 -1.2298  1.8009  0.0982
 4048SOL    HW222614   6.986   8.441   1.813  0.3207  0.0643 -1.7215
 4049SOL     OW22615   3.796   7.326   2.159 -1.1745 -0.2561 -0.6584
 4049SOL    HW122616   3.756   7.262   2.224 -0.4740 -1.7751 -1.6995
 4049SOL    HW222617   3.895   7.326   2.168 -1.1332  0.2540 -1.0650
 4050SOL     OW22618   1.866   5.740   2.736  0.5668 -0.0746  0.1993
 4050SOL    HW122619   1.931   5.815   2.748 -0.0141  0.8026 -1.8848
 4050SOL    HW222620   1.774   5.778   2.721  0.0833 -1.2269  0.2122
 4051SOL     OW22621   1.389   7.163   0.031  0.1073 -0.1198 -0.0467
 4051SOL    HW122622   1.441   7.098  -0.025  0.4535 -0.0334  0.1688
 4051SOL    HW222623   1.449   7.200   0.102 -0.3154 -0.2028  0.3559
 4052SOL     OW22624   1.551   1.953   3.937  0.1833 -0.0477 -0.8066
 4052SOL    HW122625   1.547   1.990   4.030 -0.3473  1.1492 -1.2906
 4052SOL    HW222626   1.527   1.856   3.938  0.2014 -0.0440  0.3020
 4053SOL     OW22627   4.220   3.909   3.304  0.3466  0.4994  0.3616
 4053SOL    HW122628   4.289   3.918   3.232 -0.0006  2.6111  0.2573
 4053SOL    HW222629   4.130   3.932   3.266 -0.1349 -0.3693  0.9700
 4054SOL     OW22630   0.059   6.480   1.479  0.0315 -0.1074 -0.1621
 4054SOL    HW122631   0.131   6.427   1.435  0.6508  1.4604 -1.0570
 4054SOL    HW222632   0.047   6.448   1.573  2.1197 -0.1475  0.1005
 4055SOL     OW22633   3.492   4.350   1.291 -0.0542  0.5578 -0.2007
 4055SOL    HW122634   3.543   4.297   1.224 -0.7416  0.3579 -0.5764
 4055SOL    HW222635   3.397   4.359   1.261 -0.7332 -0.8025  1.4649
 4056SOL     OW22636   3.559   2.853   1.461 -0.1725 -0.0497 -0.3506
 4056SOL    HW122637   3.622   2.835   1.385 -0.5495  1.2528 -1.0002
 4056SOL    HW222638   3.467   2.865   1.425 -0.0649  2.3959  0.0637
 4057SOL     OW22639   3.385   1.367   2.556 -0.5070  0.7944 -0.4684
 4057SOL    HW122640   3.447   1.342   2.482  0.7584  0.3190  0.7457
 4057SOL    HW222641   3.418   1.328   2.642 -1.4456  2.1528  0.5152
 4058SOL     OW22642   4.110   7.877   1.280 -0.5520  0.4798 -0.2290
 4058SOL    HW122643   4.119   7.967   1.323 -2.9539  0.4055  0.4921
 4058SOL    HW222644   4.042   7.881   1.207 -0.5813 -0.7351 -0.2782
 4059SOL     OW22645   1.350   9.944   4.705 -0.0481 -0.3724 -0.4253
 4059SOL    HW122646   1.374   9.959   4.801  0.8964  0.8828 -0.8471
 4059SOL    HW222647   1.312   9.852   4.694 -0.8625 -0.2504  1.2767
 4060SOL     OW22648   8.182   6.840   0.955  0.1661 -0.5353 -0.4394
 4060SOL    HW122649   8.268   6.807   0.995 -0.0720  2.2425  2.6080
 4060SOL    HW222650   8.105   6.800   1.004 -0.1824  0.6211 -0.0290
 4061SOL     OW22651   4.997   1.403   2.123 -0.4634  0.3530  0.5855
 4061SOL    HW122652   5.030   1.491   2.157  3.7434 -0.9060  0.0620
 4061SOL    HW222653   5.011   1.398   2.024 -2.4199 -0.2223  0.3190
 4062SOL     OW22654   9.075   8.384   4.023  0.2879  0.0485  0.6218
 4062SOL    HW122655   9.065   8.370   4.122  0.4000 -0.5616  0.5517
 4062SOL    HW222656   9.131   8.310   3.985  0.4473  0.4147  0.1416
 4063SOL     OW22657   0.130   5.514   0.625 -0.3129 -0.6809  0.0611
 4063SOL    HW122658   0.144   5.420   0.597 -0.3325 -1.0835  1.3776
 4063SOL    HW222659   0.208   5.570   0.596  0.3027 -1.3539  0.4069
 4064SOL     OW22660   3.389   0.878   1.854 -0.5800 -0.3938 -0.4637
 4064SOL    HW122661   3.465   0.924   1.901 -0.6303 -2.9635  2.2718
 4064SOL    HW222662   3.323   0.845   1.922 -2.2916 -1.4348 -2.5852
 4065SOL     OW22663   7.070   9.374   3.184  0.0196 -0.2319 -0.3011
 4065SOL    HW122664   7.099   9.289   3.140  1.2626 -0.6273  1.2330
 4065SOL    HW222665   7.016   9.428   3.120  0.0335 -1.7358 -1.6094
 4066SOL     OW22666   1.911   0.681   3.223 -0.6336 -0.1837  0.3433
 4066SOL    HW122667   1.862   0.620   3.285 -1.1517 -0.3887 -0.2745
 4066SOL    HW222668   1.847   0.748   3.184 -0.0714  0.7754  1.0360
 4067SOL     OW22669   0.578   7.835   0.557 -0.1102  0.5391 -0.3951
 4067SOL    HW122670   0.655   7.777   0.531 -0.8366 -0.4097 -0.4209
 4067SOL    HW222671   0.612   7.928   0.575  1.3933 -0.4181  1.8701
 4068SOL     OW22672   2.652   4.270   3.957 -0.1222  0.4080 -0.2229
 4068SOL    HW122673   2.720   4.289   3.886 -0.3285  0.8791 -0.3010
 4068SOL    HW222674   2.565   4.312   3.931 -0.7553 -1.1279 -0.6661
 4069SOL     OW22675   2.282   2.578   3.797  0.7834 -0.0545 -0.2791
 4069SOL    HW122676   2.339   2.657   3.818 -1.9548  1.7783  0.5121
 4069SOL    HW222677   2.192   2.609   3.765 -0.2334 -2.8402 -0.2559
 4070SOL     OW22678   2.080   1.495   3.935  0.0419 -0.0497  0.0072
 4070SOL    HW122679   2.066   1.594   3.927  0.1253 -0.0070  0.3606
 4070SOL    HW222680   2.172   1.472   3.903  0.1622  0.0392  0.2863
 4071SOL     OW22681   3.790   8.260   1.945  0.6904  0.0748 -0.6375
 4071SOL    HW122682   3.800   8.353   1.978 -2.5038  0.1441  0.3312
 4071SOL    HW222683   3.852   8.199   1.995  0.9823  1.2829  0.4871
 4072SOL     OW22684   7.588   7.077   1.319  0.2954  0.2196  0.1046
 4072SOL    HW122685   7.659   7.094   1.388  1.1640  1.7198 -1.1257
 4072SOL    HW222686   7.621   7.108   1.230 -1.6602  0.3080 -0.5995
 4073SOL     OW22687   7.390   9.066   1.828 -0.3336  0.1908  0.2243
 4073SOL    HW122688   7.388   9.107   1.736 -1.5627 -0.5283 -0.0907
 4073SOL    HW222689   7.355   9.132   1.894  1.8589  1.2091  0.4011
 4074SOL     OW22690   9.690   5.854   0.265 -0.2306 -0.4796 -0.6913
 4074SOL    HW122691   9.693   5.890   0.172  0.4180  0.0327 -0.4700
 4074SOL    HW222692   9.616   5.898   0.316  1.4060  1.5297 -0.0109
 4075SOL     OW22693   2.807   7.999   1.045 -0.3772 -0.2591 -0.5870
 4075SOL    HW122694   2.876   7.928   1.041  1.0705  1.1382 -0.7828
 4075SOL    HW222695   2.801   8.046   0.957 -0.5958  0.5461 -0.1498
 4076SOL     OW22696   3.508   6.449   2.943  0.5764  0.0757  0.1364
 4076SOL    HW122697   3.553   6.434   2.855 -0.8226  1.2693 -0.8096
 4076SOL    HW222698   3.567   6.504   3.002  0.5388  1.3033 -0.9480
 4077SOL     OW22699   3.896   6.524   2.029 -0.0272 -0.2559 -0.0358
 4077SOL    HW122700   3.921   6.621   2.028 -0.7665 -0.0632 -1.3573
 4077SOL    HW222701   3.810   6.511   1.979 -0.2236 -1.5170  0.6162
 4078SOL     OW22702   3.537   2.623   0.966  0.5117 -0.1177  0.0333
 4078SOL    HW122703   3.601   2.683   1.012  0.0626  0.4893 -0.1317
 4078SOL    HW222704   3.493   2.672   0.891 -1.5567  0.0707  1.3224
 4079SOL     OW22705   0.428   9.604   4.125 -0.1328 -0.1026 -0.0498
 4079SOL    HW122706   0.506   9.656   4.090 -1.8829  2.4642 -0.3345
 4079SOL    HW222707   0.460   9.526   4.177  2.6857  2.1243  1.6979
 4080SOL     OW22708   1.316   7.477   3.527  0.1641 -0.4076 -0.3268
 4080SOL    HW122709   1.338   7.452   3.621 -0.0079  0.5367 -0.0279
 4080SOL    HW222710   1.350   7.406   3.465 -0.2367 -1.3195  0.4860
 4081SOL     OW22711   0.377   4.795   4.569  0.7538  0.1500 -0.6407
 4081SOL    HW122712   0.293   4.836   4.536  1.2267  2.8380  1.2968
 4081SOL    HW222713   0.456   4.843   4.530  1.3529 -0.5533 -0.3214
 4082SOL     OW22714   2.473   2.954   2.484  0.3686 -0.1196 -0.1652
 4082SOL    HW122715   2.415   2.900   2.545 -0.2322 -0.6734 -1.1954
 4082SOL    HW222716   2.569   2.944   2.511  0.0316  0.4539  1.2841
 4083SOL     OW22717   1.885   2.346   4.519 -0.0219  0.9846 -0.1294
 4083SOL    HW122718   1.874   2.360   4.617 -2.0388  1.1032 -0.3458
 4083SOL    HW222719   1.865   2.251   4.496  1.0844  0.7989 -0.3446
 4084SOL     OW22720   5.570   9.583   2.018 -0.1653 -0.0682 -0.0043
 4084SOL    HW122721   5.581   9.511   2.086 -1.0765 -0.9594 -0.7929
 4084SOL    HW222722   5.656   9.595   1.969 -0.0676 -0.7600 -0.0089
 4085SOL     OW22723   0.024   1.216   0.239  0.3107  0.4431  0.4223
 4085SOL    HW122724   0.061   1.136   0.286 -2.5250 -2.0112 -1.3228
 4085SOL    HW222725   0.024   1.199   0.140 -0.8811  2.3649  0.0746
 4086SOL     OW22726   3.059   0.371   2.056 -0.3714 -0.1754 -0.1025
 4086SOL    HW122727   3.121   0.292   2.052  0.9022  0.6897  1.8076
 4086SOL    HW222728   3.062   0.421   1.970  1.3435 -0.3389 -0.1517
 4087SOL     OW22729   1.355   8.620   3.853  0.5706  0.0282 -0.0921
 4087SOL    HW122730   1.264   8.580   3.856  0.3402  0.5041 -0.6468
 4087SOL    HW222731   1.358   8.692   3.783  1.7925 -1.0392 -1.1745
 4088SOL     OW22732   7.630   9.470   0.685  0.1261  0.1106  0.2186
 4088SOL    HW122733   7.630   9.377   0.646 -1.2178  0.6484 -1.1260
 4088SOL    HW222734   7.546   9.483   0.738 -1.2447  1.5615 -2.1867
 4089SOL     OW22735   0.288   9.195   4.254 -0.1261  0.1604 -0.0139
 4089SOL    HW122736   0.367   9.157   4.205  0.1626  0.3870  0.2719
 4089SOL    HW222737   0.214   9.213   4.189 -0.5593 -1.6026 -0.0632
 4090SOL     OW22738   0.768   0.076   1.139  0.0183 -0.5870  0.3420
 4090SOL    HW122739   0.751   0.161   1.090 -0.2712 -1.5536 -1.2945
 4090SOL    HW222740   0.772   0.093   1.237  0.9433  1.4592 -0.0336
 4091SOL     OW22741   1.583   7.561   2.399  0.2152  0.6180  0.9884
 4091SOL    HW122742   1.599   7.654   2.365 -0.8238  0.2440 -0.5989
 4091SOL    HW222743   1.654   7.537   2.466  0.6083  2.4683  1.2628
 4092SOL     OW22744   3.015   6.486   2.076  0.2279 -0.3869  0.4674
 4092SOL    HW122745   3.019   6.421   2.151  0.1197 -2.0893 -0.9731
 4092SOL    HW222746   3.096   6.545   2.078  1.6275 -2.2746  0.2794
 4093SOL     OW22747   9.626   9.881   0.496 -0.0422  0.3760  0.2376
 4093SOL    HW122748   9.719   9.909   0.475 -0.0760  0.3890  0.1066
 4093SOL    HW222749   9.567   9.962   0.499  0.0415  0.4185  0.7783
 4094SOL     OW22750   0.150   0.742   4.497 -0.3307  0.6046  0.2911
 4094SOL    HW122751   0.125   0.781   4.408 -0.3845 -0.1277 -0.0182
 4094SOL    HW222752   0.249   0.750   4.510 -0.3486  0.8948  0.2533
 4095SOL     OW22753   9.631   4.711   2.440  0.0918  0.4197  0.5150
 4095SOL    HW122754   9.710   4.653   2.420 -0.2394  0.1688 -0.0486
 4095SOL    HW222755   9.547   4.661   2.423 -0.2043  1.1724 -0.3229
 4096SOL     OW22756   3.606   9.404   1.692 -0.1024 -0.4813 -0.1087
 4096SOL    HW122757   3.537   9.347   1.737 -0.2949  0.4958  0.8531
 4096SOL    HW222758   3.697   9.366   1.709 -0.2432 -0.6098  0.3480
 4097SOL     OW22759   3.844   4.373   4.635  0.5247  1.2631  0.0576
 4097SOL    HW122760   3.747   4.380   4.616 -0.1788 -1.0846  2.5500
 4097SOL    HW222761   3.866   4.426   4.718  0.8355 -0.3188  1.0227
 4098SOL     OW22762   5.267   8.803   3.219 -0.1470  0.0030 -0.3610
 4098SOL    HW122763   5.322   8.887   3.213  0.2017  0.0540  2.6673
 4098SOL    HW222764   5.323   8.730   3.259 -1.6830 -0.5001  0.9147
 4099SOL     OW22765   2.769   9.404   3.546 -0.6514 -0.5211  0.2529
 4099SOL    HW122766   2.844   9.421   3.610 -0.4016  0.8690 -0.4007
 4099SOL    HW222767   2.805   9.399   3.452 -1.4846  1.0538 -0.1663
 4100SOL     OW22768   0.567   1.952   3.968  0.7776  0.5360 -0.0273
 4100SOL    HW122769   0.523   2.042   3.971 -1.7062 -0.6145 -0.5580
 4100SOL    HW222770   0.591   1.930   3.874  0.8754  0.4117  0.0266
 4101SOL     OW22771   3.397   0.334   3.473  0.3110  0.3404  0.4136
 4101SOL    HW122772   3.328   0.405   3.485  0.2386  0.6177 -1.4707
 4101SOL    HW222773   3.369   0.272   3.400  2.0994  0.5047 -0.4414
 4102SOL     OW22774   0.499   4.913   0.597 -0.1831  0.7197 -0.0963
 4102SOL    HW122775   0.415   4.867   0.625 -0.3261  0.9688 -0.1133
 4102SOL    HW222776   0.484   5.012   0.596  0.3092  0.8037  0.5512
 4103SOL     OW22777   0.648   5.719   2.128 -0.5131 -0.2298 -0.3886
 4103SOL    HW122778   0.589   5.791   2.091 -2.0817 -1.2662  0.0384
 4103SOL    HW222779   0.620   5.631   2.090  1.4005 -0.6340 -0.9294
 4104SOL     OW22780   1.675   7.242   4.137  0.3431 -1.0049 -0.1607
 4104SOL    HW122781   1.687   7.169   4.205  0.5492 -1.7410 -0.9776
 4104SOL    HW222782   1.754   7.244   4.076 -1.0509 -2.1386 -2.0509
 4105SOL     OW22783   3.448   0.550   0.117 -0.0904  0.0654 -0.0992
 4105SOL    HW122784   3.413   0.629   0.166  0.5509  0.4405 -0.2444
 4105SOL    HW222785   3.458   0.572   0.020  0.6354 -0.0074 -0.0406
 4106SOL     OW22786   3.155   2.103   3.085  0.0383  0.3177 -0.2031
 4106SOL    HW122787   3.206   2.189   3.078  2.1778 -1.0126 -1.2414
 4106SOL    HW222788   3.084   2.101   3.014  0.6967  0.7722 -0.8838
 4107SOL     OW22789   3.505   1.844   3.952  0.5439 -0.1469  0.4400
 4107SOL    HW122790   3.463   1.927   3.989  0.0332  1.0041 -2.6009
 4107SOL    HW222791   3.436   1.772   3.943  0.5241 -0.2028  0.9966
 4108SOL     OW22792   0.419   9.681   2.537  0.1323 -0.3387  0.7305
 4108SOL    HW122793   0.433   9.613   2.465  0.8672 -0.3203  0.8516
 4108SOL    HW222794   0.331   9.727   2.523  0.6550  0.2672 -0.6593
 4109SOL     OW22795   7.618   8.665   0.859  0.4178  0.0572 -0.4269
 4109SOL    HW122796   7.580   8.688   0.948  4.5401 -1.5089  1.8288
 4109SOL    HW222797   7.575   8.580   0.826  0.4545 -0.5708  1.0949
 4110SOL     OW22798   1.595   1.238   2.511 -0.1109 -0.0041 -0.0686
 4110SOL    HW122799   1.612   1.306   2.582 -1.2736 -0.2716  0.4640
 4110SOL    HW222800   1.676   1.180   2.500 -0.8906 -1.7837  3.0079
 4111SOL     OW22801   2.311   1.844   4.171  0.4677 -0.3827  0.1104
 4111SOL    HW122802   2.385   1.909   4.153  0.9600 -0.6620  1.0756
 4111SOL    HW222803   2.223   1.888   4.156  0.8038  0.3998  0.4202
 4112SOL     OW22804   8.936   7.912   0.659  0.1500  0.0296 -0.9045
 4112SOL    HW122805   8.925   7.813   0.655 -1.7299  0.1637  0.5099
 4112SOL    HW222806   8.867   7.956   0.602  1.7161  0.5194 -2.4798
 4113SOL     OW22807   7.333   0.471   2.766  0.0395  0.1381  0.4067
 4113SOL    HW122808   7.245   0.487   2.812  0.6973 -0.7699  2.0046
 4113SOL    HW222809   7.403   0.450   2.834  1.0024 -1.4518 -1.0369
 4114SOL     OW22810   0.544   0.906   3.120 -0.5611  0.4175  0.3078
 4114SOL    HW122811   0.493   0.955   3.049 -0.9933  1.1476  1.1173
 4114SOL    HW222812   0.515   0.939   3.210 -0.3797 -0.8713  0.8360
 4115SOL     OW22813   0.079   0.781   4.031 -0.2265  0.2294  1.1819
 4115SOL    HW122814   0.042   0.689   4.019 -1.8682  1.1807 -1.4673
 4115SOL    HW222815   0.021   0.847   3.983  3.4966  2.1029 -1.0055
 4116SOL     OW22816   3.515   3.828   1.711  0.2619 -0.8113  0.5525
 4116SOL    HW122817   3.426   3.794   1.741 -0.1400  0.9723  1.4214
 4116SOL    HW222818   3.571   3.853   1.790  0.9471 -0.4350 -0.0354
 4117SOL     OW22819   8.515   0.175   2.031 -0.0226  0.5461  0.2467
 4117SOL    HW122820   8.552   0.087   2.001 -1.9734  0.0198 -0.6977
 4117SOL    HW222821   8.478   0.224   1.952 -0.9814  1.2222  1.1082
 4118SOL     OW22822   3.792   3.889   3.531 -0.2538  0.4679  1.1387
 4118SOL    HW122823   3.741   3.928   3.454  1.2239  0.5869  0.1906
 4118SOL    HW222824   3.890   3.905   3.516  0.1783 -1.3059  2.0535
 4119SOL     OW22825   0.840   4.009   1.002  0.2804  0.4514 -0.0183
 4119SOL    HW122826   0.863   4.001   0.905 -1.4454  0.3239 -0.4320
 4119SOL    HW222827   0.855   4.104   1.032  1.2197  0.3916 -0.2982
 4120SOL     OW22828   0.430   2.150   4.421  0.1213 -0.2919 -0.5111
 4120SOL    HW122829   0.483   2.129   4.339  0.0352 -1.0323 -0.3871
 4120SOL    HW222830   0.453   2.084   4.493 -1.0586 -0.7200 -0.5114
 4121SOL     OW22831   4.570   0.659   3.122 -0.5890  0.1966 -0.6203
 4121SOL    HW122832   4.486   0.697   3.081 -1.0294  1.6195  1.5340
 4121SOL    HW222833   4.546   0.609   3.205  0.4694 -1.3904 -1.2547
 4122SOL     OW22834   7.615   8.305   4.263  0.9059 -0.4960 -0.1980
 4122SOL    HW122835   7.611   8.207   4.282  2.4527 -0.5289 -0.0371
 4122SOL    HW222836   7.558   8.326   4.184 -0.5608 -1.3011  0.6126
 4123SOL     OW22837   0.494   8.807   3.678 -0.4965 -0.2226  1.1647
 4123SOL    HW122838   0.520   8.738   3.745 -0.3767  0.8248  2.2099
 4123SOL    HW222839   0.513   8.772   3.586  2.4267 -0.4027  1.7823
 4124SOL     OW22840   8.382   6.726   1.930  0.6008  0.0818 -0.2879
 4124SOL    HW122841   8.382   6.626   1.930  0.1741  0.0566 -1.8966
 4124SOL    HW222842   8.398   6.758   1.837 -0.6186  1.5023 -0.0162
 4125SOL     OW22843   2.853   9.640   1.578 -0.3925  0.1214 -0.3403
 4125SOL    HW122844   2.880   9.583   1.501 -0.5817 -1.5450  0.7869
 4125SOL    HW222845   2.831   9.732   1.546  0.5621 -0.2441 -2.1085
 4126SOL     OW22846   0.507   7.235   0.602 -0.4736  0.7777 -0.6487
 4126SOL    HW122847   0.501   7.173   0.524 -0.5225 -0.4210  0.2855
 4126SOL    HW222848   0.418   7.277   0.619 -0.3140  1.5312 -1.6111
 4127SOL     OW22849   3.897   9.301   1.517 -0.4743 -0.4081  0.2106
 4127SOL    HW122850   3.987   9.288   1.476 -1.1089  0.0797 -1.3746
 4127SOL    HW222851   3.889   9.395   1.551 -0.2271 -0.5887  0.7787
 4128SOL     OW22852   1.491   8.045   0.646  0.0971 -0.1219 -0.1619
 4128SOL    HW122853   1.396   8.017   0.651  0.0472 -0.0012 -0.4421
 4128SOL    HW222854   1.505   8.103   0.565  0.2488  0.4720  0.2888
 4129SOL     OW22855   0.255   1.311   2.433  0.1548  0.5442  0.5428
 4129SOL    HW122856   0.168   1.315   2.482 -0.7006 -2.3810 -0.6333
 4129SOL    HW222857   0.262   1.389   2.371 -0.9710  1.5582  1.6656
 4130SOL     OW22858   1.768   4.841   4.650  0.3087 -0.2935  0.0933
 4130SOL    HW122859   1.796   4.750   4.621  1.7097  0.2219 -0.2306
 4130SOL    HW222860   1.813   4.863   4.737 -0.3825 -0.0861  0.4009
 4131SOL     OW22861   8.638   8.055   2.736 -0.0579 -0.3341 -0.1882
 4131SOL    HW122862   8.645   8.119   2.813 -3.2164 -1.4228  1.0735
 4131SOL    HW222863   8.599   8.103   2.657  0.5111  0.0647 -0.2340
 4132SOL     OW22864   2.077   4.016   2.004 -0.3959  0.1621  0.0721
 4132SOL    HW122865   2.068   4.116   2.002  1.2023  0.3757  1.7854
 4132SOL    HW222866   2.113   3.984   1.917 -1.7117  0.9803 -0.7934
 4133SOL     OW22867   2.327   0.534   2.857 -0.1172  0.7468  0.3306
 4133SOL    HW122868   2.276   0.537   2.943 -1.0851 -1.7204 -0.1114
 4133SOL    HW222869   2.421   0.564   2.873 -0.9154  2.5990  1.7446
 4134SOL     OW22870   0.138   9.330   1.288 -0.6015 -0.0833  0.6195
 4134SOL    HW122871   0.068   9.397   1.264 -0.3999 -0.5326 -1.3540
 4134SOL    HW222872   0.098   9.238   1.287  0.2826 -0.4724 -1.8302
 4135SOL     OW22873   2.762   1.592   4.090  0.3405  0.4912  0.0247
 4135SOL    HW122874   2.749   1.623   4.184 -0.7271 -0.5866  0.2507
 4135SOL    HW222875   2.845   1.536   4.083 -0.5480 -0.9431  0.7248
 4136SOL     OW22876   4.436   4.931   1.486  0.3452  0.3489 -0.7357
 4136SOL    HW122877   4.482   4.956   1.572 -1.7674  0.5172  0.3763
 4136SOL    HW222878   4.465   4.840   1.458  1.4123  0.4834 -0.0845
 4137SOL     OW22879   9.225   7.011   0.715  0.2539  0.1729 -0.1161
 4137SOL    HW122880   9.310   6.958   0.720  0.4398  0.5090  0.4109
 4137SOL    HW222881   9.147   6.949   0.703  0.5179 -0.1807  0.0074
 4138SOL     OW22882   2.284   9.706   3.825 -0.0863  0.0743 -0.2622
 4138SOL    HW122883   2.199   9.679   3.869 -0.2388  1.6018  0.4243
 4138SOL    HW222884   2.332   9.625   3.791 -0.9767 -0.9407  0.8686
 4139SOL     OW22885   0.369   5.258   4.001 -0.0823  0.2374 -0.0911
 4139SOL    HW122886   0.277   5.298   4.006  0.5354  1.4768  1.7718
 4139SOL    HW222887   0.367   5.165   4.037 -0.5032  0.4518  0.4416
 4140SOL     OW22888   3.462   2.733   3.109 -0.4089 -0.1842 -0.0971
 4140SOL    HW122889   3.421   2.703   3.195 -0.4369  0.9328  0.2882
 4140SOL    HW222890   3.391   2.740   3.039 -0.1432 -2.6299 -0.6624
 4141SOL     OW22891   0.455   7.650   2.108  0.3852 -0.1384  0.1346
 4141SOL    HW122892   0.462   7.598   2.193 -1.6932 -2.5840 -1.1019
 4141SOL    HW222893   0.363   7.688   2.099  0.7444  0.5514 -0.7646
 4142SOL     OW22894   2.755   9.682   3.268  0.0487 -0.4506  0.1138
 4142SOL    HW122895   2.686   9.651   3.202 -0.4342  0.8929 -0.0361
 4142SOL    HW222896   2.720   9.669   3.361 -0.1654 -0.3436  0.0494
 4143SOL     OW22897   2.336   1.109   3.846  0.1214  0.6286 -0.2433
 4143SOL    HW122898   2.303   1.159   3.766  0.8649  2.1484  0.3903
 4143SOL    HW222899   2.428   1.140   3.870  0.2689 -0.4658  0.6567
 4144SOL     OW22900   4.049   8.508   2.421  0.0734  0.0018 -0.2680
 4144SOL    HW122901   3.969   8.452   2.440 -0.5620  0.7540 -0.7221
 4144SOL    HW222902   4.083   8.548   2.507 -0.7570  0.6557 -0.2446
 4145SOL     OW22903   8.375   1.030   1.745 -0.0582  0.2821  0.3548
 4145SOL    HW122904   8.335   1.065   1.660 -0.4093 -1.2695 -0.1439
 4145SOL    HW222905   8.304   1.023   1.815  0.5353  3.0493  1.3048
 4146SOL     OW22906   8.510   9.590   1.053  0.2577  0.1703 -0.4062
 4146SOL    HW122907   8.435   9.527   1.033  0.3618 -0.3630  0.8291
 4146SOL    HW222908   8.584   9.540   1.097 -0.2575  1.4206  1.9451
 4147SOL     OW22909   0.771   2.367   4.747 -0.1624  0.8179  0.7680
 4147SOL    HW122910   0.737   2.447   4.697  0.9854  1.5379  1.1235
 4147SOL    HW222911   0.728   2.284   4.711 -0.1894  1.4369 -0.6572
 4148SOL     OW22912   7.919   9.455   3.510  0.4636 -0.4821 -0.7501
 4148SOL    HW122913   7.908   9.452   3.411 -0.5581 -0.8063 -0.6334
 4148SOL    HW222914   7.962   9.371   3.542 -1.2641 -1.3609 -0.6829
 4149SOL     OW22915   3.158   7.769   3.999  0.4069  0.2045  0.4354
 4149SOL    HW122916   3.133   7.860   4.034  1.7040  0.8841 -0.3776
 4149SOL    HW222917   3.118   7.699   4.057 -2.4616  1.2698 -0.1862
 4150SOL     OW22918   6.383   9.954   4.015 -0.2869 -0.0533 -0.1478
 4150SOL    HW122919   6.312   9.890   4.044  0.1314 -1.0248 -1.2418
 4150SOL    HW222920   6.401   9.942   3.918  1.8572 -0.3120  0.2540
 4151SOL     OW22921   3.245   4.167   1.973  0.1328 -0.1485  0.6865
 4151SOL    HW122922   3.241   4.238   2.044  4.3166  0.1629  0.7680
 4151SOL    HW222923   3.239   4.211   1.883 -2.3744 -0.2517  0.7883
 4152SOL     OW22924   2.707   0.104   1.249 -0.0878 -0.3817  0.1702
 4152SOL    HW122925   2.611   0.082   1.264 -0.3216  0.2652 -0.3685
 4152SOL    HW222926   2.738   0.063   1.163 -0.4799  1.2375 -0.7539
 4153SOL     OW22927   0.821   1.360   3.967 -0.8416 -0.6992 -0.3732
 4153SOL    HW122928   0.786   1.429   3.904  0.5810  0.2525 -0.1379
 4153SOL    HW222929   0.754   1.344   4.039 -0.2043  2.2436  0.9377
 4154SOL     OW22930   2.417   5.168   2.386 -0.2322  0.8219  0.2462
 4154SOL    HW122931   2.474   5.216   2.453  0.6124  2.2245 -1.4126
 4154SOL    HW222932   2.401   5.228   2.308  2.2566 -2.0828 -2.6798
 4155SOL     OW22933   2.099   4.896   3.228 -0.9048  0.8892 -0.2303
 4155SOL    HW122934   2.134   4.911   3.136 -2.2796  0.1951 -0.8843
 4155SOL    HW222935   2.042   4.973   3.256 -1.8286  0.3635 -0.6244
 4156SOL     OW22936   2.567   5.871   4.261  0.5857 -0.1032  0.3327
 4156SOL    HW122937   2.534   5.954   4.217  0.1098 -0.5660 -0.1997
 4156SOL    HW222938   2.621   5.818   4.196 -0.5564 -1.0431  0.1296
 4157SOL     OW22939   2.137   8.222   0.054 -0.0528 -0.1628  0.2905
 4157SOL    HW122940   2.074   8.197  -0.019 -0.5557 -1.6700  1.1994
 4157SOL    HW222941   2.100   8.300   0.105 -0.0168  0.4704 -0.6367
 4158SOL     OW22942   3.188   9.210   4.315  0.8170 -0.1870  0.1273
 4158SOL    HW122943   3.280   9.238   4.342  1.7348  0.2078 -3.2186
 4158SOL    HW222944   3.142   9.286   4.270 -0.5497 -0.8951  0.3159
 4159SOL     OW22945   4.195   3.670   2.753 -0.3657  0.0834 -0.8636
 4159SOL    HW122946   4.171   3.766   2.738  0.5846  0.6889  1.3230
 4159SOL    HW222947   4.112   3.617   2.770 -0.6974  1.0095  0.4834
 4160SOL     OW22948   2.113   8.603   4.001  0.4267  0.1711 -0.2948
 4160SOL    HW122949   2.115   8.627   4.098  2.2466 -1.5072  0.1083
 4160SOL    HW222950   2.064   8.517   3.989  0.4566  0.2259 -0.8281
 4161SOL     OW22951   4.978   0.479   1.996 -0.0058  0.1000 -0.3223
 4161SOL    HW122952   4.985   0.391   2.043 -0.3047 -0.4913 -1.3670
 4161SOL    HW222953   5.070   0.513   1.976  0.1048 -0.7909 -1.3934
 4162SOL     OW22954   1.179   8.430   1.426  0.2518  0.5926 -0.3381
 4162SOL    HW122955   1.239   8.509   1.423 -0.7128  1.4363  1.5819
 4162SOL    HW222956   1.139   8.421   1.518  1.8090 -3.2267  0.0652
 4163SOL     OW22957   0.876   1.411   4.611 -0.1321  0.0469  0.4472
 4163SOL    HW122958   0.776   1.404   4.608 -0.1119 -1.0743  1.6154
 4163SOL    HW222959   0.912   1.409   4.518 -1.1010 -1.6561  0.0687
 4164SOL     OW22960   2.061   7.984   4.512 -0.1471 -0.1671  0.1402
 4164SOL    HW122961   2.149   7.976   4.560 -0.3549 -0.6074  0.4521
 4164SOL    HW222962   2.071   8.046   4.434  0.4616 -0.2829  0.1225
 4165SOL     OW22963   1.225   8.066   0.356  0.3626  0.3921 -0.1722
 4165SOL    HW122964   1.304   8.126   0.350  1.8175 -1.5879 -1.6522
 4165SOL    HW222965   1.222   8.024   0.447  0.4526  1.1879  0.2022
 4166SOL     OW22966   3.564   2.937   2.520 -0.0815 -0.3328 -0.5534
 4166SOL    HW122967   3.490   2.925   2.586  1.6474  0.8629  1.6728
 4166SOL    HW222968   3.569   3.033   2.491 -0.3874 -0.7124 -1.9115
 4167SOL     OW22969   0.120   5.466   2.421 -0.5687 -0.0869  0.1388
 4167SOL    HW122970   0.058   5.504   2.351  1.5851  2.3570 -0.5138
 4167SOL    HW222971   0.135   5.534   2.492  1.1708 -0.7492  0.4230
 4168SOL     OW22972   9.497   4.793   1.130 -0.0149 -0.0328  0.1378
 4168SOL    HW122973   9.507   4.736   1.211  1.3736  0.3821  0.2756
 4168SOL    HW222974   9.587   4.830   1.104 -0.8907  2.2366  0.1836
 4169SOL     OW22975   1.072   2.283   2.959  0.6572 -0.0237  0.2479
 4169SOL    HW122976   1.101   2.205   2.903 -0.6432 -0.8099  0.6435
 4169SOL    HW222977   1.149   2.345   2.973  1.4202 -0.6691 -1.0091
 4170SOL     OW22978   0.420   9.301   4.007  0.2197  0.0649 -0.0281
 4170SOL    HW122979   0.431   9.299   3.908  4.1076 -0.9091  0.3436
 4170SOL    HW222980   0.322   9.297   4.030 -0.7672  0.9165 -3.7819
 4171SOL     OW22981   3.777   3.544   1.120 -0.2754 -0.2684  0.3580
 4171SOL    HW122982   3.755   3.448   1.100 -2.1320  0.0807  0.6424
 4171SOL    HW222983   3.776   3.597   1.036  1.1588 -0.5590  0.1427
 4172SOL     OW22984   1.479   9.844   2.762 -0.3289  0.2389  0.2200
 4172SOL    HW122985   1.410   9.780   2.728 -0.7688  0.3445  0.9015
 4172SOL    HW222986   1.480   9.926   2.704 -0.3771 -0.0068 -0.1304
 4173SOL     OW22987   0.851   7.826   3.062  0.2423 -0.3286  0.2401
 4173SOL    HW122988   0.861   7.912   3.112 -0.0931 -0.6518  0.8570
 4173SOL    HW222989   0.770   7.778   3.093  1.8841 -2.1825  1.8368
 4174SOL     OW22990   8.228   6.810   2.131 -0.2751 -0.0668  0.0391
 4174SOL    HW122991   8.289   6.804   2.051  0.5389  2.7184  0.3894
 4174SOL    HW222992   8.262   6.749   2.203 -1.1020 -2.7126 -1.7590
 4175SOL     OW22993   7.470   8.885   4.119  0.3743 -0.2671 -0.2014
 4175SOL    HW122994   7.380   8.924   4.101  0.6376 -0.6996 -2.5807
 4175SOL    HW222995   7.532   8.907   4.043  2.5348  0.7757  1.8008
 4176SOL     OW22996   8.791   7.029   0.311  0.2396  0.0963  0.0751
 4176SOL    HW122997   8.715   7.080   0.351  0.5935  0.2827  0.5153
 4176SOL    HW222998   8.830   7.080   0.235  0.3692  0.3202  0.2917
 4177SOL     OW22999   5.298   7.629   2.485  0.8885 -0.0376 -0.3829
 4177SOL    HW123000   5.388   7.630   2.442  1.3889  1.2568  0.6421
 4177SOL    HW223001   5.308   7.644   2.584 -0.3587 -1.1738 -0.0636
 4178SOL     OW23002   1.332   0.685   0.735  0.2585  0.5448 -0.5164
 4178SOL    HW123003   1.426   0.719   0.741  0.7396 -0.6578 -1.0949
 4178SOL    HW223004   1.318   0.642   0.646 -0.4628 -0.4130  0.0557
 4179SOL     OW23005   2.187   8.666   4.277 -0.3892  0.2538 -0.2296
 4179SOL    HW123006   2.180   8.714   4.364 -0.4097  0.0150 -0.1009
 4179SOL    HW223007   2.283   8.663   4.249 -0.4311  0.7232 -0.4352
 4180SOL     OW23008   5.405   0.356   1.799 -0.9327 -0.1370  0.3629
 4180SOL    HW123009   5.482   0.324   1.853 -1.9597 -0.4096  1.6973
 4180SOL    HW223010   5.394   0.298   1.718  0.4231  0.0850  0.0188
 4181SOL     OW23011   1.730   1.746   1.427  0.2366  0.1505  0.8827
 4181SOL    HW123012   1.638   1.784   1.414  1.3694  3.1965  1.2309
 4181SOL    HW223013   1.745   1.672   1.362 -2.0667  0.3195  0.1033
 4182SOL     OW23014   4.284   0.043   3.695  0.0769 -0.1029 -0.8893
 4182SOL    HW123015   4.337  -0.041   3.709 -0.9992 -0.8141 -0.9451
 4182SOL    HW223016   4.226   0.031   3.614 -1.8757 -0.2407  0.4976
 4183SOL     OW23017   0.196   0.502   0.101  0.0911 -0.4219 -0.0586
 4183SOL    HW123018   0.124   0.496   0.171 -0.8314 -0.6502 -1.0082
 4183SOL    HW223019   0.272   0.443   0.127 -0.5786 -1.1136  0.3777
 4184SOL     OW23020   4.183   5.585   1.798  0.3247  0.3345 -0.3737
 4184SOL    HW123021   4.105   5.627   1.846  2.1370 -0.2081  3.2212
 4184SOL    HW223022   4.149   5.519   1.731 -2.3024  0.3182  0.9134
 4185SOL     OW23023   6.819   9.502   3.405 -0.1981  0.4615 -0.4362
 4185SOL    HW123024   6.890   9.573   3.400  0.2695 -0.0899 -1.9611
 4185SOL    HW223025   6.784   9.496   3.499  1.4168  1.0895  0.2217
 4186SOL     OW23026   1.061   5.904   0.026 -0.3542  0.0711  0.5845
 4186SOL    HW123027   1.036   5.873  -0.066  0.1718 -0.1298  0.5126
 4186SOL    HW223028   1.156   5.936   0.027 -0.8764  1.7050  0.6465
 4187SOL     OW23029   0.766   6.352   4.650 -0.2181  0.2209 -0.5541
 4187SOL    HW123030   0.745   6.410   4.571 -0.4098  0.5332 -0.2735
 4187SOL    HW223031   0.864   6.351   4.665 -0.2780  1.1143 -0.0728
 4188SOL     OW23032   1.656   4.673   2.238  0.4408 -0.0376  0.2851
 4188SOL    HW123033   1.658   4.587   2.290 -1.2732  0.4930  1.3089
 4188SOL    HW223034   1.601   4.740   2.288 -0.4558  0.8095 -1.7745
 4189SOL     OW23035   3.959   5.115   1.346 -0.3680 -0.7006 -0.3949
 4189SOL    HW123036   4.044   5.062   1.345 -1.7522 -3.0050  0.0837
 4189SOL    HW223037   3.908   5.095   1.429 -0.4887  2.1951  0.2699
 4190SOL     OW23038   0.579   9.477   3.427 -0.5437 -0.4323 -0.7686
 4190SOL    HW123039   0.648   9.496   3.357 -0.4424 -0.1661 -0.5957
 4190SOL    HW223040   0.611   9.512   3.516 -0.1211 -1.8659 -0.3460
 4191SOL     OW23041   2.323   0.805   4.225 -0.1366  0.2302  0.0172
 4191SOL    HW123042   2.366   0.721   4.192 -1.4442 -0.2315 -0.5579
 4191SOL    HW223043   2.234   0.783   4.266 -1.3854  1.5267 -1.9200
 4192SOL     OW23044   3.256   7.673   3.251  0.0670  0.2502 -0.4512
 4192SOL    HW123045   3.159   7.652   3.253  0.2656 -0.7024 -0.6255
 4192SOL    HW223046   3.283   7.698   3.158 -0.4123  2.5118 -0.0168
 4193SOL     OW23047   5.566   8.668   3.109 -0.2427  0.4829  0.4314
 4193SOL    HW123048   5.624   8.748   3.093  1.0543 -0.4441  0.4176
 4193SOL    HW223049   5.536   8.668   3.205 -0.1988  0.9578  0.4477
 4194SOL     OW23050   2.386   1.443   2.390  0.1283 -0.1320  0.0298
 4194SOL    HW123051   2.450   1.383   2.343  1.7485  1.6883 -0.1221
 4194SOL    HW223052   2.314   1.388   2.432  1.0779 -2.1021 -0.8671
 4195SOL     OW23053   3.001   2.675   0.836  0.3934 -0.1325  0.0870
 4195SOL    HW123054   3.010   2.756   0.893  1.4817  0.9170 -1.5348
 4195SOL    HW223055   2.925   2.619   0.869 -1.8187  2.6560 -0.1116
 4196SOL     OW23056   0.512   0.847   0.212 -0.3222  0.3689 -0.2558
 4196SOL    HW123057   0.588   0.907   0.188  1.1269 -1.4461 -0.2573
 4196SOL    HW223058   0.527   0.809   0.303 -1.2697  0.0715 -0.2185
 4197SOL     OW23059   6.923   7.926   3.468 -0.4931 -0.5373  0.1704
 4197SOL    HW123060   6.958   7.968   3.384 -0.7567 -0.0200  0.3129
 4197SOL    HW223061   6.999   7.915   3.533 -0.3306 -0.7266 -0.0511
 4198SOL     OW23062   4.430   1.624   1.111  0.0167  0.5183 -0.0776
 4198SOL    HW123063   4.379   1.537   1.112  0.3345  0.3195 -0.6889
 4198SOL    HW223064   4.456   1.645   1.017  0.6147  0.8834  0.1698
 4199SOL     OW23065   2.812   1.563   1.768  0.4172 -0.0104 -0.0196
 4199SOL    HW123066   2.866   1.479   1.778  1.5905  0.1440 -4.0743
 4199SOL    HW223067   2.716   1.543   1.791  0.0009 -3.4557 -4.1443
 4200SOL     OW23068   3.153   3.270   0.050  0.1842  0.0379 -0.3977
 4200SOL    HW123069   3.102   3.278  -0.035 -1.7988 -2.5204  0.4891
 4200SOL    HW223070   3.097   3.302   0.126  0.4673 -1.3147  0.3991
 4201SOL     OW23071   3.918   7.654   1.031 -0.6069 -0.1028  0.0090
 4201SOL    HW123072   3.841   7.622   1.086 -0.3419  1.7593  1.4842
 4201SOL    HW223073   3.936   7.750   1.050  2.6690 -0.7205  0.3976
 4202SOL     OW23074   5.652   8.385   3.042  0.3551 -0.3538 -0.2806
 4202SOL    HW123075   5.642   8.481   3.016  0.0031 -0.5454 -0.8729
 4202SOL    HW223076   5.665   8.378   3.141  0.2633  0.2941 -0.2213
 4203SOL     OW23077   2.343   2.006   1.790  0.0080 -0.4377 -0.3183
 4203SOL    HW123078   2.244   1.995   1.792 -0.1530  0.8570 -0.6926
 4203SOL    HW223079   2.378   2.013   1.883 -0.0294 -2.6689 -0.1151
 4204SOL     OW23080   0.773   1.128   0.970 -0.6907 -0.2710  0.4421
 4204SOL    HW123081   0.760   1.211   0.916  1.0084  0.4435  1.0971
 4204SOL    HW223082   0.695   1.114   1.030 -2.0685 -0.4466 -1.3550
 4205SOL     OW23083   9.120   7.477   0.345 -0.4702  0.1739  0.8960
 4205SOL    HW123084   9.199   7.436   0.392  0.6035  0.3312 -0.7278
 4205SOL    HW223085   9.132   7.577   0.341 -0.5120  0.1509  0.2078
 4206SOL     OW23086   1.553   6.098   4.229 -0.2765  0.3388 -0.2315
 4206SOL    HW123087   1.456   6.119   4.221  0.1456  1.4725 -2.5769
 4206SOL    HW223088   1.605   6.153   4.164  2.0051  0.1402  1.3698
 4207SOL     OW23089   4.082   8.443   0.450 -0.6959  0.2311  0.0556
 4207SOL    HW123090   4.100   8.541   0.441  0.4395  0.1992  1.8600
 4207SOL    HW223091   4.141   8.404   0.521 -0.4584 -1.9585 -1.2956
 4208SOL     OW23092   6.486   8.434   2.350 -0.7914  0.1389  0.0554
 4208SOL    HW123093   6.463   8.525   2.385  2.2470  0.7919  0.4324
 4208SOL    HW223094   6.469   8.366   2.422 -0.0726  0.7879  0.8548
 4209SOL     OW23095   7.722   8.555   0.026  0.5677  0.0080  0.3073
 4209SOL    HW123096   7.639   8.525  -0.021  0.3322 -0.4061  0.9832
 4209SOL    HW223097   7.800   8.549  -0.037  0.3998 -1.3139  0.2043
 4210SOL     OW23098   9.394   9.201   3.698 -0.1027 -0.2643  0.4131
 4210SOL    HW123099   9.429   9.247   3.780  0.0232 -1.7547  1.2164
 4210SOL    HW223100   9.346   9.267   3.640 -0.0344  0.8447  1.6071
 4211SOL     OW23101   2.247   8.184   0.401 -0.2321  0.2549 -0.1203
 4211SOL    HW123102   2.229   8.095   0.357  1.6389 -0.3495  0.3009
 4211SOL    HW223103   2.243   8.173   0.500  0.4534  0.5476 -0.0609
 4212SOL     OW23104   8.064   9.524   1.443 -0.4968 -0.2296  0.1265
 4212SOL    HW123105   8.150   9.480   1.469 -0.3664  0.0836  0.2390
 4212SOL    HW223106   8.008   9.460   1.391 -0.1949 -0.4379  0.0544
 4213SOL     OW23107   3.017   8.046   0.643  0.2205 -0.0113 -0.2143
 4213SOL    HW123108   2.936   8.035   0.702  0.9633  1.1150  1.0553
 4213SOL    HW223109   2.992   8.031   0.548 -0.9831 -2.0691  0.3957
 4214SOL     OW23110   4.099   3.742   0.601  0.2937  0.3305  0.6718
 4214SOL    HW123111   4.154   3.811   0.554  1.3410 -0.7431  0.3058
 4214SOL    HW223112   4.013   3.783   0.632  0.9153  1.7959  0.4719
 4215SOL     OW23113   0.463   2.430   4.538 -0.4366  0.2955  0.3222
 4215SOL    HW123114   0.434   2.339   4.509  0.2194 -0.1118  0.9478
 4215SOL    HW223115   0.407   2.460   4.615 -0.7715  0.4992  0.0016
 4216SOL     OW23116   2.085   5.011   1.855  0.5341  0.7042  0.3131
 4216SOL    HW123117   2.046   4.927   1.892  0.1204 -0.5776 -2.8890
 4216SOL    HW223118   2.184   5.010   1.868  0.5762 -0.4842 -0.0246
 4217SOL     OW23119   2.529   7.950   1.806  0.4120  0.5331 -0.2017
 4217SOL    HW123120   2.542   8.048   1.820  0.6347  0.4614  0.0970
 4217SOL    HW223121   2.454   7.918   1.864  1.3399  0.2341  0.8599
 4218SOL     OW23122   7.943   7.137   0.368 -0.3565  0.5266 -0.5786
 4218SOL    HW123123   7.926   7.073   0.293  0.7835 -0.3743 -0.0832
 4218SOL    HW223124   7.996   7.215   0.335 -0.7866  0.6619 -0.9447
 4219SOL     OW23125   3.996   2.697   0.292 -0.5527  0.0098  0.3986
 4219SOL    HW123126   3.923   2.701   0.360 -0.8156  0.6604  0.0809
 4219SOL    HW223127   4.077   2.743   0.327 -0.3981 -0.4286  0.6217
 4220SOL     OW23128   8.863   9.126   0.846  0.0861 -0.0009 -0.0305
 4220SOL    HW123129   8.856   9.212   0.896  0.6168 -0.2249  0.4296
 4220SOL    HW223130   8.803   9.129   0.765 -1.6070 -0.0378  1.1911
 4221SOL     OW23131   2.895   2.879   4.614 -0.5403 -0.0539  0.2180
 4221SOL    HW123132   2.989   2.846   4.610 -1.1185 -1.6964 -0.2361
 4221SOL    HW223133   2.834   2.804   4.641 -2.1843 -0.0308 -3.0709
 4222SOL     OW23134   2.212   4.811   1.633 -0.0875  0.0817 -0.3790
 4222SOL    HW123135   2.162   4.757   1.565 -1.5615  0.8865  0.0507
 4222SOL    HW223136   2.203   4.769   1.723 -1.4354  1.1748 -0.0044
 4223SOL     OW23137   7.532   8.663   0.528  0.0373 -0.2261  0.0332
 4223SOL    HW123138   7.604   8.605   0.490  0.3762 -0.6688  1.3237
 4223SOL    HW223139   7.553   8.683   0.624 -0.9508  0.6269  0.0783
 4224SOL     OW23140   2.171   5.397   2.165 -0.1492 -0.0809  0.0818
 4224SOL    HW123141   2.117   5.481   2.169  1.0059  0.6114  1.9551
 4224SOL    HW223142   2.110   5.318   2.157 -1.4642  0.6901  2.2295
 4225SOL     OW23143   4.001   4.533   1.420  0.3159  0.3197  0.1838
 4225SOL    HW123144   3.979   4.602   1.351 -1.6858  0.1774  0.6418
 4225SOL    HW223145   4.025   4.579   1.506  2.6852  0.4935 -0.5276
 4226SOL     OW23146   9.488   8.474   1.005  0.1983  0.3272 -0.4608
 4226SOL    HW123147   9.492   8.435   1.097  2.9882  0.4280 -0.4976
 4226SOL    HW223148   9.395   8.466   0.969 -0.3997 -1.7855  1.4657
 4227SOL     OW23149   2.681   8.611   2.292 -0.0475 -0.9176 -0.1714
 4227SOL    HW123150   2.584   8.630   2.277 -0.4044 -2.1955  0.4136
 4227SOL    HW223151   2.690   8.524   2.341  1.3838 -0.6592  0.0337
 4228SOL     OW23152   2.936   5.064   4.613  0.7918 -0.2192  0.5585
 4228SOL    HW123153   2.837   5.078   4.618  0.9683  2.8142 -2.5638
 4228SOL    HW223154   2.981   5.125   4.678  0.6871  0.3299  0.1269
 4229SOL     OW23155   9.526   5.939   3.226 -0.1433  0.0227  0.3458
 4229SOL    HW123156   9.461   5.887   3.280  0.4221 -2.3677 -1.1794
 4229SOL    HW223157   9.476   5.997   3.161 -0.7777  1.2746  1.9277
 4230SOL     OW23158   3.499   9.358   4.157  0.1937  0.2598 -0.3959
 4230SOL    HW123159   3.507   9.293   4.232  1.3137  1.0756  0.2167
 4230SOL    HW223160   3.449   9.439   4.188  0.4549  0.4992 -0.5914
 4231SOL     OW23161   1.365   4.006   0.013  0.1335  0.4222  0.1029
 4231SOL    HW123162   1.400   4.088  -0.032  0.0708  0.1009 -0.5322
 4231SOL    HW223163   1.277   4.025   0.055  0.1820  0.7129  0.0703
 4232SOL     OW23164   4.497   1.449   2.200  0.4370 -0.4897 -0.5061
 4232SOL    HW123165   4.508   1.389   2.280  0.1939  1.5232  1.0685
 4232SOL    HW223166   4.546   1.535   2.216 -0.0261  0.1329 -2.3266
 4233SOL     OW23167   0.564   8.638   2.753  0.0794  0.4467  0.2578
 4233SOL    HW123168   0.662   8.650   2.770  0.2234 -0.4817  0.0750
 4233SOL    HW223169   0.514   8.718   2.788  1.0513  1.6414 -1.0349
 4234SOL     OW23170   3.363   0.018   3.225 -0.0159  0.1900  0.0359
 4234SOL    HW123171   3.341  -0.011   3.318 -0.9109 -0.5559 -0.4001
 4234SOL    HW223172   3.339  -0.055   3.161  1.3435  0.3766 -0.7050
 4235SOL     OW23173   8.252   9.047   1.475 -0.5715  0.4112  0.4383
 4235SOL    HW123174   8.232   9.105   1.553 -0.7843 -1.7290  2.0179
 4235SOL    HW223175   8.311   9.096   1.411 -2.1447  2.9451  0.8886
 4236SOL     OW23176   0.702   9.448   3.996 -0.6286  0.0306  0.3117
 4236SOL    HW123177   0.762   9.372   4.018 -1.2352  0.1651  2.4828
 4236SOL    HW223178   0.613   9.413   3.967 -0.3221 -0.1044 -0.4954
 4237SOL     OW23179   8.744   8.734   4.568  0.0989 -0.2959 -0.1960
 4237SOL    HW123180   8.692   8.820   4.565 -1.0586 -0.8797  1.6748
 4237SOL    HW223181   8.699   8.666   4.510 -0.6230 -0.4689  0.5519
 4238SOL     OW23182   1.625   7.924   3.627 -0.1753  0.2487 -0.1599
 4238SOL    HW123183   1.531   7.888   3.628 -0.3005  0.5479 -0.7976
 4238SOL    HW223184   1.679   7.878   3.697 -1.9180  3.0731  3.2111
 4239SOL     OW23185   0.302   9.822   4.387  0.3391 -0.1118  0.0298
 4239SOL    HW123186   0.203   9.809   4.380  0.2706  0.2416  0.2878
 4239SOL    HW223187   0.344   9.802   4.298 -0.1557  1.3399 -0.5533
 4240SOL     OW23188   3.146   3.524   3.560  0.4162 -0.2070 -0.5108
 4240SOL    HW123189   3.203   3.464   3.616  0.0833 -1.6563 -1.6789
 4240SOL    HW223190   3.157   3.619   3.589  0.9184 -0.8468  1.4077
 4241SOL     OW23191   2.380   6.701   2.760 -0.3425 -0.4628  0.2183
 4241SOL    HW123192   2.414   6.656   2.678 -0.1812 -1.7386  0.9757
 4241SOL    HW223193   2.357   6.796   2.739  0.0668 -0.6723 -1.2012
 4242SOL     OW23194   4.162   7.189   2.517 -0.0238 -0.2491 -1.2063
 4242SOL    HW123195   4.204   7.228   2.436  0.2657  0.2638 -0.8100
 4242SOL    HW223196   4.165   7.256   2.592  0.6240 -1.0865 -0.4750
 4243SOL     OW23197   3.038   5.597   2.303  0.3511 -0.2863 -0.1593
 4243SOL    HW123198   3.053   5.513   2.250 -1.6380 -1.1815  0.6458
 4243SOL    HW223199   3.090   5.592   2.388  2.1960  0.4168 -1.1935
 4244SOL     OW23200   1.542   4.246   3.041  0.1227  0.3236 -0.0176
 4244SOL    HW123201   1.537   4.148   3.059  4.2736  0.0679  0.3087
 4244SOL    HW223202   1.594   4.262   2.957  2.0726  2.2783  1.4921
 4245SOL     OW23203   0.729   1.883   0.310 -0.1957 -0.1875 -0.0694
 4245SOL    HW123204   0.674   1.802   0.289 -0.1275 -0.2524 -0.0002
 4245SOL    HW223205   0.722   1.903   0.408  1.6817 -1.5277  0.3829
 4246SOL     OW23206   1.378   5.965   0.802 -0.0839 -0.2990  0.6537
 4246SOL    HW123207   1.404   5.902   0.876 -1.9749 -2.6187 -0.5774
 4246SOL    HW223208   1.288   6.005   0.823 -0.4572 -0.6808 -0.2097
 4247SOL     OW23209   4.195   2.452   1.708 -0.2122 -0.1852  0.5072
 4247SOL    HW123210   4.181   2.526   1.641 -0.5290 -0.7534 -0.0578
 4247SOL    HW223211   4.148   2.370   1.677 -0.0145 -0.5752  1.2332
 4248SOL     OW23212   1.104   4.367   0.736  0.1609  0.0105 -0.0190
 4248SOL    HW123213   1.036   4.431   0.700 -1.1923 -0.7610  1.1310
 4248SOL    HW223214   1.193   4.413   0.743 -0.9320  1.9450  1.4108
 4249SOL     OW23215   5.836   8.629   1.954  0.6594 -0.1747  0.1950
 4249SOL    HW123216   5.865   8.541   1.917 -0.4480 -0.7225  0.6139
 4249SOL    HW223217   5.755   8.661   1.906  1.4519  0.9660 -0.4261
 4250SOL     OW23218   0.634   9.956   0.005 -0.0784 -0.2220 -0.0135
 4250SOL    HW123219   0.572  10.018  -0.043  0.3188  0.1595 -0.0382
 4250SOL    HW223220   0.595   9.865   0.006 -1.5137  0.3912  1.5786
 4251SOL     OW23221   1.501   0.045   2.579 -0.1729 -0.5214  0.0927
 4251SOL    HW123222   1.593   0.020   2.551 -0.1897 -1.5743  0.9461
 4251SOL    HW223223   1.466   0.117   2.519  1.7803  0.9899  0.7102
 4252SOL     OW23224   0.532   2.114   3.485 -0.0720  0.0354 -0.3612
 4252SOL    HW123225   0.521   2.212   3.469 -1.7982 -0.0124  0.4471
 4252SOL    HW223226   0.577   2.100   3.573  2.0331  0.1230 -1.3921
 4253SOL     OW23227   3.731   8.784   1.073 -0.6142 -0.1258  0.3946
 4253SOL    HW123228   3.640   8.755   1.100 -1.1027  2.0889  1.2805
 4253SOL    HW223229   3.727   8.877   1.036  1.4663  0.6023  1.9041
 4254SOL     OW23230   0.411   4.055   3.568 -0.0681 -0.7493 -0.4653
 4254SOL    HW123231   0.503   4.019   3.549  0.8653  1.0286  0.5567
 4254SOL    HW223232   0.405   4.150   3.538 -0.5111  0.1767  2.3808
 4255SOL     OW23233   3.399   4.690   0.389  0.0937  0.1782  0.3232
 4255SOL    HW123234   3.325   4.656   0.448  0.2857 -1.9551 -0.6265
 4255SOL    HW223235   3.362   4.716   0.300  0.3483 -0.0658  0.1438
 4256SOL     OW23236   6.682   8.705   1.154  0.1193  0.6078  0.6503
 4256SOL    HW123237   6.759   8.653   1.116  0.3693  0.4406  1.3788
 4256SOL    HW223238   6.617   8.642   1.197  0.1120  0.8474  0.9890
 4257SOL     OW23239   3.279   0.668   1.999  0.0586  0.4149 -0.3103
 4257SOL    HW123240   3.369   0.628   2.017  0.0401 -0.3100 -1.7909
 4257SOL    HW223241   3.236   0.621   1.922 -1.8955  0.2959  0.8145
 4258SOL     OW23242   8.330   8.209   3.095  0.9642  0.0813  0.4951
 4258SOL    HW123243   8.259   8.184   3.161  0.0552  0.1343 -0.4473
 4258SOL    HW223244   8.344   8.133   3.031  0.3520  0.8132 -0.5237
 4259SOL     OW23245   7.422   9.831   0.269 -0.0183  0.1813 -0.2525
 4259SOL    HW123246   7.429   9.826   0.368  1.8199 -0.8042 -0.4054
 4259SOL    HW223247   7.421   9.927   0.240  1.4061  0.4594  0.5972
 4260SOL     OW23248   9.328   9.778   3.164 -0.0829  0.3810  0.1977
 4260SOL    HW123249   9.368   9.686   3.168 -0.7873  0.0688 -0.0532
 4260SOL    HW223250   9.375   9.837   3.230 -0.4759 -0.4895  1.2740
 4261SOL     OW23251   2.992   7.230   4.441  0.1036 -0.0432 -0.0938
 4261SOL    HW123252   2.897   7.202   4.429 -0.7420  1.7199  2.0113
 4261SOL    HW223253   3.030   7.184   4.521  0.5131  0.4339 -0.0139
 4262SOL     OW23254   9.066   6.869   2.825 -0.6068 -0.2151 -0.5404
 4262SOL    HW123255   9.074   6.808   2.746  0.3254 -1.0429  0.1808
 4262SOL    HW223256   9.020   6.953   2.798  0.2588 -0.2306 -2.1113
 4263SOL     OW23257   8.629   8.658   1.493  0.2955 -0.2638 -0.1016
 4263SOL    HW123258   8.686   8.705   1.425 -1.0591 -0.3258 -1.3005
 4263SOL    HW223259   8.540   8.638   1.453 -0.4640 -0.4422  1.6630
 4264SOL     OW23260   0.338   1.063   0.916  0.2966 -0.0062  0.2687
 4264SOL    HW123261   0.266   1.090   0.853  0.7953 -0.8444 -0.6783
 4264SOL    HW223262   0.302   1.059   1.009 -0.9286 -0.6681 -0.2341
 4265SOL     OW23263   1.731   7.872   1.758 -0.0989 -0.3517  0.0952
 4265SOL    HW123264   1.690   7.787   1.725 -0.4728 -0.0050 -0.3351
 4265SOL    HW223265   1.757   7.929   1.679 -0.3332  0.1605  0.3846
 4266SOL     OW23266   2.588   2.846   1.511 -0.2511  0.5376  0.3056
 4266SOL    HW123267   2.606   2.929   1.458 -0.6622  0.2657 -0.2623
 4266SOL    HW223268   2.490   2.829   1.515 -0.1941  0.2883  0.7509
 4267SOL     OW23269   2.387   8.980   0.089  0.2282  0.2984  0.5479
 4267SOL    HW123270   2.299   8.977   0.136 -0.3772  0.0202 -0.5963
 4267SOL    HW223271   2.386   8.918   0.011  0.5581  2.1189 -0.9565
 4268SOL     OW23272   2.102   6.014   4.268  0.0567 -0.1869  0.1032
 4268SOL    HW123273   2.099   6.113   4.255  2.9771 -0.1401 -0.4142
 4268SOL    HW223274   2.124   5.994   4.364 -0.6835 -0.3698  0.2435
 4269SOL     OW23275   8.873   6.924   1.723  0.2121  0.3713 -0.4097
 4269SOL    HW123276   8.791   6.965   1.763  1.6205  1.6877  1.2115
 4269SOL    HW223277   8.952   6.944   1.781  2.2260  1.7407 -3.4762
 4270SOL     OW23278   1.915   8.729   2.293  0.0465 -0.0524  0.0287
 4270SOL    HW123279   1.959   8.712   2.204 -0.6770  1.8815 -0.7137
 4270SOL    HW223280   1.825   8.686   2.294 -0.0303  0.1011 -0.2487
 4271SOL     OW23281   7.604   8.358   2.589  0.0086  0.2773  0.3129
 4271SOL    HW123282   7.591   8.436   2.649 -0.9021 -0.8864  1.6678
 4271SOL    HW223283   7.612   8.275   2.644  0.3381 -0.6603 -1.1239
 4272SOL     OW23284   0.855   9.917   4.605 -0.3133  0.0368  0.4681
 4272SOL    HW123285   0.761   9.925   4.637 -0.5423 -0.5673 -0.0263
 4272SOL    HW223286   0.880   9.999   4.553 -0.8124 -0.1126 -0.0132
 4273SOL     OW23287   1.534   6.515   1.398  0.2543 -0.0998 -0.3642
 4273SOL    HW123288   1.457   6.473   1.351 -0.2310 -0.8068  1.0055
 4273SOL    HW223289   1.503   6.595   1.449  0.4698 -0.2385 -0.0104
 4274SOL     OW23290   0.607   5.319   1.755 -0.1464  0.2337 -0.0901
 4274SOL    HW123291   0.570   5.231   1.725 -1.9627  0.7504  0.5523
 4274SOL    HW223292   0.705   5.322   1.736 -0.4878 -1.0272 -2.2002
 4275SOL     OW23293   2.292   4.986   2.615  0.5083 -0.0143 -0.5315
 4275SOL    HW123294   2.370   5.020   2.561  0.4005  1.6329  0.3243
 4275SOL    HW223295   2.214   4.971   2.554  0.7394  0.7333 -1.0246
 4276SOL     OW23296   8.407   6.209   0.589 -0.5222  0.2746  0.0647
 4276SOL    HW123297   8.471   6.274   0.630 -1.0731 -0.0323  1.4328
 4276SOL    HW223298   8.353   6.255   0.518  0.1094  0.9305  0.0008
 4277SOL     OW23299   1.651   2.071   1.478 -1.0761  0.7521 -0.4169
 4277SOL    HW123300   1.565   2.086   1.429 -1.1088  3.1018  0.2767
 4277SOL    HW223301   1.634   2.063   1.576 -0.5255  1.1190 -0.2856
 4278SOL     OW23302   8.065   8.673   2.066 -0.0418  0.1627 -0.5846
 4278SOL    HW123303   7.966   8.659   2.059  0.1102 -2.0271  1.1647
 4278SOL    HW223304   8.110   8.623   1.992 -0.1816  0.1127 -0.6379
 4279SOL     OW23305   2.020   2.667   2.966  0.0310  0.1910  0.0679
 4279SOL    HW123306   1.965   2.643   2.886  1.5511  1.0622 -1.2695
 4279SOL    HW223307   2.070   2.586   2.998  1.4058  0.4167 -1.4632
 4280SOL     OW23308   4.168   2.273   2.224 -1.1136  0.2933 -0.1654
 4280SOL    HW123309   4.192   2.217   2.303 -1.3146  1.0905  0.4653
 4280SOL    HW223310   4.102   2.223   2.167  0.8970 -1.3245 -1.1694
 4281SOL     OW23311   8.821   6.631   4.705 -0.1789  0.0312  0.2396
 4281SOL    HW123312   8.744   6.604   4.762 -1.0923 -0.6009 -1.2447
 4281SOL    HW223313   8.885   6.554   4.697  0.1872  0.2783  0.7988
 4282SOL     OW23314   8.333   6.060   1.216  0.3241 -0.4713 -0.7204
 4282SOL    HW123315   8.345   6.151   1.178  0.3046 -0.8145 -1.5634
 4282SOL    HW223316   8.347   5.991   1.144 -0.6468 -1.0950 -0.3378
 4283SOL     OW23317   0.830   4.358   2.551  0.2241  0.0922  0.0371
 4283SOL    HW123318   0.866   4.313   2.470 -0.7192 -0.2051 -0.2315
 4283SOL    HW223319   0.738   4.323   2.570  0.1558  0.6760  0.8193
 4284SOL     OW23320   6.218   9.968   3.192  0.0525 -0.0739 -0.2658
 4284SOL    HW123321   6.205  10.067   3.189 -0.8782 -0.2356 -1.8482
 4284SOL    HW223322   6.313   9.946   3.169  0.8666  0.5636  2.3234
 4285SOL     OW23323   9.939   5.257   2.365  0.1157 -0.0599 -0.2453
 4285SOL    HW123324   9.953   5.194   2.288 -0.8261  0.5800 -0.9589
 4285SOL    HW223325  10.016   5.320   2.370 -0.2556  0.5029 -1.2803
 4286SOL     OW23326   3.852   1.202   0.388 -0.4676  0.1281  0.3290
 4286SOL    HW123327   3.769   1.247   0.420  0.8760  2.0210  1.2300
 4286SOL    HW223328   3.878   1.239   0.299 -0.9077 -0.9064 -0.2431
 4287SOL     OW23329   7.422   9.384   0.838  0.4802 -0.0221 -0.1457
 4287SOL    HW123330   7.426   9.417   0.932 -0.1479 -1.6940  0.4822
 4287SOL    HW223331   7.326   9.375   0.810  0.6243 -1.9484 -0.0700
 4288SOL     OW23332   1.455   8.573   1.480  0.1792  0.2246 -0.5207
 4288SOL    HW123333   1.481   8.510   1.553 -1.8370 -0.5090 -0.3937
 4288SOL    HW223334   1.533   8.588   1.419  1.3482 -0.5651  0.7541
 4289SOL     OW23335   1.395   4.292   2.063  0.3529  0.8713  0.4277
 4289SOL    HW123336   1.395   4.361   1.991 -0.9236 -0.5335 -0.9547
 4289SOL    HW223337   1.481   4.242   2.061  0.7374  1.5189  0.5665
 4290SOL     OW23338   3.499   9.689   3.737 -0.6598 -0.0595 -0.1724
 4290SOL    HW123339   3.428   9.653   3.678 -0.6504 -0.5135  0.0930
 4290SOL    HW223340   3.462   9.705   3.829 -0.7303  0.8410 -0.3517
 4291SOL     OW23341   0.733   8.143   3.669 -0.0807  0.7303  0.3101
 4291SOL    HW123342   0.641   8.142   3.707 -1.0113 -0.4860 -1.8976
 4291SOL    HW223343   0.764   8.238   3.659 -2.1010  1.2550 -1.2483
 4292SOL     OW23344   2.876   7.571   1.645 -0.1933  0.7034  0.2475
 4292SOL    HW123345   2.922   7.599   1.729  0.2666 -1.0027  0.5767
 4292SOL    HW223346   2.913   7.484   1.614  0.5045  1.8795 -2.3987
 4293SOL     OW23347   8.765   9.654   2.062 -0.0781  0.3333  0.2560
 4293SOL    HW123348   8.817   9.569   2.069  0.2233  0.5354  0.4846
 4293SOL    HW223349   8.743   9.671   1.966  2.9097  1.7890 -0.2339
 4294SOL     OW23350   7.497   8.270   1.016 -0.1351  0.4114  0.1956
 4294SOL    HW123351   7.498   8.174   1.045  0.9138  0.5310  0.6005
 4294SOL    HW223352   7.591   8.305   1.018 -0.2253  0.8526 -1.9219
 4295SOL     OW23353   1.020   7.550   2.297  0.2114  0.3652  0.2813
 4295SOL    HW123354   1.110   7.519   2.326 -0.5528 -0.9405  1.3374
 4295SOL    HW223355   0.990   7.625   2.356  1.6287  2.5249 -1.6378
 4296SOL     OW23356   4.048   0.985   2.088 -0.2982  0.6281  0.4872
 4296SOL    HW123357   4.092   0.896   2.073  0.4182  0.7728  1.6470
 4296SOL    HW223358   4.013   1.019   2.001 -0.5220 -0.7533  0.0131
 4297SOL     OW23359   0.002   9.881   3.241 -0.3416  0.3133 -0.2333
 4297SOL    HW123360   0.001   9.961   3.301 -2.6786  0.1299  0.0180
 4297SOL    HW223361   0.093   9.870   3.201 -0.0914  3.3051 -0.5661
 4298SOL     OW23362   2.839   5.568   1.375  0.2517 -0.4477 -0.3148
 4298SOL    HW123363   2.837   5.660   1.415  0.6369 -0.3631 -0.4837
 4298SOL    HW223364   2.885   5.572   1.286  0.7031 -0.8893 -0.1023
 4299SOL     OW23365   7.860   0.229   1.393  0.6933 -0.6887 -0.0379
 4299SOL    HW123366   7.924   0.159   1.426 -1.7531 -3.0411 -0.1044
 4299SOL    HW223367   7.767   0.197   1.407 -0.5251  3.1166  0.9926
 4300SOL     OW23368   2.037   2.399   2.525 -0.3099  0.6622 -0.5948
 4300SOL    HW123369   2.014   2.463   2.599  0.2637  0.1904 -0.0016
 4300SOL    HW223370   1.980   2.418   2.445 -0.3089  1.7675 -0.3398
 4301SOL     OW23371   6.872   7.977   2.906  0.0494 -0.1568  0.3479
 4301SOL    HW123372   6.859   8.048   2.975 -0.3106 -0.1448  0.2678
 4301SOL    HW223373   6.850   7.888   2.945 -0.6637 -0.0922  0.0918
 4302SOL     OW23374   8.002   6.939   2.628  0.1574  0.5278 -0.4511
 4302SOL    HW123375   8.053   6.985   2.701 -0.4518  0.3464  0.0957
 4302SOL    HW223376   8.056   6.939   2.544  0.2496  2.0447 -0.3950
 4303SOL     OW23377   9.587   7.623   3.366 -0.4305  0.2571 -0.0930
 4303SOL    HW123378   9.493   7.601   3.394 -0.1730 -0.8177 -0.0671
 4303SOL    HW223379   9.617   7.558   3.296  0.5092  0.2500  0.3142
 4304SOL     OW23380   2.831   6.077   3.201 -0.5771  0.0550  0.2673
 4304SOL    HW123381   2.792   5.987   3.219  0.7673 -0.6745 -0.4049
 4304SOL    HW223382   2.764   6.135   3.156 -0.9540 -1.1137 -0.6897
 4305SOL     OW23383   3.125   0.419   3.362  0.2237 -0.1739  0.2291
 4305SOL    HW123384   3.178   0.503   3.347  0.6553 -0.2677  1.1966
 4305SOL    HW223385   3.041   0.422   3.308  1.2680 -0.0718 -1.4163
 4306SOL     OW23386   1.393   5.948   0.214  0.3828 -0.3114 -0.4552
 4306SOL    HW123387   1.356   5.858   0.190  0.9382 -0.5266 -0.5062
 4306SOL    HW223388   1.420   5.996   0.131  1.6193 -0.7606 -0.3176
 4307SOL     OW23389   5.218   9.958   1.993  0.4467  0.1648  0.4208
 4307SOL    HW123390   5.172   9.897   1.929  1.6657 -0.7014  0.3590
 4307SOL    HW223391   5.152   9.988   2.063 -0.5946  0.1917 -0.5515
 4308SOL     OW23392   7.608   8.759   2.417 -0.1729 -0.2545 -0.1165
 4308SOL    HW123393   7.591   8.725   2.510 -1.3189  0.4067 -0.0706
 4308SOL    HW223394   7.683   8.708   2.377 -0.7452 -1.6959  0.5781
 4309SOL     OW23395   8.399   8.740   4.769 -0.6077 -0.1067  0.0514
 4309SOL    HW123396   8.363   8.820   4.721 -0.3078  0.5058  0.8308
 4309SOL    HW223397   8.494   8.758   4.796 -1.2294  0.1252  2.1526
 4310SOL     OW23398   9.262   0.229   4.357  0.0224 -0.4203  0.1202
 4310SOL    HW123399   9.333   0.275   4.410 -0.8238 -0.7724  1.6051
 4310SOL    HW223400   9.213   0.165   4.416 -1.8078  0.1239 -0.7526
 4311SOL     OW23401   8.227   6.764   3.983 -1.0978  0.5918 -0.3130
 4311SOL    HW123402   8.178   6.840   3.941 -3.1616 -0.8965 -0.6366
 4311SOL    HW223403   8.261   6.702   3.912 -1.1413  0.1778  0.0201
 4312SOL     OW23404   8.367   0.051   2.264  0.4576 -1.1835 -0.4888
 4312SOL    HW123405   8.429   0.101   2.203  2.3918 -2.7916  0.1154
 4312SOL    HW223406   8.278   0.041   2.220  1.2078 -0.5540 -2.1901
 4313SOL     OW23407   1.310   1.167   2.288 -0.3024 -0.1727 -0.4252
 4313SOL    HW123408   1.350   1.229   2.220  0.5043  1.7051  1.6843
 4313SOL    HW223409   1.375   1.093   2.307  0.7010  0.8919  0.3735
 4314SOL     OW23410   0.524   2.220   2.081  0.5623  0.1379  1.2652
 4314SOL    HW123411   0.427   2.204   2.100 -0.5612  1.0680 -3.1232
 4314SOL    HW223412   0.564   2.137   2.041  1.2454  0.2636  1.6712
 4315SOL     OW23413   6.530   7.927   1.905 -1.0308 -0.2405  0.1909
 4315SOL    HW123414   6.508   7.934   2.002  0.1517 -1.0142  0.5291
 4315SOL    HW223415   6.604   7.991   1.883 -1.7852  0.4503 -0.3612
 4316SOL     OW23416   9.934   6.132   3.277 -0.2404  0.1801 -0.1149
 4316SOL    HW123417   9.881   6.195   3.219  1.9212  0.4406 -1.8477
 4316SOL    HW223418  10.000   6.184   3.331  0.4040 -0.4410 -0.3035
 4317SOL     OW23419   8.780   7.700   0.893  0.7682  0.2753  0.1368
 4317SOL    HW123420   8.726   7.766   0.842  0.7264  1.6662  1.9349
 4317SOL    HW223421   8.720   7.626   0.926  0.7055 -0.3397 -1.3211
 4318SOL     OW23422   0.894   0.616   0.464 -0.1617 -0.1503 -0.1010
 4318SOL    HW123423   0.965   0.674   0.503 -1.0592  0.0668  1.2347
 4318SOL    HW223424   0.852   0.560   0.536 -1.6296  0.0285 -0.7822
 4319SOL     OW23425   4.090   1.832   1.946 -0.3239  0.1277  0.1344
 4319SOL    HW123426   4.099   1.919   1.994 -1.6472  0.4658 -0.2091
 4319SOL    HW223427   4.007   1.833   1.890  0.3211 -0.8763 -0.8657
 4320SOL     OW23428   0.743   2.309   3.687 -0.0537  0.2982 -0.3071
 4320SOL    HW123429   0.690   2.384   3.649 -0.3252 -0.7296 -1.9769
 4320SOL    HW223430   0.839   2.318   3.659  0.1793  0.7588  0.6162
 4321SOL     OW23431   1.597   8.230   2.222 -0.5903 -0.3405 -0.0298
 4321SOL    HW123432   1.633   8.186   2.304  2.7185  2.5538  0.1649
 4321SOL    HW223433   1.614   8.172   2.143  0.6578 -0.9317  0.6616
 4322SOL     OW23434   8.161   8.695   0.168  0.1788 -0.1779  0.3020
 4322SOL    HW123435   8.205   8.742   0.092 -0.7446  1.4348  0.7491
 4322SOL    HW223436   8.217   8.617   0.196  1.4253  0.2970 -0.8343
 4323SOL     OW23437   9.562   9.206   1.225 -0.3272  0.5343 -0.0270
 4323SOL    HW123438   9.569   9.179   1.320 -1.0958  0.3121 -0.0307
 4323SOL    HW223439   9.469   9.190   1.192 -0.8166  3.1230 -0.0392
 4324SOL     OW23440   3.312   2.209   3.497  0.3238  0.2019  0.0657
 4324SOL    HW123441   3.308   2.121   3.450 -0.4036  0.2324  0.0625
 4324SOL    HW223442   3.293   2.196   3.594 -0.2999  0.4268 -0.0267
 4325SOL     OW23443   2.594   4.255   1.241  0.7488 -0.3312 -0.0657
 4325SOL    HW123444   2.635   4.315   1.310  1.0667 -0.3839 -0.2055
 4325SOL    HW223445   2.642   4.167   1.241  1.1155 -0.1399 -0.7293
 4326SOL     OW23446   3.939   9.886   2.142 -0.3448 -0.1417  0.0263
 4326SOL    HW123447   3.959   9.980   2.116 -1.0180  0.2219  0.8089
 4326SOL    HW223448   3.946   9.876   2.241 -0.1506 -0.9496 -0.0592
 4327SOL     OW23449   2.782   7.796   0.556 -0.0288 -0.4870 -0.5320
 4327SOL    HW123450   2.880   7.778   0.558  0.0107 -0.2433 -0.1513
 4327SOL    HW223451   2.766   7.887   0.519  0.1068  0.8337  2.4503
 4328SOL     OW23452   2.743   2.293   0.707 -0.0445  0.4387 -0.4395
 4328SOL    HW123453   2.812   2.281   0.635  0.7212  0.9148  0.2213
 4328SOL    HW223454   2.674   2.358   0.676  0.1802  0.5013 -0.8147
 4329SOL     OW23455   3.804   0.704   1.110 -0.4754  0.0385  0.1299
 4329SOL    HW123456   3.870   0.769   1.147 -0.1144 -0.5806  0.5811
 4329SOL    HW223457   3.797   0.716   1.011  0.3353  0.0858  0.0773
 4330SOL     OW23458   0.595   3.293   0.946  0.2849  0.4891  0.0549
 4330SOL    HW123459   0.545   3.214   0.910  0.8298  0.3372 -0.3712
 4330SOL    HW223460   0.658   3.327   0.876  1.8136 -0.2077  1.0775
 4331SOL     OW23461   2.881   0.474   3.188  0.0490  0.0528 -0.4147
 4331SOL    HW123462   2.830   0.560   3.193 -1.7911 -1.1022  1.1795
 4331SOL    HW223463   2.882   0.442   3.093  1.0111  1.9480 -1.0851
 4332SOL     OW23464   8.908   7.831   2.359 -0.7924  0.0640  0.0901
 4332SOL    HW123465   8.859   7.914   2.387 -0.7676 -0.2606  1.1221
 4332SOL    HW223466   8.985   7.856   2.301  0.1131  0.8831  1.6302
 4333SOL     OW23467   2.659   5.140   3.406  0.5109 -0.1374  0.5438
 4333SOL    HW123468   2.704   5.229   3.407  1.6877 -0.6853 -1.0815
 4333SOL    HW223469   2.569   5.149   3.363  1.0999  0.0737 -0.6824
 4334SOL     OW23470   8.029   9.298   1.200  0.1092  0.3510  0.1709
 4334SOL    HW123471   7.991   9.213   1.165 -0.1266  0.8551 -0.8344
 4334SOL    HW223472   7.960   9.371   1.192 -0.5211  0.1417  3.1904
 4335SOL     OW23473   0.020   1.699   1.624  0.4183 -0.3318  0.9776
 4335SOL    HW123474   0.058   1.657   1.706  0.1111 -0.1507  1.2149
 4335SOL    HW223475  -0.079   1.707   1.634  0.4216  0.0008  0.7296
 4336SOL     OW23476   5.502   9.419   3.523  0.2663  0.1407  0.1796
 4336SOL    HW123477   5.437   9.343   3.521 -0.7883  0.9913  1.2358
 4336SOL    HW223478   5.475   9.488   3.456 -0.3821  0.8473  1.1510
 4337SOL     OW23479   6.612   9.122   2.476 -0.1743  0.4548 -0.2647
 4337SOL    HW123480   6.529   9.123   2.420  0.8988  1.0512 -1.8585
 4337SOL    HW223481   6.588   9.145   2.571 -1.7930  0.8322 -0.7542
 4338SOL     OW23482   1.013   9.159   3.436  0.3163  0.2293  0.2257
 4338SOL    HW123483   0.966   9.072   3.419 -1.0221  1.0976 -0.7002
 4338SOL    HW223484   1.109   9.151   3.411  0.0946 -0.8431 -0.3033
 4339SOL     OW23485   3.310   1.654   0.807 -0.2700 -0.1369 -0.0980
 4339SOL    HW123486   3.292   1.752   0.800  0.6009  0.0240 -0.1514
 4339SOL    HW223487   3.326   1.616   0.716  0.9882 -0.0120  0.0627
 4340SOL     OW23488   7.330   9.117   0.927  0.2174 -0.3156  0.5812
 4340SOL    HW123489   7.312   9.176   0.849 -1.6596  0.2564  1.4223
 4340SOL    HW223490   7.266   9.138   1.001  0.7015 -2.1614  1.5621
 4341SOL     OW23491   0.674   1.752   4.452 -0.2473 -0.0560 -0.2456
 4341SOL    HW123492   0.656   1.758   4.354 -0.2884 -0.5319 -0.2669
 4341SOL    HW223493   0.624   1.824   4.499  0.9456  1.1140 -0.7293
 4342SOL     OW23494   0.528   8.516   3.421  0.0263  0.1370  0.2153
 4342SOL    HW123495   0.468   8.463   3.480 -0.6608  0.2387 -0.3911
 4342SOL    HW223496   0.601   8.456   3.386  1.2777  0.4175  2.2945
 4343SOL     OW23497   3.795   9.478   2.095  0.0979  0.5123  0.7555
 4343SOL    HW123498   3.796   9.416   2.173 -1.3031  0.7113  0.9498
 4343SOL    HW223499   3.701   9.505   2.075  0.1041 -1.8874 -2.8936
 4344SOL     OW23500   7.123   0.367   2.042  0.2083 -0.6355 -0.1276
 4344SOL    HW123501   7.059   0.438   2.074  0.7336  0.3936 -1.3225
 4344SOL    HW223502   7.214   0.407   2.030  0.6483 -1.6569 -0.2711
 4345SOL     OW23503   4.072   6.601   2.937  0.3944 -0.2616  0.0297
 4345SOL    HW123504   4.021   6.601   2.850 -0.1471  1.1820  0.3247
 4345SOL    HW223505   4.156   6.654   2.926 -0.4564  1.2847  0.8028
 4346SOL     OW23506   9.957   5.659   3.284  0.7061 -0.0130  0.5216
 4346SOL    HW123507   9.876   5.715   3.271  1.1409  0.3054 -0.9417
 4346SOL    HW223508  10.016   5.700   3.354  0.5824  0.8571  0.1153
 4347SOL     OW23509   9.894   6.602   1.295  0.0651 -0.3169 -0.3045
 4347SOL    HW123510   9.815   6.636   1.347 -0.0786 -0.5839 -0.3498
 4347SOL    HW223511   9.957   6.555   1.357 -0.2086 -0.8202 -0.4085
 4348SOL     OW23512   0.684   9.500   3.026 -0.1394 -0.0187 -0.0080
 4348SOL    HW123513   0.600   9.553   3.027 -0.2558 -0.1734 -0.9842
 4348SOL    HW223514   0.663   9.403   3.039 -0.1949 -0.1478 -0.9985
 4349SOL     OW23515   0.535   6.002   0.152 -0.3288  0.2256 -0.8062
 4349SOL    HW123516   0.577   5.913   0.166 -1.9318 -0.3059  0.7789
 4349SOL    HW223517   0.607   6.071   0.137  1.1245 -0.6804  1.7700
 4350SOL     OW23518   2.202   3.740   2.872  0.0135 -0.3307  0.2383
 4350SOL    HW123519   2.126   3.750   2.936  0.4496  1.0843  0.5481
 4350SOL    HW223520   2.198   3.813   2.803  0.1152 -1.2522 -0.7632
 4351SOL     OW23521   0.936   9.748   0.633  0.0748  0.1391  0.2750
 4351SOL    HW123522   1.006   9.774   0.568  1.1367 -1.2689  0.8354
 4351SOL    HW223523   0.967   9.769   0.726 -0.3688 -0.2248  0.5086
 4352SOL     OW23524   4.202   3.073   0.131 -0.4917 -0.3479  0.3500
 4352SOL    HW123525   4.216   3.101   0.225 -3.6114 -2.0191  1.3927
 4352SOL    HW223526   4.242   2.982   0.117  0.8389  0.3147 -0.2391
 4353SOL     OW23527   4.759   8.743   3.349 -0.0642 -0.3914 -0.1848
 4353SOL    HW123528   4.681   8.729   3.410  0.5077 -0.6421  0.4912
 4353SOL    HW223529   4.762   8.671   3.281 -0.0258 -0.7632  0.2114
 4354SOL     OW23530   0.668   7.475   1.514  0.6164  0.1624  0.3721
 4354SOL    HW123531   0.653   7.446   1.420  0.3659 -1.5161  0.9103
 4354SOL    HW223532   0.585   7.519   1.549 -0.1934 -1.5611  0.6443
 4355SOL     OW23533   3.577   1.670   3.116  0.2393 -0.4003 -1.0455
 4355SOL    HW123534   3.606   1.693   3.023  0.3722 -1.9323 -1.3900
 4355SOL    HW223535   3.618   1.584   3.144  0.6558  0.3265  0.6690
 4356SOL     OW23536   9.637   6.738   3.001 -0.8767 -0.1975 -0.2607
 4356SOL    HW123537   9.637   6.789   2.915 -0.3803  1.7191  0.8573
 4356SOL    HW223538   9.672   6.645   2.984 -1.6829 -0.1668 -2.2832
 4357SOL     OW23539   9.369   5.565   4.180  0.3316  0.1102  0.0343
 4357SOL    HW123540   9.368   5.659   4.146  0.8804  0.9825  2.3144
 4357SOL    HW223541   9.290   5.551   4.241  0.4720 -0.7799  0.0181
 4358SOL     OW23542   3.465   2.632   0.179 -0.1232 -0.4841 -1.1767
 4358SOL    HW123543   3.386   2.617   0.239 -0.0663  2.2981 -0.3402
 4358SOL    HW223544   3.433   2.645   0.085 -0.5587 -0.7260 -1.0635
 4359SOL     OW23545   8.839   7.377   2.670 -0.2689  0.6661 -0.7341
 4359SOL    HW123546   8.745   7.384   2.703 -0.8292 -1.9004 -1.6396
 4359SOL    HW223547   8.843   7.410   2.575 -0.0874  1.4659 -0.4540
 4360SOL     OW23548   3.227   8.894   2.797 -0.1437 -0.8574  0.2240
 4360SOL    HW123549   3.297   8.847   2.744 -1.0160 -3.5738  1.3885
 4360SOL    HW223550   3.270   8.955   2.863  1.0098  0.0976 -1.3839
 4361SOL     OW23551   2.478   4.474   0.197 -0.1309  0.2276 -0.5526
 4361SOL    HW123552   2.560   4.423   0.221 -0.2708 -0.0236 -0.6093
 4361SOL    HW223553   2.504   4.556   0.145 -0.1526 -1.9744 -4.2244
 4362SOL     OW23554   2.955   3.157   0.893  0.1904 -0.4239  0.0445
 4362SOL    HW123555   2.949   3.132   0.796 -1.7012  0.6179 -0.1216
 4362SOL    HW223556   2.914   3.248   0.906  1.8293  0.1212  1.5691
 4363SOL     OW23557   7.100   9.161   2.927 -0.5580  0.6913  0.0567
 4363SOL    HW123558   7.069   9.122   3.014 -2.1325  0.1793 -0.7111
 4363SOL    HW223559   7.127   9.086   2.866 -4.4040  0.6398 -1.7371
 4364SOL     OW23560   5.479   8.396   2.436 -0.4419 -0.6793  0.4331
 4364SOL    HW123561   5.544   8.322   2.419  0.2980 -0.0208  0.3123
 4364SOL    HW223562   5.476   8.416   2.534  1.3647  0.8644  0.2274
 4365SOL     OW23563   6.989   9.449   4.639  0.8615 -0.1123  0.5945
 4365SOL    HW123564   7.026   9.362   4.671  2.6912  0.5624  0.3893
 4365SOL    HW223565   7.060   9.519   4.644 -1.3323  2.0259  3.2969
 4366SOL     OW23566   2.135   8.820   0.904  0.0055  0.2970 -0.2888
 4366SOL    HW123567   2.070   8.789   0.972  2.0532 -1.2322  1.0220
 4366SOL    HW223568   2.127   8.764   0.822  0.3609 -0.5270  0.2427
 4367SOL     OW23569   2.655   4.884   1.074 -0.0112 -0.3617  0.0373
 4367SOL    HW123570   2.639   4.965   1.131  0.2123  0.6311 -1.3011
 4367SOL    HW223571   2.725   4.905   1.006 -1.8155 -0.8494 -2.0218
 4368SOL     OW23572   4.453   8.867   3.429  0.5500  0.0602 -0.3046
 4368SOL    HW123573   4.526   8.887   3.364  1.1245  0.7070  0.5347
 4368SOL    HW223574   4.385   8.941   3.427  1.2879  0.7811  0.8380
 4369SOL     OW23575   1.415   2.404   0.982 -0.1067  0.1442  0.0285
 4369SOL    HW123576   1.391   2.342   1.057 -0.2665 -0.5395 -0.5921
 4369SOL    HW223577   1.513   2.422   0.984 -0.3428  1.4191  1.3945
 4370SOL     OW23578   1.954   9.112   1.139  0.2570 -0.1943 -0.1436
 4370SOL    HW123579   1.961   9.025   1.188 -0.0451  0.0972  0.4221
 4370SOL    HW223580   1.882   9.169   1.181  0.9046  0.5951 -0.0858
 4371SOL     OW23581   0.649   3.451   1.839  0.1129 -0.2638  0.2522
 4371SOL    HW123582   0.622   3.445   1.935  0.6891  0.4964  0.4732
 4371SOL    HW223583   0.574   3.419   1.781 -0.8525  0.7583  0.8955
 4372SOL     OW23584   1.613   5.390   3.561  0.0599 -0.8143 -0.0016
 4372SOL    HW123585   1.549   5.326   3.519 -0.3563 -1.3917  1.4937
 4372SOL    HW223586   1.562   5.457   3.615  0.6322 -0.4563  0.0945
 4373SOL     OW23587   9.024   6.449   4.666  0.2312 -0.3206  0.1184
 4373SOL    HW123588   9.059   6.363   4.702 -0.0884 -0.5033 -0.0033
 4373SOL    HW223589   9.098   6.516   4.662  1.4134 -1.7048 -3.3093
 4374SOL     OW23590   1.423   5.929   1.760  0.0349 -0.2947 -0.1106
 4374SOL    HW123591   1.378   5.954   1.673 -1.4753  1.5551  1.1505
 4374SOL    HW223592   1.395   5.837   1.786 -1.2381 -0.0364 -0.5079
 4375SOL     OW23593   1.619   2.698   4.591 -0.1536  0.1064 -0.1647
 4375SOL    HW123594   1.543   2.635   4.611  0.4882  0.2011  2.8063
 4375SOL    HW223595   1.671   2.714   4.675  0.3403  3.7693 -1.1184
 4376SOL     OW23596   2.257   7.219   3.465 -0.5390  0.5059 -0.4141
 4376SOL    HW123597   2.337   7.280   3.464 -0.5159  0.5282  1.1025
 4376SOL    HW223598   2.272   7.144   3.401 -0.1741  1.5969 -1.6366
 4377SOL     OW23599   0.632   2.914   1.292  0.6295 -0.0161 -0.1837
 4377SOL    HW123600   0.680   2.827   1.303 -0.6824 -0.6902  0.2408
 4377SOL    HW223601   0.642   2.968   1.376 -0.1873 -0.5766  0.2794
 4378SOL     OW23602   0.707   9.222   3.564  0.0050 -0.5557 -0.3724
 4378SOL    HW123603   0.806   9.237   3.556 -0.2080 -0.2188 -2.5346
 4378SOL    HW223604   0.658   9.296   3.518 -1.2435 -1.1213  0.0285
 4379SOL     OW23605   9.641   5.085   2.860  0.1625 -0.1615 -0.4820
 4379SOL    HW123606   9.613   5.029   2.782 -0.5324 -1.0384  0.3804
 4379SOL    HW223607   9.724   5.047   2.901 -0.4025 -0.6727  0.2053
 4380SOL     OW23608   8.722   6.325   2.869 -0.1002 -0.0830 -0.2906
 4380SOL    HW123609   8.738   6.370   2.781 -0.3746 -1.1774 -0.9048
 4380SOL    HW223610   8.702   6.228   2.854 -0.2182 -0.2614  0.9741
 4381SOL     OW23611   8.636   8.750   0.169  0.3106  0.4053 -0.3950
 4381SOL    HW123612   8.700   8.692   0.119  1.2941  0.2642  0.9827
 4381SOL    HW223613   8.672   8.844   0.171  0.5288  0.3082  0.4523
 4382SOL     OW23614   2.491   9.634   2.590 -0.5928  0.4043  0.3893
 4382SOL    HW123615   2.538   9.704   2.645 -0.8928 -0.2057  1.4426
 4382SOL    HW223616   2.549   9.608   2.513  0.9624 -0.5345  1.8163
 4383SOL     OW23617   2.976   3.836   2.166  0.4619 -0.3394 -0.2854
 4383SOL    HW123618   3.066   3.875   2.145  1.0206 -1.7580 -0.5572
 4383SOL    HW223619   2.939   3.792   2.085 -1.0798  1.3601 -0.5396
 4384SOL     OW23620   0.739   1.658   1.895  0.0422 -0.0294  0.0178
 4384SOL    HW123621   0.757   1.676   1.992  1.2495  1.4803 -0.4641
 4384SOL    HW223622   0.826   1.653   1.846 -0.5953  0.2733 -1.1546
 4385SOL     OW23623   1.327   1.270   3.060  0.5179  0.9275 -0.1402
 4385SOL    HW123624   1.319   1.349   2.999 -0.2311  1.8217  1.0804
 4385SOL    HW223625   1.238   1.224   3.066  1.0773 -0.3171 -1.2406
 4386SOL     OW23626   3.885   0.581   4.226  0.5059 -0.1565 -0.5219
 4386SOL    HW123627   3.957   0.571   4.157  2.0751  1.3169  0.8775
 4386SOL    HW223628   3.877   0.497   4.279  3.1042  0.6021  1.1279
 4387SOL     OW23629   2.577   2.013   2.633 -0.2031  0.1414  0.0111
 4387SOL    HW123630   2.575   1.985   2.729 -1.0604  0.4151  0.0762
 4387SOL    HW223631   2.538   2.104   2.623 -2.7090 -0.9642 -0.9300
 4388SOL     OW23632   0.406   2.321   0.513 -0.5061 -0.7127  0.2593
 4388SOL    HW123633   0.458   2.273   0.583  0.7170 -0.0894 -0.2141
 4388SOL    HW223634   0.455   2.315   0.426 -0.8245  0.5826 -0.0107
 4389SOL     OW23635   4.407   2.741   2.804 -0.5410 -0.0953 -0.0919
 4389SOL    HW123636   4.338   2.763   2.873  0.4247  3.4057 -0.1398
 4389SOL    HW223637   4.361   2.699   2.725 -2.1835 -0.5154  1.0408
 4390SOL     OW23638   4.794   7.369   2.601 -0.0161 -0.5440  0.1851
 4390SOL    HW123639   4.728   7.343   2.671 -0.1230  0.9194  0.6371
 4390SOL    HW223640   4.748   7.376   2.513 -0.7460  1.7040  0.7205
 4391SOL     OW23641   0.441   7.628   1.645  0.1336 -0.2347 -0.4981
 4391SOL    HW123642   0.365   7.566   1.624  1.2799 -1.8443 -0.0036
 4391SOL    HW223643   0.483   7.601   1.732 -0.8480  2.7217  0.9660
 4392SOL     OW23644   0.441   1.228   3.638  0.3799 -0.8539  0.0856
 4392SOL    HW123645   0.495   1.161   3.690  2.2716 -0.2426 -1.0338
 4392SOL    HW223646   0.496   1.310   3.623 -0.7917 -0.2998 -1.2759
 4393SOL     OW23647   1.748   9.739   1.128 -0.0461 -1.1273 -0.1847
 4393SOL    HW123648   1.675   9.790   1.173  1.7291 -0.5352  2.0729
 4393SOL    HW223649   1.790   9.675   1.192  2.7751 -0.0239 -0.8387
 4394SOL     OW23650   6.136   9.838   4.159 -0.2679 -0.0343 -0.3163
 4394SOL    HW123651   6.048   9.819   4.202 -0.9373  2.8435 -0.3576
 4394SOL    HW223652   6.184   9.909   4.210  0.6637  0.6395 -2.0830
 4395SOL     OW23653   7.118   9.818   3.005 -0.0010  0.0658 -0.5194
 4395SOL    HW123654   7.107   9.849   2.910 -1.1580 -0.4235 -0.5500
 4395SOL    HW223655   7.175   9.884   3.055  0.5318  0.3806 -1.5206
 4396SOL     OW23656   3.583   7.521   2.852 -0.2484 -0.0014 -0.3311
 4396SOL    HW123657   3.583   7.460   2.772  3.3349 -1.1349  0.4441
 4396SOL    HW223658   3.606   7.614   2.822  0.1193 -0.2222 -0.7484
 4397SOL     OW23659   2.633   4.045   3.593  0.0561 -0.4454 -0.4371
 4397SOL    HW123660   2.676   4.123   3.548 -1.1950  1.3972  1.4234
 4397SOL    HW223661   2.683   4.023   3.677 -1.3067  0.3284  0.6088
 4398SOL     OW23662   3.780   1.238   2.377 -0.5170  0.0933 -0.6800
 4398SOL    HW123663   3.855   1.250   2.312  0.8381 -0.7638  0.6965
 4398SOL    HW223664   3.790   1.304   2.452 -0.8296 -0.4112 -0.1959
 4399SOL     OW23665   0.270   4.518   0.557  0.2974  0.8728 -0.2560
 4399SOL    HW123666   0.227   4.436   0.519  2.2470  0.0850 -0.8555
 4399SOL    HW223667   0.351   4.541   0.503  0.3720  2.5684  0.5649
 4400SOL     OW23668   8.871   9.804   0.936  0.3955  0.0118  0.0417
 4400SOL    HW123669   8.874   9.823   0.838 -0.6715 -1.2276 -0.2463
 4400SOL    HW223670   8.934   9.729   0.957  0.4931  0.1606  0.2827
 4401SOL     OW23671   7.599   9.663   1.923 -0.1168  0.4020 -0.2088
 4401SOL    HW123672   7.540   9.583   1.908  0.0391  0.3688 -0.6555
 4401SOL    HW223673   7.665   9.670   1.848  1.2095 -0.2270  0.8574
 4402SOL     OW23674   1.598   2.778   0.260 -0.0262 -0.0114  0.0252
 4402SOL    HW123675   1.563   2.700   0.311  0.3273  0.3781  0.8742
 4402SOL    HW223676   1.556   2.862   0.294  0.0642  0.2309 -0.4583
 4403SOL     OW23677   5.651   9.774   4.235  0.4472 -0.9118  0.0677
 4403SOL    HW123678   5.588   9.697   4.238  0.3917 -0.8036  1.5948
 4403SOL    HW223679   5.668   9.799   4.139 -2.4016 -0.4432 -0.3579
 4404SOL     OW23680   2.688   5.752   4.005 -0.4350  0.5199 -0.0248
 4404SOL    HW123681   2.758   5.682   4.018 -1.7367 -1.1102 -1.5689
 4404SOL    HW223682   2.646   5.741   3.915 -1.7128  2.3542  0.3193
 4405SOL     OW23683   3.632   9.297   3.582  0.7983  0.2172  0.1840
 4405SOL    HW123684   3.677   9.373   3.536 -0.3217  1.1018  0.5403
 4405SOL    HW223685   3.601   9.230   3.514  2.0370 -0.0760 -0.1068
 4406SOL     OW23686   7.960   7.597   1.980 -0.1514  0.1727  0.0312
 4406SOL    HW123687   7.998   7.666   2.041 -0.5937 -0.6242  1.2246
 4406SOL    HW223688   8.033   7.540   1.943  0.2136  1.2525 -0.9445
 4407SOL     OW23689   6.089   7.115   2.182 -0.1506  0.1251  0.2895
 4407SOL    HW123690   6.003   7.071   2.156  0.5615 -2.3126  1.8831
 4407SOL    HW223691   6.076   7.214   2.184 -1.9681 -0.0001 -2.7885
 4408SOL     OW23692   2.823   1.936   3.461 -0.3989 -0.1619 -0.6236
 4408SOL    HW123693   2.837   1.865   3.391  1.6618  1.2563 -1.7183
 4408SOL    HW223694   2.820   2.026   3.418  0.2903  0.6959  1.0479
 4409SOL     OW23695   1.715   8.862   0.433  0.9510 -0.9141  0.4180
 4409SOL    HW123696   1.693   8.873   0.336  0.3930  0.3826  0.6890
 4409SOL    HW223697   1.798   8.912   0.454 -0.5615  1.3374  1.2381
 4410SOL     OW23698   9.402   7.223   4.685  0.1063  0.7414 -0.0183
 4410SOL    HW123699   9.397   7.306   4.740  0.1231  0.2715  0.6988
 4410SOL    HW223700   9.401   7.143   4.745 -0.0081  0.2189 -0.7071
 4411SOL     OW23701   3.653   0.779   0.269 -0.5372 -0.1992  0.3679
 4411SOL    HW123702   3.717   0.796   0.194 -1.0530 -0.3258 -0.1036
 4411SOL    HW223703   3.647   0.861   0.327 -0.4812  0.0563  0.0105
 4412SOL     OW23704   3.351   4.323   1.520  0.1635 -0.0805 -0.1227
 4412SOL    HW123705   3.379   4.227   1.523 -0.5515 -0.2855  0.2749
 4412SOL    HW223706   3.399   4.370   1.446  0.7403 -0.6731 -0.1279
 4413SOL     OW23707   4.855   6.975   2.249  0.1497  0.2278  0.1195
 4413SOL    HW123708   4.854   7.004   2.154  0.0759  0.1319  0.0911
 4413SOL    HW223709   4.873   7.055   2.308  1.6541  0.0304 -0.0528
 4414SOL     OW23710   7.488   8.726   1.077  0.5986  0.4111  0.1655
 4414SOL    HW123711   7.430   8.797   1.038  0.7229  1.6471  2.2022
 4414SOL    HW223712   7.435   8.642   1.090  0.5457 -0.0326 -2.5659
 4415SOL     OW23713   6.569   8.586   3.449  0.5070 -0.0113 -0.4961
 4415SOL    HW123714   6.587   8.503   3.503 -0.0384 -0.1223 -0.4818
 4415SOL    HW223715   6.655   8.634   3.432  0.6664  0.1056  0.5992
 4416SOL     OW23716   8.850   6.795   3.648  0.5961 -0.0490  0.0353
 4416SOL    HW123717   8.788   6.872   3.633 -0.3187 -0.5113  1.4094
 4416SOL    HW223718   8.857   6.776   3.746  0.9824 -1.5786 -0.2759
 4417SOL     OW23719   1.940   5.432   2.385  0.0983  0.0558  0.0903
 4417SOL    HW123720   1.863   5.448   2.448  0.0137  2.0504 -0.4836
 4417SOL    HW223721   1.920   5.474   2.297 -0.2024 -3.5746 -1.6400
 4418SOL     OW23722   3.847   4.459   1.130 -0.3679  0.2366  0.1917
 4418SOL    HW123723   3.896   4.372   1.136 -2.5690 -1.0107  0.5273
 4418SOL    HW223724   3.816   4.474   1.037 -2.6999 -0.8753  0.7708
 4419SOL     OW23725   4.761   0.136   4.095  0.1715  0.8504  0.7082
 4419SOL    HW123726   4.713   0.180   4.019  0.8116  0.7679  0.2469
 4419SOL    HW223727   4.696   0.109   4.165 -0.6017 -0.3347 -0.4435
 4420SOL     OW23728   4.648   9.800   3.340 -0.4373 -0.7700  0.0249
 4420SOL    HW123729   4.669   9.898   3.344 -0.9370 -0.7108  1.5987
 4420SOL    HW223730   4.611   9.778   3.250 -2.1839  0.8982  0.2852
 4421SOL     OW23731   0.489   2.190   2.417 -0.7517 -0.6747 -0.4424
 4421SOL    HW123732   0.558   2.145   2.360 -0.1664 -0.7564  0.3228
 4421SOL    HW223733   0.505   2.289   2.415 -0.5869 -0.6957 -0.2422
 4422SOL     OW23734   8.285   9.999   3.131  0.5653 -0.7696  1.1121
 4422SOL    HW123735   8.350  10.072   3.112  2.4952 -2.6941  0.0465
 4422SOL    HW223736   8.329   9.910   3.116 -2.3241 -2.1396  0.2981
 4423SOL     OW23737   3.868   0.198   4.004 -0.0696  0.0619  0.5199
 4423SOL    HW123738   3.968   0.187   4.001 -0.0366  0.2832  0.8598
 4423SOL    HW223739   3.831   0.148   4.082 -0.4638 -1.8401 -0.8426
 4424SOL     OW23740   0.798   7.654   4.013  0.1502 -0.0343 -0.4059
 4424SOL    HW123741   0.801   7.563   4.056 -0.2222 -0.1952 -0.7193
 4424SOL    HW223742   0.854   7.653   3.930  1.4414  0.4754  0.4388
 4425SOL     OW23743   4.034   1.191   1.669  0.0490 -0.0603  0.7195
 4425SOL    HW123744   4.026   1.290   1.680 -0.6082  0.2033 -1.8976
 4425SOL    HW223745   3.974   1.145   1.735 -0.9307  1.3219  0.7984
 4426SOL     OW23746   3.808   2.141   2.909 -0.0212 -0.2049 -0.1762
 4426SOL    HW123747   3.891   2.171   2.863 -2.5395  3.7917 -2.3620
 4426SOL    HW223748   3.795   2.194   2.993 -0.3315 -0.9575  0.2622
 4427SOL     OW23749   2.452   0.273   4.034  0.4207  0.0821  0.4958
 4427SOL    HW123750   2.372   0.295   3.978  1.3805  1.4039 -0.3637
 4427SOL    HW223751   2.429   0.195   4.094 -0.7584 -1.0982 -1.4111
 4428SOL     OW23752   9.802   1.101   2.598 -0.3836 -0.3212 -0.1995
 4428SOL    HW123753   9.869   1.175   2.605  0.8588 -1.5283  1.0518
 4428SOL    HW223754   9.714   1.138   2.569  0.9599  1.2141 -2.5382
 4429SOL     OW23755   0.512   4.325   3.520  0.0340 -0.4791  0.5403
 4429SOL    HW123756   0.576   4.290   3.452  0.2185 -0.7241  0.8459
 4429SOL    HW223757   0.430   4.360   3.473  0.6802  0.4573  0.1046
 4430SOL     OW23758   9.760   8.447   0.179  0.2025  0.8157 -0.5620
 4430SOL    HW123759   9.824   8.447   0.102  0.1111  1.1211 -0.6384
 4430SOL    HW223760   9.803   8.491   0.257  0.9506 -1.0426  0.1116
 4431SOL     OW23761   8.633   9.179   3.580  0.7763  0.0628 -0.5476
 4431SOL    HW123762   8.627   9.278   3.597  0.7687  0.0391 -0.4147
 4431SOL    HW223763   8.547   9.136   3.606 -0.3012  0.4218 -3.3534
 4432SOL     OW23764   9.694   6.281   4.678  0.0290 -0.5799 -0.4790
 4432SOL    HW123765   9.661   6.291   4.584 -0.6192  0.0959 -0.1839
 4432SOL    HW223766   9.622   6.308   4.742  0.4172 -1.1857  0.2151
 4433SOL     OW23767   2.406   8.145   3.956 -0.2558  0.0852  0.9877
 4433SOL    HW123768   2.339   8.217   3.979 -0.2094  0.1267  0.9953
 4433SOL    HW223769   2.359   8.057   3.950 -0.4758  0.2521  0.0834
 4434SOL     OW23770   8.390   9.081   3.645  0.3555 -0.1416 -0.1669
 4434SOL    HW123771   8.369   9.108   3.739 -0.4061  1.3108 -0.7316
 4434SOL    HW223772   8.355   8.989   3.629 -2.5056  0.8528  0.0166
 4435SOL     OW23773   9.568   9.062   3.570 -0.0827  0.5313  0.6444
 4435SOL    HW123774   9.496   9.124   3.604 -0.1960  1.5883 -1.4235
 4435SOL    HW223775   9.533   8.968   3.571 -1.0291  0.8700  0.9187
 4436SOL     OW23776   0.116   8.138   4.293  0.0798  0.2982 -0.2446
 4436SOL    HW123777   0.059   8.078   4.237 -2.0974  1.2761  0.8713
 4436SOL    HW223778   0.108   8.111   4.389  0.8088  1.0277  0.0268
 4437SOL     OW23779   9.622   6.261   0.738  0.1195 -0.3682  0.4567
 4437SOL    HW123780   9.697   6.299   0.793  0.9610 -1.3106 -0.0311
 4437SOL    HW223781   9.644   6.272   0.641  0.2016 -1.7524  0.3122
 4438SOL     OW23782   8.363   0.100   3.443  0.2072 -0.4553 -0.2382
 4438SOL    HW123783   8.289   0.153   3.403  1.1863  0.8219 -0.4115
 4438SOL    HW223784   8.445   0.110   3.387  1.2157  0.2448  1.3107
 4439SOL     OW23785   9.892   7.364   3.782  0.2145  0.2955  0.1486
 4439SOL    HW123786   9.936   7.380   3.871  0.0708  1.1104  0.0753
 4439SOL    HW223787   9.796   7.341   3.796  0.5158 -0.9410  0.2767
 4440SOL     OW23788   2.773   4.942   1.379  0.1609  0.0466  0.3571
 4440SOL    HW123789   2.777   4.935   1.478 -0.0384  0.1171  0.3688
 4440SOL    HW223790   2.793   4.853   1.338  0.0676 -0.0216  0.4626
 4441SOL     OW23791   2.087   6.871   1.845 -0.6542  0.3657 -0.4202
 4441SOL    HW123792   2.102   6.811   1.924 -0.7826  0.3765 -0.3877
 4441SOL    HW223793   2.175   6.896   1.806 -0.5924  0.3018 -0.3244
 4442SOL     OW23794   8.916   9.494   1.702  0.3849 -0.4592 -0.3668
 4442SOL    HW123795   8.849   9.484   1.775 -0.4697 -1.8956 -1.3250
 4442SOL    HW223796   8.949   9.404   1.674  1.0164  0.0968 -1.4714
 4443SOL     OW23797   2.810   2.306   1.881 -0.1512  0.0563 -0.7567
 4443SOL    HW123798   2.884   2.370   1.864  0.2433 -0.3870 -0.7053
 4443SOL    HW223799   2.734   2.354   1.926  0.5517  0.2452  0.2245
 4444SOL     OW23800   4.440   3.390   0.122  0.0456  0.1174 -0.5402
 4444SOL    HW123801   4.530   3.392   0.164  0.0776  1.1306 -0.6395
 4444SOL    HW223802   4.447   3.358   0.027  0.2833  0.0637 -0.5026
 4445SOL     OW23803   9.493   4.894   0.453 -0.2419  0.4040  0.2615
 4445SOL    HW123804   9.494   4.843   0.539 -1.4371  1.2863  0.8180
 4445SOL    HW223805   9.405   4.942   0.444  0.1427  0.8724 -1.1206
 4446SOL     OW23806   2.574   7.157   3.678  0.1911 -0.0050  0.0009
 4446SOL    HW123807   2.536   7.142   3.769  0.7689  0.3566  0.3014
 4446SOL    HW223808   2.575   7.070   3.628 -0.1336 -0.2017  0.3337
 4447SOL     OW23809   3.974   8.909   1.134 -0.0333  0.3335  0.0405
 4447SOL    HW123810   3.903   8.840   1.119 -0.5800  0.8931  0.0641
 4447SOL    HW223811   3.935   8.988   1.179  0.2963  1.2904 -1.3334
 4448SOL     OW23812   1.568   7.352   0.627 -0.0491  0.2005  0.1210
 4448SOL    HW123813   1.538   7.447   0.638 -1.3211  0.1147 -2.3934
 4448SOL    HW223814   1.513   7.292   0.685  0.1520  0.8688  1.0194
 4449SOL     OW23815   0.212   5.951   0.626 -0.7406  0.2136 -0.5814
 4449SOL    HW123816   0.198   5.872   0.566 -1.8409  0.6811 -0.9601
 4449SOL    HW223817   0.167   6.031   0.587 -1.4901  0.5282  0.8606
 4450SOL     OW23818   8.247   7.054   4.314 -0.2823 -0.4236  0.1619
 4450SOL    HW123819   8.323   7.119   4.310 -1.7553  1.3890  0.7234
 4450SOL    HW223820   8.279   6.967   4.351  1.8139 -0.1631 -0.9269
 4451SOL     OW23821   2.255   6.457   0.526 -0.3066  0.2931  0.4735
 4451SOL    HW123822   2.316   6.534   0.541  1.3991 -1.0997  0.8146
 4451SOL    HW223823   2.167   6.490   0.492 -0.0813  2.5020  1.9441
 4452SOL     OW23824   0.229   6.334   1.995  0.1745 -0.0456 -0.5393
 4452SOL    HW123825   0.156   6.357   2.060 -0.6272 -0.1280 -1.4004
 4452SOL    HW223826   0.286   6.414   1.979 -0.1800  0.2279 -0.4349
 4453SOL     OW23827   9.011   0.413   1.793 -0.4291 -0.2245  1.0050
 4453SOL    HW123828   9.015   0.366   1.704  0.0376 -1.1303  1.4934
 4453SOL    HW223829   8.929   0.385   1.842  0.9168 -2.2668  2.2141
 4454SOL     OW23830   2.914   9.749   4.096 -0.3039 -0.3390  0.2902
 4454SOL    HW123831   2.981   9.746   4.022 -1.4792  0.4041 -0.8442
 4454SOL    HW223832   2.910   9.841   4.133 -1.8506  0.0429 -0.7735
 4455SOL     OW23833   0.600   3.698   3.925 -0.0627 -0.3552  0.0119
 4455SOL    HW123834   0.696   3.678   3.903 -0.0659 -0.0471 -0.2876
 4455SOL    HW223835   0.579   3.665   4.017  0.5987  0.4184  0.4542
 4456SOL     OW23836   0.998   5.451   1.296 -0.2057 -0.0366  0.7243
 4456SOL    HW123837   1.082   5.399   1.312 -0.5391 -0.4946  0.9640
 4456SOL    HW223838   1.000   5.488   1.203 -0.3778 -1.2236  0.2419
 4457SOL     OW23839   0.151   8.099   0.545 -0.1284  0.2114 -0.2283
 4457SOL    HW123840   0.179   8.195   0.544  1.0158 -0.0937  1.2950
 4457SOL    HW223841   0.089   8.083   0.621  0.0753 -0.3706 -0.1843
 4458SOL     OW23842   2.865   7.271   0.891 -0.0092  1.0240  0.1057
 4458SOL    HW123843   2.904   7.202   0.952 -2.0298 -0.8200 -0.6306
 4458SOL    HW223844   2.803   7.330   0.943 -0.8935  0.1368  0.0714
 4459SOL     OW23845   0.124   5.703   0.322  0.2531 -0.1123  0.3413
 4459SOL    HW123846   0.076   5.624   0.283 -0.5137  0.0953  0.8649
 4459SOL    HW223847   0.060   5.759   0.374  1.1074  0.0488  1.2272
 4460SOL     OW23848   9.107   9.249   3.919  0.1999  0.3788 -0.4457
 4460SOL    HW123849   9.098   9.161   3.873 -0.8992  1.1221 -1.7164
 4460SOL    HW223850   9.116   9.321   3.851  0.6733  1.2890  0.5690
 4461SOL     OW23851   9.308   6.942   1.584 -0.0297 -0.2983  0.0861
 4461SOL    HW123852   9.276   6.866   1.640 -0.0375  1.0220  1.9242
 4461SOL    HW223853   9.231   6.982   1.534 -0.5664  0.3626  1.4212
 4462SOL     OW23854   9.705   3.742   2.807  0.8691 -0.0594  0.1490
 4462SOL    HW123855   9.790   3.715   2.762  0.9253 -0.5839  0.5663
 4462SOL    HW223856   9.672   3.667   2.864  0.1227  0.1394 -0.0122
 4463SOL     OW23857   0.206   4.263   4.315  0.7641  0.4122  0.1446
 4463SOL    HW123858   0.177   4.258   4.220  0.7877  0.6015  0.1287
 4463SOL    HW223859   0.276   4.193   4.332 -0.6589 -0.9560  0.5249
 4464SOL     OW23860   7.174   9.242   1.139 -0.3879 -0.4666 -0.0961
 4464SOL    HW123861   7.142   9.198   1.223 -2.2563  1.6534  0.3579
 4464SOL    HW223862   7.122   9.326   1.124  2.9656  1.5011 -1.0266
 4465SOL     OW23863   3.340   3.499   0.548 -0.8495  0.1625 -0.3780
 4465SOL    HW123864   3.390   3.510   0.462  2.4421  0.0390  1.4689
 4465SOL    HW223865   3.394   3.444   0.611 -2.5857  1.4416  2.2899
 4466SOL     OW23866   0.387   4.879   3.481 -0.0696 -0.2941 -0.4849
 4466SOL    HW123867   0.371   4.806   3.548  0.2725  0.4629  0.4459
 4466SOL    HW223868   0.304   4.934   3.471  0.2648  0.3628  0.2840
 4467SOL     OW23869   1.066   2.105   1.416  0.1373  0.1922  0.2058
 4467SOL    HW123870   1.119   2.187   1.434 -1.1731  0.6127  2.2605
 4467SOL    HW223871   0.992   2.126   1.352 -0.8790  0.9106  1.5823
 4468SOL     OW23872   4.538   1.596   0.826  0.4304  0.1146 -0.3790
 4468SOL    HW123873   4.518   1.505   0.790  1.2778 -0.0277 -0.5061
 4468SOL    HW223874   4.637   1.604   0.841  0.5353  1.5395 -1.7759
 4469SOL     OW23875   0.796   5.868   2.296  0.6739  0.0585 -0.3867
 4469SOL    HW123876   0.853   5.899   2.220  0.6305 -0.3224 -0.5783
 4469SOL    HW223877   0.735   5.796   2.264  1.5978 -1.0651  0.3106
 4470SOL     OW23878   2.221   8.518   3.745 -0.0727 -0.1393  0.0312
 4470SOL    HW123879   2.239   8.556   3.836 -0.9340 -1.3337  0.7153
 4470SOL    HW223880   2.182   8.589   3.686  2.0186  1.0987  0.0702
 4471SOL     OW23881   7.376   8.868   2.026 -0.3633  0.3848  0.4955
 4471SOL    HW123882   7.404   8.936   1.958  3.2847 -0.1268  1.3520
 4471SOL    HW223883   7.340   8.787   1.979 -1.1703  1.4037 -0.6786
 4472SOL     OW23884   3.365   6.469   1.830 -0.4088  0.1828 -0.1886
 4472SOL    HW123885   3.463   6.462   1.844 -0.6911 -2.8534  0.8281
 4472SOL    HW223886   3.345   6.467   1.731  0.4817 -0.5833 -0.3597
 4473SOL     OW23887   4.083   2.595   2.635  0.8874 -0.4341  0.1885
 4473SOL    HW123888   4.014   2.627   2.570  0.0803  1.0769  1.7558
 4473SOL    HW223889   4.169   2.644   2.619 -0.2135  2.3543  2.2797
 4474SOL     OW23890   2.106   0.807   0.576 -0.1371  1.1946 -0.0859
 4474SOL    HW123891   2.048   0.794   0.656 -1.3796  1.4704 -0.9250
 4474SOL    HW223892   2.170   0.731   0.569 -1.2654  0.1923  0.1435
 4475SOL     OW23893   4.186   9.657   3.462 -0.1575 -0.0481 -0.3177
 4475SOL    HW123894   4.161   9.592   3.534  1.0099 -0.8289 -0.5989
 4475SOL    HW223895   4.174   9.750   3.495 -1.3794 -0.4055  0.2614
 4476SOL     OW23896   2.604   5.668   1.785 -0.4274 -0.1954 -0.3223
 4476SOL    HW123897   2.667   5.711   1.850 -0.7862 -0.1563 -0.0010
 4476SOL    HW223898   2.515   5.713   1.790 -0.1058  0.6316 -1.7287
 4477SOL     OW23899   1.738   5.056   2.270 -0.4365 -0.1315  0.3380
 4477SOL    HW123900   1.645   5.039   2.239 -0.1080 -2.5055  0.5412
 4477SOL    HW223901   1.803   5.024   2.201  0.2360 -1.3661  1.5124
 4478SOL     OW23902   8.041   8.971   3.348  0.5355  0.6442 -0.0477
 4478SOL    HW123903   8.045   8.974   3.248 -0.5501  1.1146 -0.0832
 4478SOL    HW223904   8.128   8.936   3.384  0.5256 -0.5940 -1.2002
 4479SOL     OW23905   9.007   7.178   2.088  0.0360 -0.0368 -0.3232
 4479SOL    HW123906   8.919   7.132   2.080 -1.0186  1.8745  0.1145
 4479SOL    HW223907   9.057   7.142   2.166  0.8582 -3.0641 -2.1434
 4480SOL     OW23908   8.537   9.053   1.116  0.2692  0.1260  0.0287
 4480SOL    HW123909   8.599   8.977   1.136 -0.6070 -0.1969  1.5846
 4480SOL    HW223910   8.452   9.018   1.077 -0.4391  0.2180  1.4529
 4481SOL     OW23911   2.079   2.846   3.396 -0.1866 -0.1814 -0.3544
 4481SOL    HW123912   2.023   2.878   3.472  0.8586  1.5601 -0.2941
 4481SOL    HW223913   2.070   2.910   3.319  0.1933 -0.9470 -1.0416
 4482SOL     OW23914   1.619   6.238   0.286  0.1689  0.7728  0.4555
 4482SOL    HW123915   1.639   6.289   0.370  0.7597 -0.1062  0.8555
 4482SOL    HW223916   1.676   6.156   0.282  1.1999  1.5519 -1.5204
 4483SOL     OW23917   1.077   7.192   3.784 -0.3009  0.5176 -0.2292
 4483SOL    HW123918   1.174   7.214   3.775 -0.4991  1.2199 -0.6367
 4483SOL    HW223919   1.062   7.143   3.870  0.0038  2.6834  1.0742
 4484SOL     OW23920   4.558   0.379   3.729  0.1202 -0.1131  0.4478
 4484SOL    HW123921   4.490   0.451   3.746 -0.6585 -0.3868 -1.3746
 4484SOL    HW223922   4.623   0.409   3.660  0.3453 -0.8173  0.3420
 4485SOL     OW23923   2.643   3.942   2.959  0.7432 -0.3617 -0.3151
 4485SOL    HW123924   2.543   3.953   2.957  0.0670 -5.0017  1.5369
 4485SOL    HW223925   2.679   3.988   3.040 -0.2072 -0.7514  0.3413
 4486SOL     OW23926   1.907   4.093   0.167 -0.6228 -0.0565 -0.3663
 4486SOL    HW123927   2.003   4.091   0.140  0.3843  2.1985  2.7248
 4486SOL    HW223928   1.867   4.182   0.144 -0.8104  0.4797  1.8863
 4487SOL     OW23929   3.019   1.877   3.624  0.5913  0.1440  0.3953
 4487SOL    HW123930   3.093   1.866   3.558  1.7080  3.2445  1.0290
 4487SOL    HW223931   2.936   1.906   3.577  1.0999  1.3238  0.2121
 4488SOL     OW23932   0.700   2.581   3.282  0.6928  0.5338 -0.3486
 4488SOL    HW123933   0.662   2.669   3.254  0.2185 -0.3736 -2.6326
 4488SOL    HW223934   0.782   2.560   3.229  0.3355 -0.7873 -0.4068
 4489SOL     OW23935   1.119   0.367   0.544  0.0533  0.5285 -0.2938
 4489SOL    HW123936   1.154   0.318   0.464  1.5299 -0.9412  1.1820
 4489SOL    HW223937   1.050   0.311   0.590  0.8064  0.3599  0.6733
 4490SOL     OW23938   7.028   0.236   2.462 -0.2711  0.5199 -0.8545
 4490SOL    HW123939   7.033   0.142   2.427  1.0687  0.0765  0.5021
 4490SOL    HW223940   6.932   0.265   2.463 -0.8200 -1.2399 -0.2204
 4491SOL     OW23941   9.409   9.229   0.409 -0.1610  0.3413  0.3917
 4491SOL    HW123942   9.373   9.165   0.478  0.7623  1.1296  1.6274
 4491SOL    HW223943   9.495   9.194   0.373 -1.7184 -1.1735 -2.0215
 4492SOL     OW23944   0.836   1.147   2.064  0.0112 -0.1636 -0.0314
 4492SOL    HW123945   0.922   1.109   2.098  0.7662 -0.4155 -2.1655
 4492SOL    HW223946   0.829   1.243   2.092  0.7963 -0.2485  0.4846
 4493SOL     OW23947   5.483   8.874   2.685 -0.4122 -0.2081 -0.5400
 4493SOL    HW123948   5.397   8.875   2.634 -1.2282  0.4059  0.8275
 4493SOL    HW223949   5.486   8.952   2.748  1.1779 -0.1855 -0.6338
 4494SOL     OW23950   0.518   0.832   2.237 -0.1651  0.3450  0.0390
 4494SOL    HW123951   0.471   0.760   2.186  0.2630 -1.4284  2.0701
 4494SOL    HW223952   0.482   0.921   2.209 -3.7133 -0.8585  0.4573
 4495SOL     OW23953   6.117   1.045   2.506  0.0970 -0.2033 -0.4530
 4495SOL    HW123954   6.091   0.982   2.433  1.1277  0.4230 -1.3676
 4495SOL    HW223955   6.084   1.137   2.485  1.2034  0.1719 -0.6064
 4496SOL     OW23956   4.795   1.766   2.457 -0.4107  0.3514 -0.5716
 4496SOL    HW123957   4.779   1.687   2.517  1.2910 -0.1438 -0.7287
 4496SOL    HW223958   4.739   1.757   2.375 -0.9350 -0.2144 -0.1568
 4497SOL     OW23959   3.360   4.984   0.661  0.1635 -0.0695 -0.4572
 4497SOL    HW123960   3.438   5.035   0.624  1.0997  0.0100  1.5417
 4497SOL    HW223961   3.393   4.900   0.704 -0.6254  0.8232  1.9901
 4498SOL     OW23962   1.405   7.572   3.829 -0.0228 -0.2215  0.3601
 4498SOL    HW123963   1.354   7.655   3.853  1.0974  0.8610 -0.9108
 4498SOL    HW223964   1.500   7.596   3.811  0.7272 -2.0643  1.7144
 4499SOL     OW23965   2.365   5.524   0.632 -0.1381  0.2816  0.1571
 4499SOL    HW123966   2.420   5.441   0.633  1.6900  1.4530 -0.3288
 4499SOL    HW223967   2.297   5.518   0.560 -0.7915 -1.2704  0.8878
 4500SOL     OW23968   0.235   0.542   3.219  1.1536  0.3472  0.2840
 4500SOL    HW123969   0.331   0.515   3.230  1.6091  2.0123  0.5881
 4500SOL    HW223970   0.231   0.640   3.199 -0.4708  0.2099 -0.0703
 4501SOL     OW23971   0.955   4.782   2.545 -0.0719  0.2346 -0.2069
 4501SOL    HW123972   1.053   4.774   2.526  0.4635  0.1737  2.4323
 4501SOL    HW223973   0.938   4.859   2.606 -1.7264  0.4181 -0.8509
 4502SOL     OW23974   8.389   5.836   1.038  0.0334 -0.1603  0.3412
 4502SOL    HW123975   8.379   5.912   0.975 -1.9718  0.9613  1.9497
 4502SOL    HW223976   8.422   5.755   0.989 -2.5496  0.3543 -2.3535
 4503SOL     OW23977   1.156   7.791   2.951 -0.1461  0.4403 -0.2205
 4503SOL    HW123978   1.149   7.740   3.038  1.9071  0.5596  0.0611
 4503SOL    HW223979   1.142   7.888   2.968 -1.2874  0.2855 -0.2820
 4504SOL     OW23980   0.892   9.378   0.028 -0.4173  0.0851 -0.3022
 4504SOL    HW123981   0.893   9.406   0.124  0.3380 -0.6327 -0.0960
 4504SOL    HW223982   0.985   9.380  -0.008 -0.6911  0.2852 -1.0025
 4505SOL     OW23983   2.125   7.117   4.466 -0.2456  0.3420 -0.0704
 4505SOL    HW123984   2.149   7.214   4.467  1.4131 -0.0689  1.9286
 4505SOL    HW223985   2.142   7.077   4.556  0.5933 -2.1687 -1.3113
 4506SOL     OW23986   3.994   1.042   0.562 -0.5827 -0.1745  0.7189
 4506SOL    HW123987   3.944   1.081   0.485  0.1955 -0.5522  0.0145
 4506SOL    HW223988   3.987   0.942   0.560  1.5334 -0.3395 -0.3391
 4507SOL     OW23989   3.956   2.258   0.911  0.2016  0.3830  1.1531
 4507SOL    HW123990   3.903   2.308   0.980 -1.7365 -0.9213  0.6742
 4507SOL    HW223991   3.994   2.323   0.845 -0.3378  1.4119  1.8274
 4508SOL     OW23992   5.977   8.489   2.247  0.4500 -0.5480  0.0778
 4508SOL    HW123993   5.951   8.551   2.174  1.2352 -0.2840  0.0156
 4508SOL    HW223994   6.024   8.410   2.208  0.1931 -0.7757  0.2288
 4509SOL     OW23995   3.325   4.672   1.924 -0.4120 -0.1654  0.4019
 4509SOL    HW123996   3.415   4.707   1.898 -0.3729  0.2202  1.0447
 4509SOL    HW223997   3.324   4.651   2.022 -0.2479 -2.5299 -0.0611
 4510SOL     OW23998   0.567   5.924   3.917 -0.0368 -0.0166  0.5048
 4510SOL    HW123999   0.527   5.842   3.958 -0.4101  0.0400  0.2548
 4510SOL    HW224000   0.506   6.002   3.933 -0.0686  0.0532  0.0484
 4511SOL     OW24001   2.691   3.459   0.418 -0.5353 -0.9880 -0.0665
 4511SOL    HW124002   2.682   3.475   0.320  0.7234 -0.3631 -0.0785
 4511SOL    HW224003   2.780   3.490   0.450 -0.9385 -1.1657  1.2870
 4512SOL     OW24004   1.068   9.076   0.592 -0.6885  0.4835 -0.2241
 4512SOL    HW124005   1.006   9.000   0.573 -0.3591  0.4391 -1.1948
 4512SOL    HW224006   1.154   9.040   0.628  0.0425  0.2395 -2.1267
 4513SOL     OW24007   3.415   8.307   2.948 -0.5470 -0.1844 -0.5862
 4513SOL    HW124008   3.413   8.229   3.010 -1.8127 -0.3946 -0.8708
 4513SOL    HW224009   3.463   8.282   2.864 -2.3471 -1.1927 -1.3437
 4514SOL     OW24010   7.650   9.046   2.755  0.3160  0.3800  0.0731
 4514SOL    HW124011   7.558   9.033   2.717 -0.1664  0.3097  1.2399
 4514SOL    HW224012   7.697   9.119   2.705  0.7731 -1.6283 -2.5328
 4515SOL     OW24013   2.067   4.941   0.568 -0.1050 -0.8041 -0.0558
 4515SOL    HW124014   2.000   4.928   0.495  0.7199 -2.0411 -0.6032
 4515SOL    HW224015   2.025   4.994   0.642 -0.9147  0.5321 -1.4471
 4516SOL     OW24016   3.186   1.909   0.080 -0.1946  0.0535 -0.3723
 4516SOL    HW124017   3.254   1.939   0.147 -0.0654 -0.4938 -0.2602
 4516SOL    HW224018   3.232   1.866   0.003 -0.3415  0.6882 -0.8243
 4517SOL     OW24019   8.372   6.249   2.446  0.0813  0.0664 -0.1756
 4517SOL    HW124020   8.366   6.252   2.346  1.6261  2.5784 -0.2489
 4517SOL    HW224021   8.300   6.307   2.485  0.2493  0.0921  0.1009
 4518SOL     OW24022   1.964   8.133   1.757 -0.1635  0.6606  0.5527
 4518SOL    HW124023   1.916   8.219   1.772 -0.9345  0.0913  1.4165
 4518SOL    HW224024   1.921   8.083   1.682  0.1691  0.9373  0.1740
 4519SOL     OW24025   4.575   9.991   1.769  0.1432 -0.8250  0.4467
 4519SOL    HW124026   4.551  10.039   1.853  0.9518  1.1389 -0.4239
 4519SOL    HW224027   4.518   9.909   1.760 -2.0881  0.5903  1.3666
 4520SOL     OW24028   2.830   3.993   4.587  0.0541 -0.1689 -0.2999
 4520SOL    HW124029   2.801   3.944   4.669 -2.1105 -0.3694 -1.1609
 4520SOL    HW224030   2.750   4.033   4.542  1.0082 -1.2439 -3.0599
 4521SOL     OW24031   3.294   3.216   0.281  0.4810 -0.3052  0.5638
 4521SOL    HW124032   3.262   3.247   0.191 -0.2932  2.1524  1.6272
 4521SOL    HW224033   3.381   3.261   0.303 -0.9178  1.6604  2.3549
 4522SOL     OW24034   3.204   8.043   0.412 -0.2729  0.2977 -0.2047
 4522SOL    HW124035   3.275   8.103   0.376 -1.2428  1.1955 -0.6611
 4522SOL    HW224036   3.116   8.069   0.373 -1.0991  0.1965  1.5328
 4523SOL     OW24037   7.394   0.549   4.482  0.2445 -0.0650  0.3052
 4523SOL    HW124038   7.494   0.547   4.485  0.2221 -0.4757  1.3459
 4523SOL    HW224039   7.359   0.456   4.492 -0.2744  0.3951  3.2447
 4524SOL     OW24040   5.288   0.655   3.903  0.8240 -0.4718  0.2215
 4524SOL    HW124041   5.259   0.672   3.997 -0.3985 -0.3800 -0.1575
 4524SOL    HW224042   5.255   0.565   3.873 -0.1181  0.1335 -0.6127
 4525SOL     OW24043   0.505   6.316   3.867  0.1014  0.1921 -0.1981
 4525SOL    HW124044   0.422   6.373   3.864  1.8961  2.9050 -0.3130
 4525SOL    HW224045   0.500   6.246   3.796 -1.4880  1.1956 -1.1158
 4526SOL     OW24046   7.500   6.843   1.447  0.0226 -0.0339  0.0186
 4526SOL    HW124047   7.451   6.891   1.520 -2.2188 -0.9728 -0.8092
 4526SOL    HW224048   7.520   6.907   1.373  0.8024  0.5415  0.7140
 4527SOL     OW24049   7.939   6.194   2.251 -0.2426  0.2817  0.7799
 4527SOL    HW124050   8.038   6.179   2.244 -0.5473 -2.0853  1.2339
 4527SOL    HW224051   7.911   6.261   2.181  1.2263 -1.2264 -1.3377
 4528SOL     OW24052   2.016   2.842   3.963  0.1507  0.1431  0.9741
 4528SOL    HW124053   1.958   2.790   3.901 -0.8617  3.0514 -0.5979
 4528SOL    HW224054   2.003   2.809   4.057 -1.6286 -1.3756  0.2115
 4529SOL     OW24055   1.136   0.232   1.618  0.1398 -0.3293  0.2364
 4529SOL    HW124056   1.124   0.133   1.624 -1.9324 -0.1279 -0.3745
 4529SOL    HW224057   1.178   0.256   1.531  1.4295 -0.7241  0.7372
 4530SOL     OW24058   2.398   4.370   3.931 -0.0931  0.2824  0.1728
 4530SOL    HW124059   2.335   4.292   3.932  1.9311 -1.4119  0.9206
 4530SOL    HW224060   2.357   4.446   3.880 -1.8974 -1.4628 -1.0558
 4531SOL     OW24061   8.773   0.535   0.804  0.4626 -0.4396  0.1402
 4531SOL    HW124062   8.691   0.586   0.778  0.5972  0.6787  1.8347
 4531SOL    HW224063   8.854   0.587   0.776  0.6023  0.4342  2.0735
 4532SOL     OW24064   1.698   7.096   1.020 -0.8438 -0.1373 -0.7992
 4532SOL    HW124065   1.671   7.157   1.094  2.4746 -0.5554  0.8869
 4532SOL    HW224066   1.717   7.149   0.937 -0.5985  0.8331 -0.1329
 4533SOL     OW24067   0.597   1.518   4.580  0.3730 -0.1124 -0.2175
 4533SOL    HW124068   0.536   1.472   4.516 -0.0755  0.3303 -0.1110
 4533SOL    HW224069   0.621   1.609   4.544 -2.1253  1.3042  1.5216
 4534SOL     OW24070   0.488   1.352   1.306 -0.2283  0.1627  0.0993
 4534SOL    HW124071   0.426   1.428   1.326  1.5359  1.4390  0.8870
 4534SOL    HW224072   0.553   1.342   1.382  1.5896 -0.0485 -1.4550
 4535SOL     OW24073   8.899   7.634   0.658  0.3491  0.2190 -0.1146
 4535SOL    HW124074   8.943   7.545   0.643 -1.4077 -0.8869  1.1200
 4535SOL    HW224075   8.837   7.627   0.736 -0.3503  2.3545 -0.4713
 4536SOL     OW24076   2.042   4.497   4.526  0.4714 -0.0152  0.4025
 4536SOL    HW124077   2.041   4.581   4.472  0.2147  0.4876  1.1795
 4536SOL    HW224078   2.122   4.497   4.586  1.0113 -0.7905 -0.3129
 4537SOL     OW24079   1.902   8.501   0.651  0.1610  0.2937 -0.3024
 4537SOL    HW124080   1.921   8.442   0.572  1.2817  1.4004 -0.8724
 4537SOL    HW224081   1.846   8.579   0.622  1.2226  1.1171 -0.1733
 4538SOL     OW24082   7.825   9.618   3.713  0.1191 -0.3201  0.3707
 4538SOL    HW124083   7.846   9.564   3.632  0.4008  0.1304  0.1395
 4538SOL    HW224084   7.892   9.598   3.785  1.4623  1.2046 -0.4074
 4539SOL     OW24085   9.332   9.998   0.515  0.0632  0.4981 -0.4076
 4539SOL    HW124086   9.312  10.036   0.606  3.6298  2.3411 -0.2936
 4539SOL    HW224087   9.289  10.054   0.445 -1.4239 -0.0337  0.0646
 4540SOL     OW24088   1.115   9.202   0.258  0.4736 -0.0221  0.1849
 4540SOL    HW124089   1.138   9.281   0.201  2.9684 -1.0859 -0.3596
 4540SOL    HW224090   1.137   9.222   0.353 -1.4007  0.8872  0.4279
 4541SOL     OW24091   4.463   7.488   0.575  0.0694 -0.4708 -0.1780
 4541SOL    HW124092   4.371   7.475   0.612  0.3644  1.0378  1.1616
 4541SOL    HW224093   4.458   7.512   0.478 -0.9959  0.3546  0.0758
 4542SOL     OW24094   7.464   9.232   1.562 -0.1918  0.2979  0.0408
 4542SOL    HW124095   7.404   9.312   1.559 -0.0749  0.3927  0.2700
 4542SOL    HW224096   7.546   9.253   1.615 -0.4940 -0.2020  0.7181
 4543SOL     OW24097   1.510   9.240   4.701 -0.0782 -0.2479 -0.2768
 4543SOL    HW124098   1.464   9.206   4.782  0.8776 -0.2093  0.2936
 4543SOL    HW224099   1.584   9.177   4.676  2.5797  2.0206  1.5804
 4544SOL     OW24100   3.100   5.216   2.424 -0.2815 -0.2547  0.0857
 4544SOL    HW124101   3.015   5.257   2.459  0.9319  0.9839  1.6934
 4544SOL    HW224102   3.101   5.223   2.325 -0.3605  3.2778  0.2557
 4545SOL     OW24103   9.730   8.155   0.281 -0.1278  0.1255 -0.5314
 4545SOL    HW124104   9.732   8.243   0.234 -0.1362  0.7680  0.6509
 4545SOL    HW224105   9.654   8.154   0.346  1.8086  0.4888  1.8152
 4546SOL     OW24106   4.130   0.860   2.769  0.5571  0.5201 -0.4162
 4546SOL    HW124107   4.224   0.891   2.757 -0.1540  2.3630 -1.3872
 4546SOL    HW224108   4.070   0.938   2.785 -0.7694 -0.6665  0.5782
 4547SOL     OW24109   4.440   5.530   1.704 -0.1798 -0.2820 -0.3640
 4547SOL    HW124110   4.518   5.540   1.766  0.1373 -2.6883 -0.3014
 4547SOL    HW224111   4.355   5.540   1.755  0.0784 -2.4334  0.5580
 4548SOL     OW24112   0.240   9.474   2.938  0.0431 -0.4158  0.0596
 4548SOL    HW124113   0.238   9.396   2.875 -1.0528 -1.1134  0.9373
 4548SOL    HW224114   0.148   9.492   2.972  0.3963  0.8459  0.3926
 4549SOL     OW24115   2.936   9.137   2.972  0.2213 -0.3915  0.6323
 4549SOL    HW124116   2.849   9.153   3.019 -1.1354 -2.1876 -1.1570
 4549SOL    HW224117   2.920   9.079   2.892  3.1446 -1.1698  0.5506
 4550SOL     OW24118   8.031   7.376   3.360 -0.4830  0.3878 -0.1059
 4550SOL    HW124119   8.089   7.458   3.369  0.7021 -0.4342 -0.1110
 4550SOL    HW224120   8.013   7.338   3.451  0.2673 -0.2314 -0.2137
 4551SOL     OW24121   8.470   8.192   0.258  0.0922  0.2544 -0.0877
 4551SOL    HW124122   8.541   8.227   0.320  0.9139  0.6792 -1.2427
 4551SOL    HW224123   8.430   8.110   0.297  0.2401  0.7983  1.2499
 4552SOL     OW24124   8.943   9.839   3.573  0.5474 -0.6551  0.0179
 4552SOL    HW124125   8.865   9.778   3.555  0.3276 -0.1277 -0.8404
 4552SOL    HW224126   9.025   9.784   3.590  0.2229 -1.2022 -0.1581
 4553SOL     OW24127   4.094   4.709   1.620  0.0238  0.2837  0.0332
 4553SOL    HW124128   4.115   4.652   1.699 -0.6022  0.2728  0.1947
 4553SOL    HW224129   4.008   4.758   1.636  1.4139  2.6416  0.6688
 4554SOL     OW24130   1.537   4.858   2.403  0.1915  0.0670 -0.1457
 4554SOL    HW124131   1.535   4.824   2.497 -0.8646 -0.7703 -0.4610
 4554SOL    HW224132   1.581   4.947   2.401  2.1453 -0.8362  0.8455
 4555SOL     OW24133   5.815   8.300   1.732 -0.0899 -0.5288  0.6179
 4555SOL    HW124134   5.869   8.331   1.811 -0.9083  0.6597  0.7190
 4555SOL    HW224135   5.789   8.204   1.746  2.5408 -1.3354  0.2557
 4556SOL     OW24136   1.673   3.366   4.581  0.2423  0.0160 -0.2487
 4556SOL    HW124137   1.725   3.426   4.642  2.0890 -0.9551 -0.8338
 4556SOL    HW224138   1.602   3.319   4.633 -0.5159  1.8654  0.4357
 4557SOL     OW24139   3.914   0.818   4.055  0.3855 -0.0149 -0.2950
 4557SOL    HW124140   3.845   0.748   4.034 -1.7091  2.3014 -1.3515
 4557SOL    HW224141   3.902   0.848   4.150  0.1559  0.1466 -0.3748
 4558SOL     OW24142   0.278   1.787   0.833  0.2231 -0.2646 -0.2891
 4558SOL    HW124143   0.273   1.832   0.743 -0.1513 -0.5465 -0.4131
 4558SOL    HW224144   0.260   1.854   0.905 -0.1197 -0.1681 -0.4617
 4559SOL     OW24145   2.178   3.449   2.208  0.6377  0.8233  0.5080
 4559SOL    HW124146   2.102   3.469   2.270  1.2866  0.8091  1.3277
 4559SOL    HW224147   2.263   3.484   2.248  0.8889  1.9810 -0.9882
 4560SOL     OW24148   9.782   0.103   1.575  0.0053 -0.2920 -0.1378
 4560SOL    HW124149   9.787   0.151   1.663  0.3112 -2.0601  0.8333
 4560SOL    HW224150   9.842   0.149   1.509 -0.5968  1.3337  0.4301
 4561SOL     OW24151   2.272   8.973   3.461  0.1092  0.1260 -0.1496
 4561SOL    HW124152   2.234   8.898   3.406 -1.1978  0.7218 -0.0822
 4561SOL    HW224153   2.368   8.954   3.482 -0.3763 -1.8353  0.3868
 4562SOL     OW24154   9.012   8.382   3.037 -0.1357 -0.4650  0.0433
 4562SOL    HW124155   9.106   8.362   3.009 -0.1517 -0.9421  0.3201
 4562SOL    HW224156   8.954   8.390   2.957 -0.2974 -2.3933 -0.0550
 4563SOL     OW24157   8.448   7.834   2.331  0.1198 -0.0956  0.5319
 4563SOL    HW124158   8.505   7.755   2.352  0.8751  0.4217  0.4197
 4563SOL    HW224159   8.403   7.865   2.415  0.9183  0.2133  0.8552
 4564SOL     OW24160   4.270   8.121   0.976 -0.1682  0.4544 -0.6252
 4564SOL    HW124161   4.250   8.026   1.002  0.6314  0.5018  0.1548
 4564SOL    HW224162   4.191   8.178   0.998 -0.0942  0.2230  0.2464
 4565SOL     OW24163   3.115   1.047   3.421 -0.0470 -0.0093  0.5040
 4565SOL    HW124164   3.154   1.130   3.380  0.3602 -0.7552 -0.6577
 4565SOL    HW224165   3.112   1.057   3.520 -1.1147  1.8768  0.3144
 4566SOL     OW24166   0.837   2.093   3.856  0.0628 -0.1764 -0.4999
 4566SOL    HW124167   0.814   2.188   3.833 -0.3281 -0.0462  0.4087
 4566SOL    HW224168   0.771   2.031   3.813 -0.9462  0.0924  0.6592
 4567SOL     OW24169   8.896   8.788   2.337  0.2634  0.6517 -0.1339
 4567SOL    HW124170   8.864   8.876   2.301 -1.6160  0.5006  1.1050
 4567SOL    HW224171   8.916   8.726   2.260  2.7016  2.4750 -1.0578
 4568SOL     OW24172   6.871   9.207   3.896  0.1964  0.1948 -0.0581
 4568SOL    HW124173   6.946   9.254   3.943 -1.5127  0.9199  2.0089
 4568SOL    HW224174   6.842   9.261   3.817 -1.1716  2.2860  1.7983
 4569SOL     OW24175   5.694   8.720   2.575  0.0263 -0.2283 -0.5861
 4569SOL    HW124176   5.596   8.728   2.593 -0.1062  0.2617 -1.5072
 4569SOL    HW224177   5.746   8.749   2.656 -0.5941 -1.9592  0.4589
 4570SOL     OW24178   6.889   9.524   4.011 -0.3492  0.3589  0.0094
 4570SOL    HW124179   6.951   9.470   3.955 -1.4384  0.4631 -1.2990
 4570SOL    HW224180   6.825   9.464   4.059 -0.9009  0.4200 -0.6506
 4571SOL     OW24181   5.379   7.385   2.967 -0.7943 -1.1079  0.4698
 4571SOL    HW124182   5.337   7.431   2.888 -0.5547 -0.2498  0.8376
 4571SOL    HW224183   5.464   7.341   2.939 -0.6967 -0.7810  0.2571
 4572SOL     OW24184   9.674   8.886   2.320 -0.9637 -0.5129 -0.3514
 4572SOL    HW124185   9.700   8.874   2.416 -0.8469  0.6368 -0.2375
 4572SOL    HW224186   9.672   8.797   2.275 -0.7733 -1.0305  0.6565
 4573SOL     OW24187   7.708   7.457   1.517  0.2842  0.0728  0.0253
 4573SOL    HW124188   7.650   7.490   1.591  1.0262  0.7427  0.3108
 4573SOL    HW224189   7.734   7.534   1.459  0.2659 -0.3464 -0.5422
 4574SOL     OW24190   3.276   5.877   1.308 -0.1508  0.6711 -0.3543
 4574SOL    HW124191   3.235   5.808   1.248  1.1229 -0.2349 -0.1869
 4574SOL    HW224192   3.368   5.900   1.274  0.9804 -0.5755  1.8059
 4575SOL     OW24193   5.759   9.048   2.330 -0.3597 -0.6759  0.6531
 4575SOL    HW124194   5.672   9.048   2.282 -0.0517  0.0048  0.0942
 4575SOL    HW224195   5.772   9.135   2.377 -0.0013 -0.7976  0.7814
 4576SOL     OW24196   5.917   9.102   2.022 -0.4052  0.2443 -0.0960
 4576SOL    HW124197   5.927   9.010   2.060 -0.0516 -0.4896 -1.9230
 4576SOL    HW224198   6.000   9.128   1.974 -0.3956  1.6509  0.6628
 4577SOL     OW24199   1.438   7.904   2.084 -0.3381  0.3162  0.4133
 4577SOL    HW124200   1.518   7.960   2.062 -0.1908 -0.3273 -0.7319
 4577SOL    HW224201   1.457   7.849   2.165  0.8118 -0.6752 -0.5131
 4578SOL     OW24202   2.466   3.492   0.578 -0.6433  0.4777  0.2093
 4578SOL    HW124203   2.550   3.457   0.535  0.1665  1.1305  1.2378
 4578SOL    HW224204   2.389   3.479   0.515 -0.0315 -1.4136 -0.1869
 4579SOL     OW24205   7.024   7.831   2.045 -0.5101  0.2398 -0.6414
 4579SOL    HW124206   6.989   7.852   1.954  1.1310 -0.4403 -1.4369
 4579SOL    HW224207   7.119   7.863   2.053 -0.1030 -1.1529  0.2687
 4580SOL     OW24208   8.179   9.767   1.746  0.9425 -0.3334 -0.4419
 4580SOL    HW124209   8.094   9.731   1.710  0.5109 -0.3406  0.5635
 4580SOL    HW224210   8.219   9.701   1.810 -1.3573  2.0484  3.7123
 4581SOL     OW24211   1.932   6.592   0.642 -0.1820 -0.2384  0.2950
 4581SOL    HW124212   1.956   6.569   0.547  0.1391 -0.9908  0.5558
 4581SOL    HW224213   1.949   6.689   0.658  0.6537 -0.3059 -0.1532
 4582SOL     OW24214   9.798   8.606   4.012  0.2103  0.0434 -0.3953
 4582SOL    HW124215   9.719   8.590   4.070 -1.1509  0.1887 -2.1570
 4582SOL    HW224216   9.846   8.688   4.043  0.2421 -0.5922  1.2714
 4583SOL     OW24217   2.427   5.090   3.218  0.3039  0.1506 -0.1654
 4583SOL    HW124218   2.472   5.167   3.173  1.1522  0.8171  1.7778
 4583SOL    HW224219   2.343   5.122   3.262  0.3293 -0.1642  0.1128
 4584SOL     OW24220   3.897   7.733   0.446 -0.5562 -0.2335  0.1490
 4584SOL    HW124221   3.874   7.799   0.517 -1.8596  0.0795 -0.5415
 4584SOL    HW224222   3.888   7.776   0.356 -0.7993 -1.1555 -0.2774
 4585SOL     OW24223   0.979   7.451   3.145  0.0166  0.0358  0.1503
 4585SOL    HW124224   1.063   7.501   3.126 -0.1953  0.5308  0.4946
 4585SOL    HW224225   0.946   7.407   3.062  0.1190  0.6031 -0.1942
 4586SOL     OW24226   4.033   0.432   0.910 -0.2852  1.0110  0.0135
 4586SOL    HW124227   3.948   0.384   0.890  0.9334 -0.7494 -1.0887
 4586SOL    HW224228   4.017   0.531   0.909 -2.9053  0.6881  2.5951
 4587SOL     OW24229   1.759   3.263   2.458 -0.0646  0.3334  0.1930
 4587SOL    HW124230   1.727   3.173   2.488  2.6383 -1.3943 -1.8316
 4587SOL    HW224231   1.780   3.319   2.538  0.4606 -1.6996  1.5210
 4588SOL     OW24232   2.285   4.489   1.526  0.1298  0.2098  0.1022
 4588SOL    HW124233   2.200   4.533   1.497  0.2779  0.5831  0.2278
 4588SOL    HW224234   2.280   4.391   1.507 -0.0093  0.3561 -0.6589
 4589SOL     OW24235   2.551   7.146   1.755  0.6154  0.2948 -0.1782
 4589SOL    HW124236   2.475   7.203   1.722 -0.7787 -0.9991  0.7454
 4589SOL    HW224237   2.601   7.196   1.827  0.5498  1.0842 -0.6736
 4590SOL     OW24238   1.610   5.282   3.823 -0.2352  0.3044  0.2675
 4590SOL    HW124239   1.609   5.310   3.727  0.4621 -0.2493  0.0937
 4590SOL    HW224240   1.674   5.340   3.874 -0.4297  0.4453  0.3520
 4591SOL     OW24241   4.038   2.888   0.722  0.0547  0.3835 -0.2143
 4591SOL    HW124242   3.959   2.939   0.687  0.3160 -0.4963 -2.1619
 4591SOL    HW224243   4.008   2.799   0.755  0.1933  0.1453 -0.7278
 4592SOL     OW24244   9.053   6.149   1.443 -0.2012 -0.2569  0.1315
 4592SOL    HW124245   9.090   6.161   1.535  1.3661 -0.8038 -0.4151
 4592SOL    HW224246   9.035   6.052   1.426  0.4662 -0.2774 -0.4917
 4593SOL     OW24247   1.013   7.017   2.185 -0.2594 -0.3907  0.1731
 4593SOL    HW124248   0.964   7.091   2.137 -0.3168  0.0192  0.8480
 4593SOL    HW224249   1.056   7.055   2.267  2.4245 -0.4419 -1.1740
 4594SOL     OW24250   2.022   0.946   2.361 -0.0291 -0.0388  0.4501
 4594SOL    HW124251   2.076   0.991   2.431  0.2255  0.4519 -0.0598
 4594SOL    HW224252   2.067   0.955   2.272 -0.7749  0.0907  0.0732
 4595SOL     OW24253   1.398   9.096   2.873  0.1197 -0.2499 -0.0943
 4595SOL    HW124254   1.386   9.015   2.931  0.6517 -0.1840  0.1085
 4595SOL    HW224255   1.470   9.154   2.911  0.0225  0.1137 -0.4662
 4596SOL     OW24256   2.433   5.538   3.127  0.7473  0.0270 -0.2574
 4596SOL    HW124257   2.352   5.581   3.089  0.1514 -0.6705  0.2096
 4596SOL    HW224258   2.437   5.554   3.226  0.0506 -1.7103  0.0667
 4597SOL     OW24259   2.810   3.411   2.475  0.0771  0.4753 -0.5360
 4597SOL    HW124260   2.810   3.316   2.442 -0.9683  0.9422 -1.9172
 4597SOL    HW224261   2.747   3.420   2.552  1.5250 -0.3252  0.7865
 4598SOL     OW24262   6.737   0.404   2.909  0.3352 -0.2139 -0.3261
 4598SOL    HW124263   6.744   0.423   3.007 -0.0366  0.5392 -0.4447
 4598SOL    HW224264   6.767   0.310   2.892  2.8307  0.4552  0.1770
 4599SOL     OW24265   0.016   6.121   2.540  0.6200  0.2387 -0.2293
 4599SOL    HW124266  -0.019   6.028   2.536 -0.1808  0.5668 -0.8245
 4599SOL    HW224267   0.028   6.148   2.636 -0.0771 -0.1188 -0.0439
 4600SOL     OW24268   4.655   7.170   2.414  0.0818 -0.0568  0.0268
 4600SOL    HW124269   4.559   7.157   2.392 -0.0704 -1.4437  1.4123
 4600SOL    HW224270   4.675   7.126   2.502  2.2595 -0.8629 -0.8475
 4601SOL     OW24271   0.917   7.745   2.792  0.1861 -0.0830 -0.3007
 4601SOL    HW124272   0.863   7.775   2.871 -1.0760  2.6735 -2.1512
 4601SOL    HW224273   1.014   7.747   2.816 -0.1329  1.5058  0.9624
 4602SOL     OW24274   0.284   9.717   3.579 -0.5059 -0.4781  0.3386
 4602SOL    HW124275   0.253   9.635   3.627 -0.7933 -1.1099 -0.9162
 4602SOL    HW224276   0.284   9.794   3.642 -0.4881 -1.3862  1.4623
 4603SOL     OW24277   7.951   7.163   2.190 -0.3369 -0.4262  0.0866
 4603SOL    HW124278   8.002   7.146   2.105 -1.6469  3.1661 -1.5101
 4603SOL    HW224279   8.010   7.207   2.257  0.4199 -2.3495  0.7207
 4604SOL     OW24280   2.868   1.235   0.288  0.1895 -0.2264  0.3031
 4604SOL    HW124281   2.813   1.158   0.256  1.2358 -1.9028  2.4376
 4604SOL    HW224282   2.860   1.310   0.223  1.3559 -3.0930 -3.3373
 4605SOL     OW24283   0.379   7.417   0.144  0.2095 -0.4081  0.6728
 4605SOL    HW124284   0.400   7.427   0.241 -1.5890 -0.7250  1.1185
 4605SOL    HW224285   0.406   7.499   0.095 -1.0888  0.7665  1.8723
 4606SOL     OW24286   1.758   9.612   4.636  0.0005  0.4165 -0.1663
 4606SOL    HW124287   1.724   9.536   4.692 -0.6117  0.7581 -0.0711
 4606SOL    HW224288   1.726   9.600   4.542 -1.3253  1.3262  0.1598
 4607SOL     OW24289   2.720   8.049   2.332  0.2660  0.0021  0.0553
 4607SOL    HW124290   2.662   8.021   2.256 -0.7934 -0.5214  1.0391
 4607SOL    HW224291   2.815   8.057   2.301 -0.6258  2.9411 -2.0847
 4608SOL     OW24292   5.003   8.319   3.433  0.4831 -0.6646  0.1317
 4608SOL    HW124293   4.938   8.380   3.479 -0.6337 -1.0447 -0.9167
 4608SOL    HW224294   4.985   8.225   3.461 -0.0419 -0.8714 -0.8806
 4609SOL     OW24295   2.981   6.160   1.662 -0.3652  0.2339 -0.4264
 4609SOL    HW124296   2.888   6.170   1.627 -0.5994 -0.8449 -0.1240
 4609SOL    HW224297   2.980   6.102   1.743  0.7767 -1.0789 -1.3323
 4610SOL     OW24298   7.222   8.825   0.065 -0.2222  0.5181  0.1263
 4610SOL    HW124299   7.273   8.757   0.119 -0.4636 -0.4615 -0.8511
 4610SOL    HW224300   7.281   8.903   0.047 -0.0942  0.7988  1.6844
 4611SOL     OW24301   7.367   8.443   3.400 -0.3359 -0.5711  0.5983
 4611SOL    HW124302   7.464   8.467   3.403 -0.1328 -1.2394 -0.3840
 4611SOL    HW224303   7.352   8.355   3.445 -0.2948 -1.0452 -0.2977
 4612SOL     OW24304   7.192   6.585   3.217 -0.1471  0.2720 -0.6522
 4612SOL    HW124305   7.275   6.606   3.166 -0.8353  0.0959 -1.8754
 4612SOL    HW224306   7.151   6.669   3.251  1.7502  0.1951  1.9563
 4613SOL     OW24307   0.832   8.796   0.209 -0.6874  0.7840 -0.1584
 4613SOL    HW124308   0.803   8.702   0.192 -2.6140  1.3451 -0.0690
 4613SOL    HW224309   0.905   8.795   0.278 -1.4023 -0.5749  0.6171
 4614SOL     OW24310   7.590   7.327   2.504 -0.2389  0.0127 -0.3447
 4614SOL    HW124311   7.616   7.330   2.600  0.6919 -1.4477 -0.5346
 4614SOL    HW224312   7.608   7.236   2.467 -2.8298 -0.1906 -1.2750
 4615SOL     OW24313   6.263   0.332   3.401 -0.2679  0.2253 -0.9548
 4615SOL    HW124314   6.276   0.302   3.307  2.0275 -3.2964  0.3773
 4615SOL    HW224315   6.349   0.364   3.438 -0.8537  0.3538  0.3275
 4616SOL     OW24316   3.654   3.673   0.010  0.4023 -0.6773  0.1504
 4616SOL    HW124317   3.683   3.631   0.095 -0.5164 -1.2569  0.1885
 4616SOL    HW224318   3.660   3.773   0.018 -1.4713 -0.6546  1.5644
 4617SOL     OW24319   1.616   3.372   1.807  0.2527 -0.6339  0.2306
 4617SOL    HW124320   1.584   3.296   1.864 -0.5636 -0.2251  0.3185
 4617SOL    HW224321   1.637   3.451   1.864  2.4145 -1.2140  0.2855
 4618SOL     OW24322   9.847   0.009   2.861 -0.4627 -0.4449  0.4109
 4618SOL    HW124323   9.839   0.028   2.763  0.8654 -0.2154  0.3320
 4618SOL    HW224324   9.789   0.072   2.912  0.0695  0.5223 -0.1488
 4619SOL     OW24325   0.529   4.189   0.752  0.2898  0.2671 -0.0639
 4619SOL    HW124326   0.505   4.092   0.748 -0.2089  0.2682  2.0160
 4619SOL    HW224327   0.531   4.228   0.660 -3.3221 -0.8084 -0.6742
 4620SOL     OW24328   0.397   2.482   1.376 -0.3842  0.1421 -0.1765
 4620SOL    HW124329   0.445   2.501   1.290 -0.0706  1.3554  0.2506
 4620SOL    HW224330   0.449   2.416   1.430  0.2770  0.6646 -0.1708
 4621SOL     OW24331   1.925   8.709   1.933  0.0037 -0.0706 -0.0017
 4621SOL    HW124332   1.986   8.781   1.898 -0.2655 -0.0425 -0.4143
 4621SOL    HW224333   1.979   8.628   1.956  0.3544  0.3902  0.8091
 4622SOL     OW24334   2.843   8.943   2.115 -0.2997  0.1376  0.1662
 4622SOL    HW124335   2.841   8.923   2.213  0.0160 -2.0811 -0.2525
 4622SOL    HW224336   2.930   8.986   2.092 -0.2002  0.2786  0.7969
 4623SOL     OW24337   2.344   4.905   0.570 -0.2098 -0.0435  0.0460
 4623SOL    HW124338   2.268   4.950   0.523 -0.6050 -0.6496  0.0939
 4623SOL    HW224339   2.390   4.842   0.507  1.4128  1.6832 -0.5216
 4624SOL     OW24340   0.908   7.818   1.563  0.1341 -0.2898  0.1935
 4624SOL    HW124341   0.933   7.744   1.501 -1.8789 -0.8904  0.0546
 4624SOL    HW224342   0.930   7.791   1.657 -0.1952 -0.9049  0.1008
 4625SOL     OW24343   0.367   8.379   2.767 -0.1775 -0.6809 -0.7477
 4625SOL    HW124344   0.355   8.449   2.696  0.1873 -0.0476 -0.1841
 4625SOL    HW224345   0.462   8.348   2.767  0.0059 -0.1099  0.0020
 4626SOL     OW24346   2.792   7.769   0.080  0.0212  0.6699  0.3267
 4626SOL    HW124347   2.774   7.731   0.171 -1.7587  1.1113  0.1922
 4626SOL    HW224348   2.834   7.699   0.022 -1.9536 -0.7283  0.4944
 4627SOL     OW24349   7.241   8.302   2.746  0.4867  0.2156 -0.9711
 4627SOL    HW124350   7.145   8.317   2.771 -0.2752 -1.1979 -2.9043
 4627SOL    HW224351   7.253   8.206   2.718  2.6783  0.1353  0.1619
 4628SOL     OW24352   2.885   4.730   2.176 -0.4343  0.1357  0.4583
 4628SOL    HW124353   2.973   4.777   2.176 -0.5900  0.4440  1.4215
 4628SOL    HW224354   2.811   4.796   2.162 -0.4481 -0.2664 -1.4088
 4629SOL     OW24355   3.057   9.462   0.272 -0.6686  0.3864  0.1083
 4629SOL    HW124356   3.023   9.472   0.365  0.8581 -1.6125  0.9026
 4629SOL    HW224357   3.146   9.507   0.264  0.2396 -1.3431  0.2449
 4630SOL     OW24358   2.020   0.530   0.382 -0.7084  0.0357 -0.2200
 4630SOL    HW124359   1.970   0.535   0.468  0.1490  0.4304  0.2578
 4630SOL    HW224360   2.046   0.435   0.365 -3.2684 -0.5026 -1.4381
 4631SOL     OW24361   8.959   8.363   0.442 -0.0969  0.5896  0.3914
 4631SOL    HW124362   8.999   8.359   0.351 -0.7340 -0.1124  0.1427
 4631SOL    HW224363   8.975   8.277   0.490 -1.3958  0.2607  0.2542
 4632SOL     OW24364   3.522   7.439   1.732 -0.3704  0.3347  0.0277
 4632SOL    HW124365   3.553   7.370   1.668  1.4298  0.2964  0.8922
 4632SOL    HW224366   3.545   7.530   1.697 -0.4549  0.3662  0.0539
 4633SOL     OW24367   2.690   9.483   2.359 -0.1018 -0.0308 -0.1494
 4633SOL    HW124368   2.682   9.408   2.425  1.5186  1.5822  1.9772
 4633SOL    HW224369   2.767   9.466   2.298  0.5230  0.0675  0.6007
 4634SOL     OW24370   0.962   7.775   1.839  0.3452  0.0854  0.1160
 4634SOL    HW124371   0.958   7.867   1.878 -1.7095 -0.3480  1.0126
 4634SOL    HW224372   0.900   7.715   1.889 -0.0901 -1.2298 -1.9217
 4635SOL     OW24373   1.453   0.112   0.581  0.2385 -0.2667  0.0895
 4635SOL    HW124374   1.358   0.141   0.593  0.2811 -0.6624  1.5785
 4635SOL    HW224375   1.468   0.028   0.633  1.7242  0.4776  0.8965
 4636SOL     OW24376   1.298   4.409   4.137  0.5244 -0.0352 -0.0860
 4636SOL    HW124377   1.330   4.319   4.105 -0.1830 -0.2658 -0.1606
 4636SOL    HW224378   1.343   4.481   4.085  0.5257 -0.3698 -0.5490
 4637SOL     OW24379   9.721   7.190   1.326 -0.3907  0.1678  0.2247
 4637SOL    HW124380   9.726   7.193   1.226 -0.9534  0.8556  0.2123
 4637SOL    HW224381   9.663   7.265   1.358  0.5374  0.5016  1.1262
 4638SOL     OW24382   2.472   4.242   3.134 -0.2718 -0.1146  0.5317
 4638SOL    HW124383   2.444   4.161   3.084 -1.9335  1.1505 -0.6091
 4638SOL    HW224384   2.568   4.261   3.115  0.3508 -2.1807  1.3646
 4639SOL     OW24385   0.581   7.267   4.495  0.2709 -0.0636  0.1817
 4639SOL    HW124386   0.578   7.188   4.556 -0.0715 -1.5805 -1.7790
 4639SOL    HW224387   0.492   7.313   4.496 -0.4046 -1.3302 -0.7793
 4640SOL     OW24388   1.398   1.752   4.467 -0.7220 -0.7165 -0.0654
 4640SOL    HW124389   1.442   1.663   4.453  0.4364 -0.0957 -0.5007
 4640SOL    HW224390   1.358   1.783   4.381  0.7393  0.1469 -0.4474
 4641SOL     OW24391   3.038   7.414   0.738 -0.1067 -0.6059 -0.1999
 4641SOL    HW124392   3.058   7.384   0.644 -2.3862 -0.4846 -0.7407
 4641SOL    HW224393   2.968   7.356   0.778  0.5184 -0.3625  1.2867
 4642SOL     OW24394   9.390   6.131   3.559 -0.2285  0.3747 -0.3867
 4642SOL    HW124395   9.338   6.206   3.518 -0.3373  1.3247  1.4284
 4642SOL    HW224396   9.328   6.074   3.613  0.0964 -0.2148 -0.6387
 4643SOL     OW24397   7.080   9.628   2.452  0.0297 -0.2015 -0.0773
 4643SOL    HW124398   7.156   9.592   2.398 -0.9709  0.4652 -1.9778
 4643SOL    HW224399   7.038   9.554   2.503  2.8739 -0.3322  2.1889
 4644SOL     OW24400   1.034   4.356   4.017 -0.0535 -0.2900 -0.3180
 4644SOL    HW124401   1.004   4.319   4.105 -0.1354  1.8791  0.5832
 4644SOL    HW224402   1.123   4.399   4.027 -0.0128 -0.1121 -1.3341
 4645SOL     OW24403   9.675   0.040   3.622 -0.3196 -0.1144 -0.1360
 4645SOL    HW124404   9.674   0.137   3.597 -0.0750 -0.4630 -1.5333
 4645SOL    HW224405   9.584   0.013   3.655 -0.2870  0.6692  0.6036
 4646SOL     OW24406   2.589   3.401   2.639 -0.1641  0.2900 -0.2589
 4646SOL    HW124407   2.548   3.486   2.671 -0.5690  1.1842 -3.0490
 4646SOL    HW224408   2.528   3.325   2.662 -0.3025  0.8387  1.2922
 4647SOL     OW24409   9.044   5.682   1.916  0.4616  0.1008  0.0828
 4647SOL    HW124410   9.093   5.649   1.836 -0.3492  1.1864 -0.8816
 4647SOL    HW224411   9.013   5.605   1.971 -1.7788 -0.8015 -2.3656
 4648SOL     OW24412   5.038   9.808   1.811 -0.0537 -0.1543 -0.6701
 4648SOL    HW124413   5.005   9.725   1.855  1.8777 -0.3723  0.4199
 4648SOL    HW224414   4.961   9.870   1.794 -1.1253 -0.9860  1.0152
 4649SOL     OW24415   8.357   7.478   4.688 -0.3450  0.3201 -0.3047
 4649SOL    HW124416   8.358   7.491   4.589 -0.0254  0.4377 -0.2850
 4649SOL    HW224417   8.355   7.380   4.709 -2.5722  0.3121 -0.4466
 4650SOL     OW24418   9.373   4.982   2.175 -0.1130 -0.0392  0.2795
 4650SOL    HW124419   9.419   5.051   2.119  0.4868 -1.0409 -0.4891
 4650SOL    HW224420   9.398   4.890   2.142  0.7969 -0.6644  2.6165
 4651SOL     OW24421   1.774   9.298   2.615 -0.4975 -0.3095 -0.2924
 4651SOL    HW124422   1.708   9.262   2.549  0.3778  0.7131 -1.7317
 4651SOL    HW224423   1.806   9.387   2.585  2.3416 -1.2471 -0.1470
 4652SOL     OW24424   9.796   8.269   2.098  0.5711  0.2193 -0.0215
 4652SOL    HW124425   9.890   8.290   2.072  1.6839 -1.4684  2.4535
 4652SOL    HW224426   9.784   8.170   2.101 -1.4512  0.4243 -0.8560
 4653SOL     OW24427   0.888   8.284   0.600 -0.1787  0.4405  0.1221
 4653SOL    HW124428   0.925   8.332   0.679  0.4745  0.2470 -0.0646
 4653SOL    HW224429   0.940   8.308   0.518 -0.8574  0.6455 -0.2529
 4654SOL     OW24430   4.861   1.107   1.907  0.0423 -0.2091 -0.1212
 4654SOL    HW124431   4.818   1.053   1.836 -1.9133 -1.6501  2.0872
 4654SOL    HW224432   4.854   1.204   1.885 -1.0175 -0.6226 -1.6084
 4655SOL     OW24433   1.203   1.151   0.560  0.3921 -0.6565 -0.4357
 4655SOL    HW124434   1.103   1.150   0.563  0.3836 -0.9193 -0.7680
 4655SOL    HW224435   1.237   1.235   0.602  0.0404 -0.6854 -0.0867
 4656SOL     OW24436   1.303   6.310   2.684  0.2712 -0.1258  0.3979
 4656SOL    HW124437   1.302   6.213   2.659 -0.9180 -0.4789  1.7463
 4656SOL    HW224438   1.366   6.359   2.624  1.2708 -1.8225  0.0293
 4657SOL     OW24439   8.211   7.268   3.091 -0.3871  0.3565  0.3327
 4657SOL    HW124440   8.114   7.286   3.078  0.1007  1.3604 -2.1874
 4657SOL    HW224441   8.259   7.353   3.113  0.1081  0.1191  0.1906
 4658SOL     OW24442   3.041   0.408   1.478 -0.1113 -0.3595 -0.2667
 4658SOL    HW124443   3.023   0.357   1.393  2.1548 -2.7740  0.6319
 4658SOL    HW224444   3.054   0.343   1.553  3.4573  1.4908  0.8030
 4659SOL     OW24445   6.722   9.090   2.123  1.1409 -0.4038  0.3591
 4659SOL    HW124446   6.698   9.039   2.041 -0.2500  0.2443  0.3558
 4659SOL    HW224447   6.700   9.035   2.204 -2.2273  0.9198  0.4102
 4660SOL     OW24448   0.261   1.492   3.481 -0.2295  0.5846  0.2139
 4660SOL    HW124449   0.360   1.480   3.488 -0.1996  1.3355  1.2712
 4660SOL    HW224450   0.241   1.564   3.414 -0.0136  0.9884  0.5768
 4661SOL     OW24451   6.775   9.372   3.689  0.3594 -0.0679  0.1363
 4661SOL    HW124452   6.684   9.341   3.662  0.2704  0.7518 -0.5009
 4661SOL    HW224453   6.776   9.471   3.700  1.2497 -0.0303 -0.1721
 4662SOL     OW24454   9.991   5.966   4.725 -0.0211  0.9398  0.0511
 4662SOL    HW124455  10.034   5.875   4.731 -2.6541 -0.4313 -0.9608
 4662SOL    HW224456  10.024   6.012   4.642 -0.0189  0.1567 -0.3984
 4663SOL     OW24457   2.021   1.487   0.830  0.1944  0.2464  0.8140
 4663SOL    HW124458   2.052   1.520   0.919 -1.5758  1.6653  0.9231
 4663SOL    HW224459   1.921   1.491   0.826  0.1934 -0.8582 -0.8465
 4664SOL     OW24460   0.170   6.654   2.222  0.1638 -0.3486  0.4332
 4664SOL    HW124461   0.179   6.562   2.262 -0.5130 -0.3225  0.6539
 4664SOL    HW224462   0.184   6.723   2.293 -0.7795 -0.3000  0.5810
 4665SOL     OW24463   8.951   9.311   4.706 -0.7174 -0.4037 -0.1853
 4665SOL    HW124464   9.036   9.325   4.656 -0.1872  0.4035  0.9405
 4665SOL    HW224465   8.898   9.239   4.661  0.8628 -1.3998 -0.4875
 4666SOL     OW24466   1.274   1.797   4.232  0.0283  0.2790  0.1145
 4666SOL    HW124467   1.270   1.729   4.158 -1.2687  0.9775 -0.4755
 4666SOL    HW224468   1.203   1.866   4.218  2.0929  2.4487  0.0504
 4667SOL     OW24469   0.389   4.365   2.852  0.0706 -0.1164 -0.1151
 4667SOL    HW124470   0.324   4.311   2.905 -0.4661  1.3543  0.7577
 4667SOL    HW224471   0.481   4.354   2.891 -0.3764  1.2169  1.3541
 4668SOL     OW24472   1.297   4.249   3.807 -0.2035  0.3393 -0.3050
 4668SOL    HW124473   1.396   4.234   3.806 -0.5080 -1.7996 -3.0432
 4668SOL    HW224474   1.256   4.198   3.882  0.8438  2.1413  1.5591
 4669SOL     OW24475   1.181   4.729   1.467  0.2053  0.2841  0.3333
 4669SOL    HW124476   1.118   4.680   1.528  1.3231 -1.0093  0.4724
 4669SOL    HW224477   1.135   4.750   1.381 -0.6363 -0.0054  0.7059
 4670SOL     OW24478   7.586   6.573   1.412  0.3597 -0.4770  0.0749
 4670SOL    HW124479   7.613   6.564   1.316 -2.3499  0.2050 -0.7789
 4670SOL    HW224480   7.546   6.663   1.428 -1.2902 -1.4058  1.3203
 4671SOL     OW24481   2.827   0.161   0.132  0.1848  0.2355 -0.4260
 4671SOL    HW124482   2.835   0.106   0.215 -0.4859 -1.7744 -1.6741
 4671SOL    HW224483   2.745   0.218   0.139 -0.2588 -0.4466 -0.0066
 4672SOL     OW24484   0.250   7.411   3.684  0.8428  0.0123 -0.4404
 4672SOL    HW124485   0.303   7.372   3.758  1.1333  1.5201  0.1615
 4672SOL    HW224486   0.163   7.446   3.720  0.7624  0.2900 -0.9043
 4673SOL     OW24487   3.865   1.391   3.016  0.0924  0.4411 -0.1011
 4673SOL    HW124488   3.956   1.416   2.983  0.7065  1.4739  2.2735
 4673SOL    HW224489   3.859   1.291   3.025  0.5664  0.2863 -1.4331
 4674SOL     OW24490   2.554   8.564   4.480  0.2355 -0.2048  0.3840
 4674SOL    HW124491   2.516   8.473   4.488 -1.6106  0.7957  3.6336
 4674SOL    HW224492   2.612   8.584   4.559 -0.6743  2.0261  0.5350
 4675SOL     OW24493   2.190   4.333   3.495  0.0245  0.5420 -0.3961
 4675SOL    HW124494   2.265   4.389   3.531 -0.2558 -0.1511  1.2750
 4675SOL    HW224495   2.105   4.385   3.498  0.3078  1.1174 -1.7476
 4676SOL     OW24496   0.323   1.863   3.466 -0.4010  0.0069  0.2837
 4676SOL    HW124497   0.297   1.808   3.545  1.9594 -1.8592 -0.1936
 4676SOL    HW224498   0.363   1.949   3.497 -0.9463 -0.0178  1.0789
 4677SOL     OW24499   6.222   6.939   2.333 -0.4063  0.2332  0.0511
 4677SOL    HW124500   6.172   6.996   2.269 -1.0197 -1.4156 -0.9817
 4677SOL    HW224501   6.291   6.886   2.283 -1.0063 -1.2053  0.7219
 4678SOL     OW24502   3.608   8.491   1.310 -0.5407  0.4792 -0.1331
 4678SOL    HW124503   3.579   8.564   1.373 -1.5045  2.0675 -2.3298
 4678SOL    HW224504   3.701   8.510   1.277 -0.0796 -0.2914  0.6997
 4679SOL     OW24505   6.171   0.638   2.688  1.0822 -0.6136  0.4416
 4679SOL    HW124506   6.136   0.724   2.725 -0.1012 -1.5960  1.6390
 4679SOL    HW224507   6.154   0.564   2.753 -0.6862 -2.3078 -1.8659
 4680SOL     OW24508   9.799   7.120   4.645  0.1075  0.3814 -0.0778
 4680SOL    HW124509   9.733   7.118   4.720 -1.7819 -1.2660 -1.7376
 4680SOL    HW224510   9.786   7.203   4.591 -0.9467 -0.1669 -0.6801
 4681SOL     OW24511   9.681   5.880   2.861  0.1106  0.3597  0.3289
 4681SOL    HW124512   9.724   5.803   2.812 -0.1080  0.0722  0.5864
 4681SOL    HW224513   9.586   5.890   2.832  0.8928  2.2645 -1.7279
 4682SOL     OW24514   1.782   8.112   2.402  0.2847  0.2638  0.8170
 4682SOL    HW124515   1.861   8.173   2.414  0.6654 -0.0015 -0.3485
 4682SOL    HW224516   1.811   8.029   2.355 -0.7876  0.3538 -0.0010
 4683SOL     OW24517   8.583   8.960   4.531 -0.5580  0.2001  0.2640
 4683SOL    HW124518   8.606   9.026   4.460 -2.2582  0.1879 -0.3099
 4683SOL    HW224519   8.562   9.008   4.616  1.4953  0.2118  0.7828
 4684SOL     OW24520   5.548   7.166   1.973  0.1305 -0.1840 -0.4520
 4684SOL    HW124521   5.466   7.201   1.928 -0.2323 -1.0414 -0.4667
 4684SOL    HW224522   5.628   7.217   1.940 -0.0957 -0.9551 -2.2495
 4685SOL     OW24523   0.026   1.585   3.139 -0.3602  0.5284  0.4883
 4685SOL    HW124524   0.081   1.645   3.198  1.2414 -1.0667  0.6737
 4685SOL    HW224525   0.012   1.498   3.186 -3.3679  1.0256  0.5734
 4686SOL     OW24526   2.189   3.796   4.491 -0.3913  0.0541 -0.0475
 4686SOL    HW124527   2.165   3.840   4.404  0.1298  0.5129  0.0347
 4686SOL    HW224528   2.210   3.700   4.474 -0.2595  0.1488 -0.4372
 4687SOL     OW24529   2.763   8.011   1.432  0.3651 -0.2355 -0.2166
 4687SOL    HW124530   2.689   7.946   1.445  0.5103  0.0173  2.0166
 4687SOL    HW224531   2.764   8.042   1.337 -0.9733 -1.9350 -0.8011
 4688SOL     OW24532   2.426   9.324   2.051  0.4946 -0.7628 -0.0700
 4688SOL    HW124533   2.496   9.254   2.049  1.2895 -0.1291  2.9471
 4688SOL    HW224534   2.356   9.300   2.119  0.4664  1.0213  0.5703
 4689SOL     OW24535   0.047   6.916   0.381  0.0762  0.3689  0.0556
 4689SOL    HW124536  -0.023   6.973   0.338  0.5661  1.0369  0.1375
 4689SOL    HW224537   0.133   6.925   0.331  0.6053  1.0311  1.0735
 4690SOL     OW24538   9.981   8.873   2.270  0.0385 -0.0113 -0.1100
 4690SOL    HW124539   9.965   8.824   2.356  1.3951 -1.3841 -0.6165
 4690SOL    HW224540   9.987   8.971   2.288 -1.9539 -0.0558  1.0302
 4691SOL     OW24541   1.397   5.066   0.940  0.2531  0.4776  0.1633
 4691SOL    HW124542   1.320   5.011   0.907  1.0846 -0.0564 -0.9447
 4691SOL    HW224543   1.375   5.163   0.930 -0.2483  0.3292 -0.2272
 4692SOL     OW24544   0.581   9.910   2.252 -0.5149 -0.2943  0.1971
 4692SOL    HW124545   0.508   9.964   2.211 -0.5703 -1.3471 -1.0977
 4692SOL    HW224546   0.612   9.955   2.336 -1.7455  0.8350  0.0588
 4693SOL     OW24547   3.790   0.508   1.519 -0.5105 -0.3689  0.4835
 4693SOL    HW124548   3.739   0.580   1.566  0.4039  0.0208  0.8980
 4693SOL    HW224549   3.860   0.549   1.461  0.0663 -0.9204  0.7770
 4694SOL     OW24550   9.664   6.640   3.364 -0.0599  0.2175 -0.4428
 4694SOL    HW124551   9.713   6.555   3.384  0.4600  0.8507  1.1153
 4694SOL    HW224552   9.680   6.667   3.269  0.9583 -0.6564 -0.5316
 4695SOL     OW24553   0.415   9.963   2.632 -0.5223 -0.8416 -0.5370
 4695SOL    HW124554   0.390  10.025   2.558  0.2595 -0.8182 -0.7807
 4695SOL    HW224555   0.430   9.871   2.595  0.0888 -0.7789 -0.4392
 4696SOL     OW24556   0.892   4.388   3.419  0.4561 -0.2203 -0.2298
 4696SOL    HW124557   0.933   4.351   3.503 -0.8162 -0.0784  0.4766
 4696SOL    HW224558   0.943   4.469   3.390  0.6932 -0.0541  0.6284
 4697SOL     OW24559   8.185   9.938   4.112  0.1465 -0.5630 -0.2555
 4697SOL    HW124560   8.185   9.841   4.137 -0.5139 -0.9120 -1.5690
 4697SOL    HW224561   8.142   9.949   4.023 -0.4849  1.0430  0.2381
 4698SOL     OW24562   4.143   4.572   1.850 -0.4010 -0.2251  0.0308
 4698SOL    HW124563   4.223   4.512   1.857  0.3035  0.8102  1.0975
 4698SOL    HW224564   4.060   4.518   1.861  0.1941 -1.1535  0.0194
 4699SOL     OW24565   1.236   6.878   0.925  0.3038  0.3168  0.2954
 4699SOL    HW124566   1.235   6.936   1.007 -1.9670  0.4584  0.2173
 4699SOL    HW224567   1.169   6.913   0.859  1.2963 -0.4654 -1.1465
 4700SOL     OW24568   3.403   5.135   1.324  0.2734 -0.2464  1.2765
 4700SOL    HW124569   3.453   5.062   1.372 -1.2187 -1.9282  0.3443
 4700SOL    HW224570   3.305   5.112   1.322  0.0001  0.9884 -0.4504
 4701SOL     OW24571   8.497   9.392   2.282 -0.8172 -0.4374 -0.0846
 4701SOL    HW124572   8.549   9.418   2.200 -1.2470  0.5098 -0.0624
 4701SOL    HW224573   8.529   9.303   2.314 -0.1726 -0.5082 -0.8884
 4702SOL     OW24574   1.898   5.949   3.432  0.9363  0.1787  0.0440
 4702SOL    HW124575   1.995   5.975   3.432  0.9128  0.3423 -2.6494
 4702SOL    HW224576   1.846   6.011   3.374 -0.8914  0.3459  1.8059
 4703SOL     OW24577   7.561   9.139   0.638  0.3519  0.7250  0.1010
 4703SOL    HW124578   7.542   9.059   0.695  1.5067 -1.8043 -2.9102
 4703SOL    HW224579   7.478   9.168   0.591  0.4066 -0.1493 -0.5447
 4704SOL     OW24580   8.479   0.211   3.714  0.1603 -0.8826 -0.6990
 4704SOL    HW124581   8.390   0.191   3.673 -0.1878  0.2003 -0.4909
 4704SOL    HW224582   8.465   0.258   3.801  0.9248 -1.5837 -0.1900
 4705SOL     OW24583   3.162   0.912   0.962 -0.0778 -0.2953  0.3742
 4705SOL    HW124584   3.102   0.901   0.882  0.0898 -0.7964  0.3168
 4705SOL    HW224585   3.185   0.822   0.998 -1.5978 -0.0452  2.0609
 4706SOL     OW24586   8.442   7.783   4.335  0.2989  0.1962 -0.2830
 4706SOL    HW124587   8.509   7.831   4.391 -1.1444  0.4361  1.2939
 4706SOL    HW224588   8.407   7.845   4.265 -0.8043  1.1910  1.1011
 4707SOL     OW24589   9.206   9.577   1.767  0.1015  0.4827  0.2588
 4707SOL    HW124590   9.107   9.572   1.769  0.0083  2.0552  1.2164
 4707SOL    HW224591   9.234   9.661   1.720  1.0066 -0.3725 -0.7712
 4708SOL     OW24592   0.280   3.560   3.246 -0.1277  0.1032 -0.3671
 4708SOL    HW124593   0.307   3.583   3.339 -0.4300 -2.7074  0.4542
 4708SOL    HW224594   0.287   3.642   3.188  0.5395  1.7572  1.9807
 4709SOL     OW24595   0.735   6.571   2.189  0.7638  0.0989 -0.1282
 4709SOL    HW124596   0.764   6.569   2.093 -0.3423 -1.0049 -0.4466
 4709SOL    HW224597   0.636   6.563   2.194  0.9089 -1.0910  1.1635
 4710SOL     OW24598   2.759   0.618   4.657 -0.7806  0.3556 -0.2027
 4710SOL    HW124599   2.825   0.693   4.645  0.6801 -0.6447  1.2912
 4710SOL    HW224600   2.667   0.651   4.640 -0.4263  3.1697  2.8763
 4711SOL     OW24601   0.055   2.353   1.713  0.2423 -0.5369  0.1927
 4711SOL    HW124602  -0.031   2.400   1.731  0.3357  0.7345 -2.5006
 4711SOL    HW224603   0.128   2.421   1.700  0.4840 -1.3981 -3.2734
 4712SOL     OW24604   2.074   0.310   4.045 -0.6364  0.3430  0.1447
 4712SOL    HW124605   2.016   0.370   3.991 -0.9628 -0.7875 -0.7750
 4712SOL    HW224606   2.093   0.226   3.994 -0.5039 -0.5113  1.5532
 4713SOL     OW24607   3.864   9.138   4.032  0.3064  0.7563  0.1119
 4713SOL    HW124608   3.818   9.187   3.958  0.3874 -0.1054 -0.5248
 4713SOL    HW224609   3.919   9.202   4.085  0.2023  1.3983 -0.5427
 4714SOL     OW24610   7.813   5.584   1.750  0.1546  0.3955  0.5601
 4714SOL    HW124611   7.757   5.656   1.709  0.0457 -0.9237 -1.7592
 4714SOL    HW224612   7.869   5.542   1.678 -0.1953 -2.1809  1.7557
 4715SOL     OW24613   0.435   3.882   1.248  0.6290 -0.2491 -0.3359
 4715SOL    HW124614   0.347   3.850   1.213  1.6317 -2.7334 -0.6239
 4715SOL    HW224615   0.444   3.855   1.344 -0.1300  2.5256  0.5633
 4716SOL     OW24616   4.149   8.560   4.524  0.2166 -0.3617 -0.3746
 4716SOL    HW124617   4.199   8.491   4.472  2.8879  0.0459  1.5234
 4716SOL    HW224618   4.176   8.652   4.494  3.2862 -0.0838  2.9136
 4717SOL     OW24619   6.965   0.002   2.256  0.0176  0.2577  0.4350
 4717SOL    HW124620   6.889  -0.053   2.223  0.6452 -0.3180 -0.0722
 4717SOL    HW224621   6.987   0.072   2.187  0.7355 -0.3594  0.0332
 4718SOL     OW24622   9.566   7.188   2.923  0.5378 -0.1822  0.3006
 4718SOL    HW124623   9.491   7.130   2.956  0.5466  0.8909  2.3361
 4718SOL    HW224624   9.531   7.281   2.908  0.9394 -0.2543 -1.0773
 4719SOL     OW24625   8.297   0.079   2.796  0.1656  0.1492 -0.7557
 4719SOL    HW124626   8.257  -0.008   2.827 -0.8119  0.1710 -1.9583
 4719SOL    HW224627   8.393   0.082   2.825 -0.1235 -0.7841  0.3767
 4720SOL     OW24628   7.830   8.957   0.166  0.2570  0.4164 -0.4481
 4720SOL    HW124629   7.756   8.993   0.223  0.0151  1.2323 -1.2631
 4720SOL    HW224630   7.844   8.860   0.187 -0.2822  0.5369  0.5132
 4721SOL     OW24631   1.922   9.396   0.798  0.3562 -0.0409 -0.7384
 4721SOL    HW124632   1.911   9.398   0.699 -0.7547 -0.8963 -0.6409
 4721SOL    HW224633   1.840   9.433   0.841  0.3984 -0.6632 -0.1153
 4722SOL     OW24634   1.809   0.982   0.935  0.0444 -0.0367  0.2906
 4722SOL    HW124635   1.907   0.975   0.918 -0.2040  1.7334 -2.0363
 4722SOL    HW224636   1.791   1.055   1.001  0.0975  1.6551 -1.5401
 4723SOL     OW24637   9.191   7.081   1.354 -0.3059  0.0020 -0.2687
 4723SOL    HW124638   9.122   7.016   1.387 -1.0426 -0.4035 -2.5125
 4723SOL    HW224639   9.263   7.032   1.306  0.0406  0.6914 -0.4575
 4724SOL     OW24640   9.363   8.462   3.825 -0.2331  0.1191 -0.0105
 4724SOL    HW124641   9.299   8.537   3.838 -1.6262 -0.8343 -1.2655
 4724SOL    HW224642   9.447   8.481   3.876 -0.1861  2.9757 -1.0632
 4725SOL     OW24643   5.032   2.167   1.170  0.4108 -0.1686  0.4050
 4725SOL    HW124644   4.991   2.185   1.080  0.0526 -0.0731  0.5875
 4725SOL    HW224645   5.006   2.240   1.233  2.9856  1.2925 -0.1684
 4726SOL     OW24646   0.544   1.644   3.884  0.3662 -0.3638  0.3988
 4726SOL    HW124647   0.520   1.639   3.981 -0.7658 -1.2335  0.0833
 4726SOL    HW224648   0.478   1.592   3.831  0.5747  0.7027 -0.9235
 4727SOL     OW24649   1.380   1.010   0.715 -0.2379 -0.5487 -0.3743
 4727SOL    HW124650   1.310   0.967   0.772 -3.0187  2.5136 -1.3120
 4727SOL    HW224651   1.336   1.052   0.635  2.6794  1.5661 -0.9133
 4728SOL     OW24652   1.799   1.026   0.572 -0.6112 -0.3871  0.4228
 4728SOL    HW124653   1.868   1.080   0.619 -1.9099  0.1333  1.8064
 4728SOL    HW224654   1.771   0.950   0.630 -2.2304  0.2508  0.5051
 4729SOL     OW24655   3.702   9.366   2.805 -0.1856  0.0982 -0.7180
 4729SOL    HW124656   3.706   9.361   2.706 -1.6806 -3.2427 -0.7048
 4729SOL    HW224657   3.793   9.352   2.843 -0.0123 -1.2124 -1.5868
 4730SOL     OW24658   4.635   8.274   3.264 -0.1800  0.1773  0.6463
 4730SOL    HW124659   4.677   8.312   3.346  2.6651 -1.0225 -0.1693
 4730SOL    HW224660   4.615   8.177   3.278  1.4012 -0.3339 -0.3978
 4731SOL     OW24661   3.664   2.738   3.743 -0.0730  0.1670  0.0335
 4731SOL    HW124662   3.592   2.669   3.740 -1.0055  1.1895 -1.7736
 4731SOL    HW224663   3.624   2.828   3.759  0.6566  0.9001 -2.0904
 4732SOL     OW24664   0.929   7.055   1.581  0.2654 -0.5723 -0.8534
 4732SOL    HW124665   1.001   7.098   1.527 -0.7633  0.3132 -1.5433
 4732SOL    HW224666   0.866   7.125   1.616  1.3077 -1.0641  2.1191
 4733SOL     OW24667   1.295   8.693   2.890 -0.3220  0.1058 -0.4112
 4733SOL    HW124668   1.350   8.702   2.807 -1.1608  0.3768 -0.9432
 4733SOL    HW224669   1.336   8.747   2.963  2.0525 -2.3824  0.2154
 4734SOL     OW24670   9.146   7.150   4.576  0.2532  0.8728  0.0330
 4734SOL    HW124671   9.174   7.118   4.485 -1.8271 -0.7554 -0.0775
 4734SOL    HW224672   9.227   7.175   4.629  1.6981 -0.9160 -1.2751
 4735SOL     OW24673   0.646   9.561   3.695  0.1150  0.1819 -0.5660
 4735SOL    HW124674   0.730   9.534   3.742 -0.0668 -0.1656 -0.4362
 4735SOL    HW224675   0.574   9.495   3.716 -0.3914  0.8860 -0.0888
 4736SOL     OW24676   5.928   8.511   2.820  0.4517 -0.1218  0.0421
 4736SOL    HW124677   5.925   8.517   2.720 -0.8096  1.6353  0.1660
 4736SOL    HW224678   5.897   8.420   2.849  0.1146 -0.3893 -1.1299
 4737SOL     OW24679   4.315   7.297   2.273  0.3894 -0.5077 -0.5321
 4737SOL    HW124680   4.347   7.223   2.333  0.0018 -1.1463 -1.1213
 4737SOL    HW224681   4.376   7.376   2.284  1.1561 -1.1116 -0.3433
 4738SOL     OW24682   2.479   6.686   2.004  0.3537 -0.4342  0.1638
 4738SOL    HW124683   2.466   6.701   2.102 -0.6279 -1.0321  0.1235
 4738SOL    HW224684   2.553   6.745   1.971 -0.3330  0.8929  0.9594
 4739SOL     OW24685   9.923   5.989   2.961 -0.1303 -0.1358 -0.1104
 4739SOL    HW124686   9.858   5.923   2.922 -0.0354 -1.1259  1.3571
 4739SOL    HW224687   9.920   5.983   3.061  0.3596  1.6438  0.0218
 4740SOL     OW24688   1.155   7.424   4.353 -0.3525  0.0347  0.2498
 4740SOL    HW124689   1.251   7.429   4.383 -0.5408 -1.3788  1.1779
 4740SOL    HW224690   1.152   7.408   4.254  0.3311  2.1066 -0.1133
 4741SOL     OW24691   2.327   1.929   3.858 -0.2301 -0.1183  0.1794
 4741SOL    HW124692   2.358   1.940   3.764  0.8863  2.4489  0.8246
 4741SOL    HW224693   2.400   1.955   3.921 -0.5182 -3.0037  1.8161
 4742SOL     OW24694   2.576   3.248   0.250 -0.5328 -0.4199 -0.1664
 4742SOL    HW124695   2.479   3.259   0.226 -0.2878 -0.0201 -0.9988
 4742SOL    HW224696   2.596   3.301   0.332 -0.8165  0.2549 -0.5256
 4743SOL     OW24697   2.960   9.827   1.212  0.0110  0.3344 -0.2631
 4743SOL    HW124698   3.056   9.801   1.215  0.0157  0.3112 -0.6720
 4743SOL    HW224699   2.939   9.885   1.291 -0.0848 -1.1926  0.8486
 4744SOL     OW24700   3.289   2.008   0.363  0.1929 -0.4485  0.0915
 4744SOL    HW124701   3.208   1.991   0.418 -0.9402  2.4770 -0.5743
 4744SOL    HW224702   3.365   1.952   0.396 -1.3614 -1.1763  2.4930
 4745SOL     OW24703   4.368   8.761   2.205 -0.3723  0.0409  0.5042
 4745SOL    HW124704   4.408   8.803   2.123 -0.7547  0.9262  0.7563
 4745SOL    HW224705   4.401   8.667   2.214  0.2095  0.1595 -0.2887
 4746SOL     OW24706   1.863   3.680   4.274 -0.4221  0.3408  0.9338
 4746SOL    HW124707   1.949   3.710   4.233  0.1541 -0.4179  1.5966
 4746SOL    HW224708   1.878   3.600   4.331 -1.6681 -0.1726  0.5769
 4747SOL     OW24709   4.975   7.226   2.281  0.4915  0.2743  0.4807
 4747SOL    HW124710   5.058   7.180   2.252  2.0889  1.0089  3.6366
 4747SOL    HW224711   4.959   7.306   2.223  0.9699 -0.8656 -1.2612
 4748SOL     OW24712   0.596   4.422   1.160 -0.0553  0.2100  0.4277
 4748SOL    HW124713   0.625   4.458   1.072 -3.9503  1.2819 -0.5136
 4748SOL    HW224714   0.572   4.326   1.151  0.7299 -0.0031  0.6076
 4749SOL     OW24715   8.531   9.544   3.346 -0.2753  0.3037 -0.1900
 4749SOL    HW124716   8.497   9.589   3.428  0.9683 -1.2762  1.2221
 4749SOL    HW224717   8.467   9.560   3.270 -1.6091  1.4707  1.1510
 4750SOL     OW24718   9.657   8.543   3.233 -0.0667  0.1915  0.2425
 4750SOL    HW124719   9.720   8.621   3.240  1.6226 -1.1828  0.5822
 4750SOL    HW224720   9.565   8.574   3.254  0.5887  2.0900  0.4859
 4751SOL     OW24721   0.900   0.365   2.103  0.5911 -0.3867 -0.0031
 4751SOL    HW124722   0.980   0.353   2.044  1.0190 -0.4664  0.5852
 4751SOL    HW224723   0.930   0.399   2.192 -0.0108 -0.6147  0.2848
 4752SOL     OW24724   3.193   4.447   1.822 -0.0920 -0.1434 -0.1828
 4752SOL    HW124725   3.138   4.436   1.905  0.8760 -1.6219  0.2805
 4752SOL    HW224726   3.263   4.517   1.837  0.0073 -0.3269  0.2086
 4753SOL     OW24727   0.515   8.978   3.006  0.2873  0.2590  0.2890
 4753SOL    HW124728   0.450   8.975   3.081  2.3656 -0.7260  2.1114
 4753SOL    HW224729   0.600   8.934   3.034  0.1434 -2.7278 -3.6034
 4754SOL     OW24730   4.566   9.455   3.226  0.0368  0.0907  0.0094
 4754SOL    HW124731   4.468   9.435   3.229 -0.5782  2.8059 -0.5264
 4754SOL    HW224732   4.605   9.443   3.317 -0.9469 -0.2882  0.3869
 4755SOL     OW24733   7.398   9.037   3.704  0.0780  0.3225  0.5586
 4755SOL    HW124734   7.452   9.008   3.782  0.3659 -0.5212  0.0516
 4755SOL    HW224735   7.382   9.136   3.709  2.5798  0.7828  0.1433
 4756SOL     OW24736   4.759   9.461   1.527  0.0564 -1.1905 -0.0159
 4756SOL    HW124737   4.696   9.539   1.529  1.0886 -0.2462 -2.7145
 4756SOL    HW224738   4.819   9.466   1.607 -0.7880 -0.0151  0.5759
 4757SOL     OW24739   0.561   2.239   3.883  0.1266 -0.1444 -0.2050
 4757SOL    HW124740   0.491   2.311   3.882  0.3826  0.1481  1.6535
 4757SOL    HW224741   0.639   2.269   3.829  0.3039  1.0798  0.6949
 4758SOL     OW24742   9.600   8.364   4.001 -0.0657 -0.0202 -0.1457
 4758SOL    HW124743   9.530   8.315   4.051  1.1534  0.2627  1.8774
 4758SOL    HW224744   9.689   8.349   4.044  0.8616  1.0264 -1.6407
 4759SOL     OW24745   4.644   8.274   3.944  0.0975  0.0206  0.5524
 4759SOL    HW124746   4.708   8.351   3.935 -1.1674  0.9674 -0.3460
 4759SOL    HW224747   4.667   8.203   3.877  0.0830  0.4350  0.1153
 4760SOL     OW24748   3.186   4.835   1.544 -0.1441  0.6666 -0.5007
 4760SOL    HW124749   3.176   4.816   1.641  2.7937  2.1977  0.1800
 4760SOL    HW224750   3.158   4.755   1.491 -0.9549 -0.4971  1.6276
 4761SOL     OW24751   7.952   7.534   0.930  0.6727 -0.0753 -0.6897
 4761SOL    HW124752   8.017   7.604   0.959  0.8549 -0.2816 -0.5963
 4761SOL    HW224753   8.001   7.450   0.907  0.1639 -1.6194  3.3939
 4762SOL     OW24754   3.498   9.219   0.984  0.0009  0.4123 -0.2831
 4762SOL    HW124755   3.521   9.266   1.069 -0.6872  3.6480 -1.8096
 4762SOL    HW224756   3.400   9.199   0.983 -0.2263  1.4758 -0.7815
 4763SOL     OW24757   1.577   3.707   4.617 -0.1836  0.1782  0.1763
 4763SOL    HW124758   1.639   3.685   4.693 -1.6086  0.4110  1.4254
 4763SOL    HW224759   1.487   3.728   4.653 -0.7936  0.6275 -1.5821
 4764SOL     OW24760   8.428   8.693   0.330  0.0494  0.1096 -0.0504
 4764SOL    HW124761   8.485   8.715   0.251 -0.6830  1.8531 -0.1085
 4764SOL    HW224762   8.383   8.605   0.316  0.2235  0.2321 -1.4010
 4765SOL     OW24763   2.137   8.076   3.069 -0.0967  0.4593 -0.0075
 4765SOL    HW124764   2.185   8.146   3.123  0.8559  0.1883 -0.4973
 4765SOL    HW224765   2.047   8.059   3.110 -0.0260  1.4121  0.5660
 4766SOL     OW24766   0.648   5.512   2.557  0.4673 -0.2049 -0.4996
 4766SOL    HW124767   0.640   5.435   2.620 -0.6618  1.1880  1.0973
 4766SOL    HW224768   0.717   5.577   2.591  0.7235 -0.0221 -1.3340
 4767SOL     OW24769   6.126   7.856   2.320  0.1104 -0.3793  0.3500
 4767SOL    HW124770   6.084   7.766   2.333 -0.8801  0.0839  0.3480
 4767SOL    HW224771   6.215   7.857   2.366  0.8644 -1.8870 -1.0060
 4768SOL     OW24772   0.759   7.372   0.974 -0.5494  0.0302 -0.1063
 4768SOL    HW124773   0.777   7.330   0.886  0.1438 -2.1893  1.0602
 4768SOL    HW224774   0.844   7.409   1.011 -0.6665  0.1522  0.0429
 4769SOL     OW24775   3.102   0.230   1.670  0.5382 -0.3734 -0.3885
 4769SOL    HW124776   3.174   0.244   1.738  0.0529 -2.0299  0.5097
 4769SOL    HW224777   3.122   0.147   1.618 -0.5903 -0.7270 -0.2781
 4770SOL     OW24778   7.161   7.342   1.554  0.1997  0.2714 -0.4051
 4770SOL    HW124779   7.233   7.278   1.528  1.6357  0.2404  3.3811
 4770SOL    HW224780   7.188   7.435   1.528  0.3497 -0.0486 -1.4198
 4771SOL     OW24781   0.417   6.091   0.724 -0.2548  0.3337 -0.0440
 4771SOL    HW124782   0.493   6.074   0.662 -1.8218 -0.2972 -1.8479
 4771SOL    HW224783   0.344   6.024   0.707 -1.0205  0.6053  1.9886
 4772SOL     OW24784   5.653   7.987   3.213  0.1506  0.1703  0.2834
 4772SOL    HW124785   5.608   7.959   3.128 -1.6989 -3.4619  2.3420
 4772SOL    HW224786   5.744   7.944   3.217 -1.7601 -4.0040  2.3477
 4773SOL     OW24787   9.517   7.543   3.883 -0.1569 -0.5775  0.5166
 4773SOL    HW124788   9.544   7.447   3.883  1.5254 -0.1882 -3.6839
 4773SOL    HW224789   9.422   7.551   3.852 -0.2303 -0.8349  0.6697
 4774SOL     OW24790   0.042   6.565   2.740  0.2967 -0.1266 -0.2778
 4774SOL    HW124791   0.003   6.621   2.813  0.3639  0.5580 -0.7673
 4774SOL    HW224792   0.135   6.537   2.765  0.0200 -0.5834  0.2607
 4775SOL     OW24793   1.313   5.480   2.167 -0.2209  0.1315 -0.3960
 4775SOL    HW124794   1.268   5.569   2.173 -0.0855  0.2618 -1.2519
 4775SOL    HW224795   1.412   5.492   2.166 -0.2175  0.1021 -2.3000
 4776SOL     OW24796   8.088   8.467   3.656 -0.8082 -0.8257 -0.0738
 4776SOL    HW124797   8.164   8.402   3.655  0.1509  0.2152  2.3976
 4776SOL    HW224798   8.084   8.515   3.568 -0.3468 -2.8335 -1.2185
 4777SOL     OW24799   2.217   3.504   0.931  0.1686  0.4762 -0.0414
 4777SOL    HW124800   2.249   3.597   0.912  1.5061  0.0793  0.1629
 4777SOL    HW224801   2.173   3.502   1.021 -0.2841  1.0060 -0.2491
 4778SOL     OW24802   8.684   8.741   0.477 -0.2427 -0.4493 -0.4524
 4778SOL    HW124803   8.624   8.733   0.397 -0.7895 -0.0753 -0.0885
 4778SOL    HW224804   8.639   8.798   0.546  1.0624  0.9006 -0.6769
 4779SOL     OW24805   2.474   5.549   3.381 -0.1549 -0.3008 -0.1875
 4779SOL    HW124806   2.572   5.566   3.390 -0.2936  0.3257  0.1825
 4779SOL    HW224807   2.448   5.469   3.435  0.0497 -0.1211  0.1732
 4780SOL     OW24808   9.153   6.393   0.861 -0.3457 -0.0054  0.2904
 4780SOL    HW124809   9.060   6.402   0.898 -0.2380 -0.1349  0.5954
 4780SOL    HW224810   9.184   6.481   0.826 -0.7479 -0.0594 -0.2072
 4781SOL     OW24811   0.873   6.431   4.199 -0.0417  0.2092  0.1720
 4781SOL    HW124812   0.801   6.385   4.148 -0.0581  1.2314 -0.7360
 4781SOL    HW224813   0.893   6.520   4.157  0.2771  0.8596  1.6545
 4782SOL     OW24814   1.481   6.708   4.100  0.5517 -0.6444  0.4058
 4782SOL    HW124815   1.451   6.660   4.018 -2.8539  1.7190  0.1661
 4782SOL    HW224816   1.488   6.642   4.176  0.0497 -2.2170 -0.8783
 4783SOL     OW24817   1.585   2.203   4.468  0.0979  0.6351 -0.4489
 4783SOL    HW124818   1.671   2.153   4.455  0.0787  0.8151 -1.2748
 4783SOL    HW224819   1.508   2.144   4.444 -0.0106  0.4887  0.2481
 4784SOL     OW24820   3.545   1.064   3.289  0.3184 -0.2869  0.0846
 4784SOL    HW124821   3.457   1.016   3.283 -1.0041  2.3266 -2.8485
 4784SOL    HW224822   3.619   0.997   3.295 -1.6921 -2.6020 -0.1828
 4785SOL     OW24823   1.952   1.170   4.033  0.5480 -0.8252 -0.2431
 4785SOL    HW124824   2.049   1.186   4.049  0.3755 -1.2360  1.2853
 4785SOL    HW224825   1.901   1.254   4.051  0.5629 -0.7358 -0.6070
 4786SOL     OW24826   3.249   6.264   2.130  0.6277 -0.2497 -0.2244
 4786SOL    HW124827   3.332   6.246   2.183  0.3206 -1.8191 -0.2438
 4786SOL    HW224828   3.241   6.195   2.058 -1.5239 -1.0589  0.7666
 4787SOL     OW24829   4.246   0.892   2.406 -0.2167  0.1244 -0.3283
 4787SOL    HW124830   4.240   0.986   2.373 -1.4803  0.7585  1.6070
 4787SOL    HW224831   4.158   0.846   2.391  0.5362 -0.9069 -1.6787
 4788SOL     OW24832   9.098   5.767   2.282 -0.3181  0.1829 -0.1735
 4788SOL    HW124833   9.146   5.694   2.331  0.9209  0.8003 -0.4203
 4788SOL    HW224834   9.105   5.852   2.335  1.3983  0.9568 -1.5774
 4789SOL     OW24835   9.880   4.021   2.833 -0.0176  0.2234 -0.0308
 4789SOL    HW124836   9.816   3.958   2.878 -0.0320  0.2891  0.0396
 4789SOL    HW224837   9.873   4.009   2.733  0.1065 -0.0112 -0.0131
 4790SOL     OW24838   0.330   9.250   3.360  0.8553 -0.1434  0.4345
 4790SOL    HW124839   0.291   9.299   3.438  0.8982  0.2766  0.1963
 4790SOL    HW224840   0.408   9.301   3.324 -0.5465  0.8516 -1.2936
 4791SOL     OW24841   0.660   4.127   3.340  0.5444 -0.5301  0.1863
 4791SOL    HW124842   0.686   4.221   3.318  2.0621 -1.7166 -3.3605
 4791SOL    HW224843   0.721   4.092   3.412 -1.8930  2.0524  3.7079
 4792SOL     OW24844   6.152   1.046   2.975  0.3652  0.1238 -0.4964
 4792SOL    HW124845   6.199   1.134   2.966  1.9556 -0.5855  0.7449
 4792SOL    HW224846   6.080   1.053   3.043 -0.8772  1.0180 -1.8826
 4793SOL     OW24847   1.889   6.312   1.096  0.2695 -0.5258  0.5080
 4793SOL    HW124848   1.860   6.388   1.154  0.3643  0.0567 -0.1963
 4793SOL    HW224849   1.940   6.348   1.017  1.8791 -1.4494  1.1064
 4794SOL     OW24850   8.758   6.675   0.733 -0.1150  0.3666 -0.1473
 4794SOL    HW124851   8.678   6.682   0.673  1.1857 -0.6816 -2.0824
 4794SOL    HW224852   8.786   6.579   0.739  0.8064  0.6889  0.7860
 4795SOL     OW24853   3.376   5.442   2.046 -0.4957 -0.2500 -0.2283
 4795SOL    HW124854   3.338   5.532   2.024  0.5155 -0.1377 -1.6099
 4795SOL    HW224855   3.430   5.448   2.130 -0.3606  0.4560 -0.3613
 4796SOL     OW24856   0.309   5.272   2.449 -0.7497  0.1007 -0.4579
 4796SOL    HW124857   0.375   5.293   2.377 -0.4981 -1.9344 -0.8526
 4796SOL    HW224858   0.236   5.341   2.448  1.0697  2.0817 -0.3382
 4797SOL     OW24859   1.304   3.969   2.298  0.1500  0.0320  0.1039
 4797SOL    HW124860   1.300   3.986   2.200  0.3606 -0.4553  0.0128
 4797SOL    HW224861   1.304   3.870   2.315 -0.3491  0.1153  0.6084
 4798SOL     OW24862   1.512   6.335   3.795  0.2052 -0.0937  0.7223
 4798SOL    HW124863   1.574   6.262   3.766  1.5622  0.4048  2.2787
 4798SOL    HW224864   1.516   6.344   3.894 -1.3926  0.8378  0.7182
 4799SOL     OW24865   7.945   9.142   1.483  0.0474 -0.5742 -0.4429
 4799SOL    HW124866   8.013   9.133   1.556 -0.3908 -2.0288 -0.1916
 4799SOL    HW224867   7.990   9.172   1.399  0.7359  0.0458  0.1386
 4800SOL     OW24868   6.375   7.676   2.161 -0.3210 -0.3830  0.2459
 4800SOL    HW124869   6.380   7.774   2.180 -0.4746 -0.0196 -1.4854
 4800SOL    HW224870   6.467   7.640   2.144  0.0673 -1.1670  3.7430
 4801SOL     OW24871   3.874   9.711   4.713  0.4315  0.0183 -0.3206
 4801SOL    HW124872   3.947   9.748   4.657 -0.0062  0.0645 -0.8616
 4801SOL    HW224873   3.894   9.729   4.810 -0.4551  2.9428 -0.6323
 4802SOL     OW24874   2.512   2.940   2.220 -0.9310 -0.3255  0.0075
 4802SOL    HW124875   2.496   2.953   2.318  1.3200  3.5809 -0.0390
 4802SOL    HW224876   2.431   2.969   2.169 -0.4155  2.0927  0.5321
 4803SOL     OW24877   2.261   8.555   0.074 -0.2948  0.1809  0.2961
 4803SOL    HW124878   2.359   8.536   0.065 -0.6566 -2.4876  1.5208
 4803SOL    HW224879   2.221   8.569  -0.016  0.6773 -1.6294 -0.4389
 4804SOL     OW24880   0.930   6.752   4.210 -0.1405 -0.3089 -0.4489
 4804SOL    HW124881   1.008   6.796   4.165  0.9888 -0.3019  1.4536
 4804SOL    HW224882   0.957   6.722   4.301 -2.5007  0.0600  0.4116
 4805SOL     OW24883   8.429   8.829   1.634  0.5067 -0.0366  0.1922
 4805SOL    HW124884   8.342   8.815   1.682  0.2299  2.4203  0.4796
 4805SOL    HW224885   8.429   8.775   1.550 -1.2850 -0.1336  0.2205
 4806SOL     OW24886   0.766   4.799   2.168  0.4264 -0.1875  0.0668
 4806SOL    HW124887   0.812   4.741   2.100  0.6227  1.8505 -1.5854
 4806SOL    HW224888   0.833   4.856   2.215  0.2120 -1.1317  1.5463
 4807SOL     OW24889   0.770   2.759   3.546  0.2888  0.0534 -0.2982
 4807SOL    HW124890   0.819   2.713   3.620 -0.8604  0.7960  0.9505
 4807SOL    HW224891   0.735   2.691   3.482  0.2833 -0.6908  0.4816
 4808SOL     OW24892   2.422   1.671   1.078 -0.6967  0.3183 -0.1319
 4808SOL    HW124893   2.325   1.671   1.104 -0.5139  2.1593  0.6094
 4808SOL    HW224894   2.441   1.590   1.022 -2.7945  0.2174 -0.7615
 4809SOL     OW24895   0.039   5.729   1.934 -0.5712 -0.2186 -0.8950
 4809SOL    HW124896   0.110   5.757   1.870  0.1235 -0.7246 -0.3475
 4809SOL    HW224897   0.077   5.726   2.027 -1.1853 -0.9573 -0.6655
 4810SOL     OW24898   9.713   7.841   3.546  0.4680  0.0493  0.6198
 4810SOL    HW124899   9.680   7.786   3.469  0.4169 -0.8214  1.2462
 4810SOL    HW224900   9.804   7.875   3.526  0.8456 -0.9712  0.5531
 4811SOL     OW24901   0.354   5.189   1.876 -0.4216  0.4143  0.2772
 4811SOL    HW124902   0.432   5.251   1.866 -0.0604  0.0396  0.7785
 4811SOL    HW224903   0.315   5.171   1.786 -1.5954  2.7214  0.2738
 4812SOL     OW24904   0.190   8.202   2.253 -0.4726  0.2201  0.2456
 4812SOL    HW124905   0.160   8.133   2.319  0.3487  0.3017  0.7110
 4812SOL    HW224906   0.151   8.182   2.164  0.8992 -1.6721  0.0482
 4813SOL     OW24907   2.966   0.277   1.236  0.0881  0.0890 -0.7280
 4813SOL    HW124908   2.884   0.220   1.227  0.1000  0.0831 -0.7988
 4813SOL    HW224909   3.047   0.221   1.220  0.1694 -0.1915  0.5957
 4814SOL     OW24910   0.436   0.790   4.517  0.1636 -0.5324  0.0510
 4814SOL    HW124911   0.526   0.749   4.501  0.3314 -0.1618  0.0460
 4814SOL    HW224912   0.407   0.770   4.610  0.8214  0.4305  0.4712
 4815SOL     OW24913   9.744   5.921   4.503  0.8490  1.0111  0.0397
 4815SOL    HW124914   9.775   5.931   4.597  1.0294  1.5802 -0.0782
 4815SOL    HW224915   9.719   5.825   4.486  0.1724  1.0394  0.8578
 4816SOL     OW24916   8.721   7.805   3.578 -0.0083  0.2002  0.0898
 4816SOL    HW124917   8.730   7.706   3.593 -1.0944  0.1948  0.7036
 4816SOL    HW224918   8.645   7.823   3.515  1.4104  0.5362 -1.5749
 4817SOL     OW24919   4.429   8.596   3.089  0.3712 -0.4843  0.3339
 4817SOL    HW124920   4.437   8.676   3.029  0.4226 -1.1386 -0.5414
 4817SOL    HW224921   4.518   8.578   3.131  0.0284  0.7487  1.6175
 4818SOL     OW24922   1.589   0.682   1.629  0.3192  0.4429 -0.9095
 4818SOL    HW124923   1.656   0.624   1.582 -0.6293  0.9430 -2.9229
 4818SOL    HW224924   1.611   0.778   1.613  0.2627  0.6212  0.0772
 4819SOL     OW24925   2.014   7.724   3.116  0.2086  1.0038 -0.2704
 4819SOL    HW124926   2.010   7.801   3.180  0.9377  1.9833 -1.3816
 4819SOL    HW224927   2.064   7.751   3.034  0.5104 -0.6802 -0.6691
 4820SOL     OW24928   6.693   9.515   3.148  0.0478  1.0761 -0.6927
 4820SOL    HW124929   6.737   9.588   3.096 -0.8931  1.9313 -0.3073
 4820SOL    HW224930   6.723   9.520   3.243  0.5936  0.4644 -0.8328
 4821SOL     OW24931   1.370   7.093   3.100 -0.0791  0.4050 -0.5043
 4821SOL    HW124932   1.396   7.020   3.164 -2.4149 -0.4152 -0.4127
 4821SOL    HW224933   1.314   7.054   3.027 -0.8647  2.0114 -0.7848
 4822SOL     OW24934   3.712   2.143   3.333 -0.3647  0.1931 -0.1174
 4822SOL    HW124935   3.731   2.180   3.424  0.7563 -0.9629  0.1370
 4822SOL    HW224936   3.672   2.052   3.342 -1.0776  0.4456 -0.7650
 4823SOL     OW24937   3.030   4.978   2.701 -0.1402  0.3830 -0.2483
 4823SOL    HW124938   3.021   4.964   2.602 -0.2649 -0.3287 -0.1394
 4823SOL    HW224939   2.985   4.903   2.749 -0.7335  1.1188  0.3553
 4824SOL     OW24940   0.590   8.920   0.153  0.1761 -0.5064  0.3739
 4824SOL    HW124941   0.678   8.879   0.176  0.7029 -0.7998 -2.0266
 4824SOL    HW224942   0.605   9.002   0.098 -1.0615 -0.5569 -0.0516
 4825SOL     OW24943   8.294   8.436   0.725 -0.2247 -0.3615  0.4697
 4825SOL    HW124944   8.254   8.522   0.757 -1.8232 -0.7279 -0.4747
 4825SOL    HW224945   8.223   8.381   0.682  1.1793 -1.3301 -0.6451
 4826SOL     OW24946   2.055   3.821   2.454  0.7122 -0.1451 -0.6026
 4826SOL    HW124947   2.049   3.914   2.419 -0.0261 -0.4609 -1.3307
 4826SOL    HW224948   2.133   3.775   2.413  0.0229 -0.4189 -1.6174
 4827SOL     OW24949   0.705   7.765   4.727 -0.7382  0.3176 -0.2813
 4827SOL    HW124950   0.730   7.813   4.811 -0.9695  1.0525 -0.6327
 4827SOL    HW224951   0.771   7.788   4.654  0.3101 -1.4389  0.0807
 4828SOL     OW24952   4.368   2.543   0.690  0.2445  0.1313  0.3932
 4828SOL    HW124953   4.306   2.525   0.766 -1.8933  1.0219 -1.1031
 4828SOL    HW224954   4.336   2.623   0.640  3.5837  1.6684  0.5951
 4829SOL     OW24955   9.835   6.427   3.841 -0.1672 -0.3033 -0.0724
 4829SOL    HW124956   9.754   6.417   3.783 -1.0770 -0.2166  1.1846
 4829SOL    HW224957   9.823   6.375   3.925  1.3413 -0.7909 -0.1287
 4830SOL     OW24958   1.004   6.118   1.911 -0.2238  0.4609  0.0429
 4830SOL    HW124959   1.065   6.164   1.846  0.8060  1.5888  1.7798
 4830SOL    HW224960   0.920   6.090   1.863  1.2664 -0.3560 -2.1760
 4831SOL     OW24961   1.953   9.411   0.511  0.0783 -0.1331 -0.1255
 4831SOL    HW124962   1.941   9.474   0.434 -2.3487 -1.2414 -0.7010
 4831SOL    HW224963   1.954   9.317   0.478  1.2269 -0.5337  0.9881
 4832SOL     OW24964   9.977   7.473   1.261 -0.0844 -0.2062 -0.3131
 4832SOL    HW124965  10.074   7.486   1.284 -0.1676  0.0368 -0.0954
 4832SOL    HW224966   9.965   7.384   1.218  0.1385 -0.5027  0.2350
 4833SOL     OW24967   2.452   8.454   4.036 -0.3378 -0.1075 -0.1412
 4833SOL    HW124968   2.360   8.423   4.008 -1.5815  3.3918 -0.1041
 4833SOL    HW224969   2.516   8.437   3.961 -1.9352  1.4530 -1.8991
 4834SOL     OW24970   3.522   8.851   4.539 -0.2836  0.4743  0.7070
 4834SOL    HW124971   3.503   8.878   4.445 -0.0437  1.4317  0.9288
 4834SOL    HW224972   3.460   8.899   4.601 -0.9723 -0.7535  0.9800
 4835SOL     OW24973   8.796   8.910   2.743  0.2283  0.1139 -0.4356
 4835SOL    HW124974   8.837   8.965   2.816  1.2411 -0.7919 -0.3049
 4835SOL    HW224975   8.868   8.864   2.692 -0.6073 -0.9950 -0.6280
 4836SOL     OW24976   1.195   8.171   4.045  0.2864  0.4949  0.3680
 4836SOL    HW124977   1.234   8.079   4.048 -2.2474 -0.7570 -2.7022
 4836SOL    HW224978   1.254   8.229   3.988 -0.4916 -0.4877 -1.4850
 4837SOL     OW24979   5.947   9.586   2.173 -1.1325 -0.1128  0.5503
 4837SOL    HW124980   6.046   9.573   2.180 -0.9241  1.7773  1.3277
 4837SOL    HW224981   5.903   9.497   2.165  0.6009 -1.0047  0.6027
 4838SOL     OW24982   0.512   6.857   0.554  0.6016 -0.1432 -0.2714
 4838SOL    HW124983   0.505   6.917   0.475 -0.5992  1.0952  0.7451
 4838SOL    HW224984   0.452   6.777   0.542  1.5408 -0.7171 -1.2373
 4839SOL     OW24985   1.187   7.623   1.803 -0.0156 -0.6003  0.9338
 4839SOL    HW124986   1.106   7.681   1.808 -0.0742 -0.6658  0.7728
 4839SOL    HW224987   1.163   7.537   1.758 -0.2833 -1.3586  2.4783
 4840SOL     OW24988   2.813   2.212   1.001  0.2047 -0.4832  0.9383
 4840SOL    HW124989   2.748   2.173   0.937  2.1837 -2.1915 -0.0996
 4840SOL    HW224990   2.778   2.204   1.094 -2.3826  1.3939  0.1699
 4841SOL     OW24991   8.779   7.113   1.258 -0.1610  0.7098  0.1737
 4841SOL    HW124992   8.841   7.082   1.329 -0.5031  0.5544  0.4078
 4841SOL    HW224993   8.807   7.204   1.226  0.3952  0.4871  0.0202
 4842SOL     OW24994   1.782   8.547   0.913  0.6773  0.2184  0.1952
 4842SOL    HW124995   1.722   8.479   0.956  0.1142  1.6449  1.7105
 4842SOL    HW224996   1.788   8.528   0.815 -3.0837  0.6447 -0.2027
 4843SOL     OW24997   9.183   6.837   3.071 -0.1191  0.0428  0.2255
 4843SOL    HW124998   9.145   6.784   3.147  0.9471 -0.4391  0.4395
 4843SOL    HW224999   9.131   6.818   2.988  0.0488 -1.1074  0.3707
 4844SOL     OW25000   6.638   6.845   3.074  0.2589 -0.4577 -0.1118
 4844SOL    HW125001   6.642   6.876   2.979 -2.2045  0.9580  0.2241
 4844SOL    HW225002   6.724   6.869   3.120  1.0957 -0.3091 -1.7113
 4845SOL     OW25003   3.260   5.304   1.835  0.6339  0.5235 -0.0899
 4845SOL    HW125004   3.175   5.345   1.804  0.0305 -1.7002 -1.4750
 4845SOL    HW225005   3.304   5.365   1.902  0.0473  3.6316 -2.3949
 4846SOL     OW25006   6.541   9.537   0.829  0.2650  0.4438  0.0591
 4846SOL    HW125007   6.572   9.616   0.883  0.8814 -0.0271  0.3984
 4846SOL    HW225008   6.465   9.493   0.875  0.0409  0.7301 -0.0363
 4847SOL     OW25009   5.254   0.428   3.268 -0.0971 -0.4119 -0.1741
 4847SOL    HW125010   5.228   0.471   3.355 -0.1700 -1.6205  0.4129
 4847SOL    HW225011   5.335   0.474   3.232 -0.3691  0.4380  0.2706
 4848SOL     OW25012   7.521   8.058   3.414 -0.3096  0.9119 -0.1767
 4848SOL    HW125013   7.524   7.959   3.429 -1.2096  0.7233 -1.1478
 4848SOL    HW225014   7.510   8.076   3.316  1.5457  2.0152 -0.1958
 4849SOL     OW25015   8.029   0.119   3.412  0.7237 -0.8138  0.4586
 4849SOL    HW125016   8.015   0.035   3.464 -3.6101 -0.0558  0.7771
 4849SOL    HW225017   8.023   0.098   3.314 -1.0098 -0.8581  0.5469
 4850SOL     OW25018   4.418   7.491   2.965  0.3538  0.8880  0.3620
 4850SOL    HW125019   4.382   7.421   3.026  2.7322  0.5642  1.4869
 4850SOL    HW225020   4.355   7.569   2.962 -1.2884 -0.4060  0.7594
 4851SOL     OW25021   2.450   3.490   4.471 -0.0200  0.1236 -0.6191
 4851SOL    HW125022   2.491   3.483   4.380 -0.5397 -0.0572 -0.8417
 4851SOL    HW225023   2.451   3.586   4.500 -2.0843  0.5657 -1.8724
 4852SOL     OW25024   2.274   7.207   0.710  0.2558  0.2447 -0.1431
 4852SOL    HW125025   2.245   7.162   0.625  0.1005  0.2419 -0.0886
 4852SOL    HW225026   2.314   7.139   0.772  1.9344  0.5148 -0.8869
 4853SOL     OW25027   4.277   8.837   2.971 -0.1788  0.1026 -0.5999
 4853SOL    HW125028   4.207   8.802   3.033 -1.0612  1.0013 -1.0722
 4853SOL    HW225029   4.332   8.907   3.018  2.1963 -2.5096  0.6486
 4854SOL     OW25030   2.906   4.332   0.755  0.4317  0.2903  0.3880
 4854SOL    HW125031   2.978   4.355   0.822  0.9251  0.8996 -0.3415
 4854SOL    HW225032   2.861   4.248   0.783  2.2473 -0.7630  0.2283
 4855SOL     OW25033   8.114   9.785   3.749  0.1341  0.1571 -0.6655
 4855SOL    HW125034   8.146   9.744   3.663  0.6891  0.0432 -0.4040
 4855SOL    HW225035   8.086   9.713   3.812  0.8338  0.1887 -0.3158
 4856SOL     OW25036   1.572   9.340   2.392  0.6380 -0.1646 -0.1116
 4856SOL    HW125037   1.649   9.402   2.378  1.3379 -0.7099  1.2353
 4856SOL    HW225038   1.546   9.300   2.304  1.4698  0.5125 -0.6833
 4857SOL     OW25039   0.642   5.896   1.505  0.0250  0.3398 -0.6339
 4857SOL    HW125040   0.632   5.853   1.415  1.3588 -0.3030 -0.4799
 4857SOL    HW225041   0.587   5.847   1.572 -0.3847  0.3700 -0.9443
 4858SOL     OW25042   8.404   8.730   2.866  0.3156  0.3984 -0.5308
 4858SOL    HW125043   8.388   8.643   2.913 -0.0143  0.0953 -1.1933
 4858SOL    HW225044   8.482   8.721   2.805  1.1208  0.9706  0.4063
 4859SOL     OW25045   0.965   8.894   1.807 -0.1886 -0.3614 -0.6189
 4859SOL    HW125046   1.021   8.822   1.764 -1.2099 -0.5951 -1.6068
 4859SOL    HW225047   0.871   8.860   1.817 -0.4375  0.4730 -0.1368
 4860SOL     OW25048   2.063   3.090   2.823  0.4646  0.3697  0.1005
 4860SOL    HW125049   2.085   3.138   2.739 -5.1335  1.9179 -0.6439
 4860SOL    HW225050   2.080   3.151   2.901  1.0637  0.6375 -0.2305
 4861SOL     OW25051   0.177   4.113   3.246  0.0236  0.3510  0.1113
 4861SOL    HW125052   0.258   4.054   3.256  0.3153  1.1333  2.6180
 4861SOL    HW225053   0.162   4.163   3.331 -2.5549  0.9449 -0.6663
 4862SOL     OW25054   6.143   0.262   2.330  0.3900 -0.1350  0.1662
 4862SOL    HW125055   6.049   0.231   2.348 -0.0855  0.0883 -1.7517
 4862SOL    HW225056   6.167   0.336   2.392 -0.1842 -1.1754  1.6384
 4863SOL     OW25057   5.236   9.178   3.297 -0.2089 -0.3807  0.1885
 4863SOL    HW125058   5.137   9.163   3.289 -0.2028 -0.2645 -0.1483
 4863SOL    HW225059   5.264   9.165   3.391 -0.3860 -1.3743  0.1139
 4864SOL     OW25060   0.519   6.856   0.830  0.2365 -0.1925  0.1271
 4864SOL    HW125061   0.504   6.851   0.731  1.7340 -0.0401 -0.1108
 4864SOL    HW225062   0.454   6.921   0.869 -0.7650 -0.6977 -0.6662
 4865SOL     OW25063   0.218   4.309   3.429 -0.5669 -0.1751 -0.0427
 4865SOL    HW125064   0.235   4.343   3.336  0.8596 -1.0165 -0.1058
 4865SOL    HW225065   0.183   4.384   3.486 -0.2735  0.6573 -0.9360
 4866SOL     OW25066   3.656   2.103   1.077  0.4628  0.5120 -0.1041
 4866SOL    HW125067   3.649   2.197   1.043  0.1954  1.2751  2.0110
 4866SOL    HW225068   3.744   2.090   1.121 -0.0542  0.2152  0.8606
 4867SOL     OW25069   0.371   6.571   2.711  0.3232  0.5390 -0.0643
 4867SOL    HW125070   0.378   6.532   2.803 -1.8342  0.9051  0.2780
 4867SOL    HW225071   0.451   6.543   2.657  0.7105 -1.1853  1.3465
 4868SOL     OW25072   4.199   7.659   0.191 -0.6109 -0.2844 -1.6983
 4868SOL    HW125073   4.140   7.739   0.178  0.6860  0.9802 -0.0478
 4868SOL    HW225074   4.265   7.655   0.117  1.0196  1.7474 -0.4306
 4869SOL     OW25075   3.209   7.404   4.547 -0.0831 -0.0125  0.3683
 4869SOL    HW125076   3.119   7.366   4.530 -1.3299  2.7573  0.4293
 4869SOL    HW225077   3.252   7.430   4.461  0.7892 -1.5248  0.3210
 4870SOL     OW25078   9.936   1.048   3.443 -0.0340  0.3672  0.3993
 4870SOL    HW125079  10.025   1.082   3.411  0.3540 -2.7258 -2.0378
 4870SOL    HW225080   9.950   0.990   3.523  0.1816 -0.3215 -0.1341
 4871SOL     OW25081   2.007   8.060   3.680 -0.8134 -0.3806 -0.6125
 4871SOL    HW125082   2.022   8.047   3.778  0.2638  0.0042 -0.7111
 4871SOL    HW225083   1.929   8.121   3.666 -0.7773 -0.1884  0.0086
 4872SOL     OW25084   8.799   8.223   4.185  0.1393 -0.4832 -0.0649
 4872SOL    HW125085   8.747   8.149   4.227  0.7280 -1.2634 -0.6823
 4872SOL    HW225086   8.738   8.281   4.132 -0.2921 -0.6659  0.2311
 4873SOL     OW25087   3.682   8.094   0.321 -0.4477  0.6874 -0.0131
 4873SOL    HW125088   3.682   8.122   0.417  0.2589 -0.6049  0.3863
 4873SOL    HW225089   3.777   8.088   0.289 -0.5550 -1.3627 -0.0232
 4874SOL     OW25090   7.013   8.269   2.510 -0.3647 -0.3333 -0.4752
 4874SOL    HW125091   7.013   8.369   2.508  1.4005 -0.2764  1.0458
 4874SOL    HW225092   6.924   8.237   2.545 -0.7616  0.7222 -0.4965
 4875SOL     OW25093   0.501   3.501   2.907 -0.3987 -0.0423 -0.1965
 4875SOL    HW125094   0.417   3.447   2.914 -0.6861  0.5231  0.6461
 4875SOL    HW225095   0.557   3.488   2.989 -0.5683  1.1219  0.1014
 4876SOL     OW25096   2.291   5.648   1.171  0.4113  0.2152  0.2957
 4876SOL    HW125097   2.284   5.577   1.242 -2.8656  0.1197 -0.0476
 4876SOL    HW225098   2.265   5.736   1.210  0.9102  0.5833 -0.2064
 4877SOL     OW25099   6.070   8.224   3.706 -0.7631 -0.0597  0.0160
 4877SOL    HW125100   6.154   8.228   3.760 -0.8959 -0.3519  0.2478
 4877SOL    HW225101   6.007   8.296   3.736 -0.3834  0.4820 -0.5098
 4878SOL     OW25102   1.946   5.896   0.997 -0.0946  0.1720  0.3462
 4878SOL    HW125103   1.920   5.805   0.965  1.7272 -0.1953 -0.1077
 4878SOL    HW225104   1.864   5.943   1.031 -0.7972 -2.2359  2.1578
 4879SOL     OW25105   1.021   2.184   4.091  0.4995 -0.2877 -0.3397
 4879SOL    HW125106   1.072   2.268   4.071 -0.6852  0.4538 -0.2722
 4879SOL    HW225107   0.969   2.156   4.011  0.2604 -0.5116 -0.1078
 4880SOL     OW25108   2.776   2.660   3.453 -0.1521  0.3379  0.3708
 4880SOL    HW125109   2.786   2.644   3.551 -2.1099  0.4313  0.6177
 4880SOL    HW225110   2.747   2.754   3.437  2.1485  0.9448 -0.4622
 4881SOL     OW25111   4.441   4.767   1.901 -0.3226 -0.6698  0.1240
 4881SOL    HW125112   4.524   4.732   1.857  0.2179  0.0150  0.5999
 4881SOL    HW225113   4.399   4.836   1.843  0.1482 -0.0847  0.4811
 4882SOL     OW25114   1.810   9.496   2.892 -0.6089 -0.3755 -0.4160
 4882SOL    HW125115   1.774   9.505   2.799  0.4297  0.4612 -0.7543
 4882SOL    HW225116   1.830   9.587   2.929 -0.5171 -0.7324  0.4295
 4883SOL     OW25117   1.946   9.376   4.652  0.2486  0.3620 -0.1431
 4883SOL    HW125118   2.039   9.377   4.689  0.5259  0.6464 -0.8328
 4883SOL    HW225119   1.918   9.470   4.633 -1.6640  0.6747  3.7022
 4884SOL     OW25120   3.296   3.509   0.921 -0.5894 -0.0091  0.6341
 4884SOL    HW125121   3.276   3.431   0.862  0.1883  0.8179 -0.7406
 4884SOL    HW225122   3.333   3.476   1.008  0.1645 -1.1483 -0.1037
 4885SOL     OW25123   0.954   3.516   0.571 -0.2505  0.5300  0.0657
 4885SOL    HW125124   1.010   3.442   0.607 -1.6531 -0.9027 -0.6223
 4885SOL    HW225125   0.889   3.546   0.641 -0.8667 -0.0980 -0.2383
 4886SOL     OW25126   4.873   9.315   2.609 -0.1909  0.3932 -0.1938
 4886SOL    HW125127   4.803   9.348   2.546 -0.1239 -1.3680 -1.2474
 4886SOL    HW225128   4.924   9.392   2.646 -2.9239  1.7289  0.9042
 4887SOL     OW25129   4.135   5.394   1.566  0.0180  0.7045  0.3145
 4887SOL    HW125130   4.182   5.416   1.481  1.2584  2.8738  1.5295
 4887SOL    HW225131   4.038   5.419   1.558 -0.1060 -0.1117 -0.8173
 4888SOL     OW25132   9.032   9.240   1.644 -0.2551  0.0419  0.3249
 4888SOL    HW125133   8.935   9.224   1.625 -0.9027  3.6486  0.2399
 4888SOL    HW225134   9.080   9.258   1.558  0.0056  0.5377  0.5686
 4889SOL     OW25135   0.840   2.035   2.046 -0.0494  0.0226 -0.4516
 4889SOL    HW125136   0.814   2.025   2.142  0.4615 -0.2992 -0.3426
 4889SOL    HW225137   0.927   1.987   2.030 -0.2533 -0.1241 -1.1252
 4890SOL     OW25138   9.288   0.133   3.232  0.4177  0.4560  0.1527
 4890SOL    HW125139   9.193   0.115   3.258  0.6927  1.6526  2.1295
 4890SOL    HW225140   9.348   0.065   3.275  0.6978  1.3116  1.1367
 4891SOL     OW25141   3.696   0.044   1.300 -0.3600 -0.2133 -0.7264
 4891SOL    HW125142   3.670   0.140   1.313  0.3207 -0.4245  2.4596
 4891SOL    HW225143   3.628  -0.015   1.342 -0.6905 -1.1645 -2.5446
 4892SOL     OW25144   4.662   8.481   4.590 -0.0200  0.3065 -0.2412
 4892SOL    HW125145   4.643   8.538   4.670  0.5201  0.3616 -0.1535
 4892SOL    HW225146   4.699   8.537   4.516  0.8192  0.0074 -0.0424
 4893SOL     OW25147   2.101   6.701   2.041 -0.0084  0.3037 -0.2646
 4893SOL    HW125148   2.186   6.661   2.076 -0.5735  0.1709  1.0102
 4893SOL    HW225149   2.035   6.707   2.116 -1.9589 -1.8765 -1.7442
 4894SOL     OW25150   7.293   0.534   1.595 -0.4603 -0.0170 -0.0701
 4894SOL    HW125151   7.217   0.563   1.653 -0.7570 -1.2229  0.1700
 4894SOL    HW225152   7.256   0.486   1.515  0.0935 -2.6512  1.1942
 4895SOL     OW25153   9.387   7.744   1.680  0.5423 -0.5587 -0.1616
 4895SOL    HW125154   9.428   7.655   1.702 -0.0189 -0.3866  1.6661
 4895SOL    HW225155   9.457   7.805   1.643  1.2375 -1.3202 -0.1151
 4896SOL     OW25156   3.843   3.547   4.096  0.3268  0.0245  0.5334
 4896SOL    HW125157   3.914   3.492   4.139  1.7886  1.6456  0.2553
 4896SOL    HW225158   3.883   3.632   4.061 -1.1993 -0.2811 -2.1241
 4897SOL     OW25159   2.700   8.390   4.244  0.1193 -0.4942 -0.4761
 4897SOL    HW125160   2.712   8.484   4.211 -2.2295  0.7059  1.8546
 4897SOL    HW225161   2.644   8.339   4.178 -0.5991  0.4763 -0.6395
 4898SOL     OW25162   7.347   6.648   2.436 -0.2900 -0.1380  0.6894
 4898SOL    HW125163   7.403   6.728   2.416  1.3395 -1.2180  0.8537
 4898SOL    HW225164   7.403   6.577   2.480 -1.4115 -1.8105 -0.4943
 4899SOL     OW25165   3.988   2.856   3.657  0.0129 -0.2036 -0.3288
 4899SOL    HW125166   4.073   2.899   3.688  0.0385 -0.6699  0.2378
 4899SOL    HW225167   3.957   2.789   3.724 -0.6285 -0.2758 -0.6891
 4900SOL     OW25168   9.133   0.076   4.546 -0.5072  0.0275 -0.3937
 4900SOL    HW125169   9.034   0.084   4.555 -0.2989  2.0510  0.2455
 4900SOL    HW225170   9.163  -0.012   4.585 -1.7154  0.7275  2.2411
 4901SOL     OW25171   2.039   6.915   0.951  0.3970  0.2602  0.0564
 4901SOL    HW125172   2.002   6.966   1.029 -0.7205  0.3703 -0.5367
 4901SOL    HW225173   2.016   6.819   0.961 -0.4601  0.4003 -0.5508
 4902SOL     OW25174   0.857   8.329   2.913 -0.7478  0.2030  0.0063
 4902SOL    HW125175   0.916   8.405   2.938 -3.0422  2.0848 -0.0930
 4902SOL    HW225176   0.859   8.317   2.814 -0.9604  0.6372 -0.0521
 4903SOL     OW25177   0.977   1.952   0.077 -0.3878  0.4180  0.8599
 4903SOL    HW125178   0.945   1.862   0.049  0.5333  0.0786  0.8623
 4903SOL    HW225179   1.060   1.975   0.025 -2.1698  2.4666 -1.1662
 4904SOL     OW25180   0.542   9.448   4.319  0.3022  0.0462 -0.3581
 4904SOL    HW125181   0.483   9.390   4.375  1.5818  0.1721  1.1273
 4904SOL    HW225182   0.564   9.532   4.368  1.2170  0.2835 -1.1501
 4905SOL     OW25183   3.213   1.000   4.676  0.8237 -0.0050 -0.1591
 4905SOL    HW125184   3.289   0.967   4.620  0.9182  0.7044 -0.4605
 4905SOL    HW225185   3.202   0.941   4.756  0.3208 -1.3593 -1.2119
 4906SOL     OW25186   1.189   8.151   1.466 -0.3529  0.2296  0.5709
 4906SOL    HW125187   1.280   8.169   1.430 -1.6228 -1.8447 -3.9964
 4906SOL    HW225188   1.128   8.226   1.441 -0.6173  0.1443  0.9520
 4907SOL     OW25189   9.396   6.554   3.399 -0.0885 -0.1026  0.1899
 4907SOL    HW125190   9.491   6.570   3.373 -0.2993 -1.2218 -1.3768
 4907SOL    HW225191   9.358   6.637   3.441  1.5058  0.4094  0.6482
 4908SOL     OW25192   0.673   5.217   0.968  0.1963  0.3145 -0.6595
 4908SOL    HW125193   0.748   5.155   0.946  0.0918  0.4516 -1.4031
 4908SOL    HW225194   0.587   5.179   0.933 -0.6092 -1.4462  2.9369
 4909SOL     OW25195   7.099   7.844   2.833  0.2057 -0.2611 -0.3117
 4909SOL    HW125196   7.019   7.902   2.847 -0.4267 -1.4319  1.0724
 4909SOL    HW225197   7.096   7.767   2.897  1.8341 -0.9619 -1.0470
 4910SOL     OW25198   5.330   7.071   2.937  0.0109 -0.2450  0.3183
 4910SOL    HW125199   5.352   6.978   2.967  0.5418 -0.0109  0.6771
 4910SOL    HW225200   5.399   7.134   2.972 -0.9210  0.4359  0.9433
 4911SOL     OW25201   1.434   4.704   3.725  0.0519  0.0015 -0.4612
 4911SOL    HW125202   1.365   4.733   3.659 -2.6440 -0.5061  2.0710
 4911SOL    HW225203   1.422   4.755   3.811  2.7517 -0.1998  0.0706
 4912SOL     OW25204   2.749   5.346   3.552  0.7917  0.0526  0.0208
 4912SOL    HW125205   2.739   5.380   3.646 -2.0457 -0.9472  0.1219
 4912SOL    HW225206   2.819   5.274   3.550  1.0199  0.2300  1.3265
 4913SOL     OW25207   2.416   0.712   0.722  0.1246 -0.4269  0.8516
 4913SOL    HW125208   2.492   0.757   0.676 -0.7648  2.8668  2.4818
 4913SOL    HW225209   2.359   0.665   0.655  1.1470  0.7767 -0.8845
 4914SOL     OW25210   4.063   9.405   1.909  0.1008  0.4369 -0.4275
 4914SOL    HW125211   4.135   9.474   1.921  1.3929 -0.8300 -0.7268
 4914SOL    HW225212   4.091   9.321   1.955  1.6276 -2.0591 -5.5725
 4915SOL     OW25213   0.314   0.299   3.593  0.1762 -0.3049 -0.3108
 4915SOL    HW125214   0.233   0.342   3.553 -0.4768 -1.7617 -0.5839
 4915SOL    HW225215   0.356   0.238   3.525  2.2639  1.4168 -0.6206
 4916SOL     OW25216   0.862   1.221   1.638  0.0392  0.0548 -0.3277
 4916SOL    HW125217   0.936   1.285   1.617 -0.2795 -0.0482 -1.8204
 4916SOL    HW225218   0.896   1.127   1.633  0.2393  0.0512  0.8027
 4917SOL     OW25219   9.177   4.980   2.666 -0.0769  0.2920 -0.0093
 4917SOL    HW125220   9.174   4.966   2.567 -2.7386 -0.2481  0.1272
 4917SOL    HW225221   9.236   4.911   2.707  1.1019  0.5507 -1.1854
 4918SOL     OW25222   7.036   0.715   3.481 -0.3017  0.0425  0.1798
 4918SOL    HW125223   6.991   0.733   3.393  1.2762 -0.8615 -0.8307
 4918SOL    HW225224   7.004   0.782   3.548 -1.3274  0.9235 -1.1388
 4919SOL     OW25225   0.074   4.534   3.578  0.2438 -0.8490  0.3283
 4919SOL    HW125226   0.113   4.625   3.563 -0.7094 -0.4668  0.1767
 4919SOL    HW225227  -0.025   4.537   3.566  0.1201 -1.7552  1.0510
 4920SOL     OW25228   8.355   5.876   1.568 -0.0616 -0.1924 -0.3202
 4920SOL    HW125229   8.260   5.881   1.601 -0.2370 -1.5732 -0.5803
 4920SOL    HW225230   8.358   5.820   1.485  1.2047 -1.4149  0.5436
 4921SOL     OW25231   1.136   2.675   1.720 -0.0229 -0.0446 -0.2733
 4921SOL    HW125232   1.198   2.722   1.658  0.4332 -0.7019 -0.3169
 4921SOL    HW225233   1.147   2.712   1.813  0.1582  0.1067 -0.3563
 4922SOL     OW25234   3.608   0.692   2.769  0.7237  0.0363  0.4479
 4922SOL    HW125235   3.528   0.653   2.725  0.4180 -1.3638  2.1989
 4922SOL    HW225236   3.685   0.690   2.706  0.0052 -0.8230 -0.4184
 4923SOL     OW25237   2.678   4.993   3.919 -0.0029 -0.6880  0.4766
 4923SOL    HW125238   2.631   5.068   3.874 -0.5324 -2.2573 -1.6602
 4923SOL    HW225239   2.642   4.983   4.012  0.1802  1.7478  0.8441
 4924SOL     OW25240   1.032   5.485   4.191  0.3841  0.2562 -0.5491
 4924SOL    HW125241   0.965   5.451   4.257  1.3528 -1.0542 -0.2212
 4924SOL    HW225242   0.985   5.526   4.113 -0.7775  0.4003  0.2220
 4925SOL     OW25243   1.295   4.332   2.733  0.1432  0.3685 -0.5119
 4925SOL    HW125244   1.271   4.415   2.683 -1.2521 -0.4303 -1.2122
 4925SOL    HW225245   1.297   4.352   2.831 -1.0564  1.0287 -0.6076
 4926SOL     OW25246   7.953   9.862   0.411 -0.2399 -1.1910 -0.2992
 4926SOL    HW125247   8.016   9.917   0.466  0.9985 -2.6636 -0.2103
 4926SOL    HW225248   7.925   9.782   0.464 -2.7637 -0.1824 -0.0721
 4927SOL     OW25249   3.892   7.604   4.384 -0.0099 -0.2319 -0.4278
 4927SOL    HW125250   3.826   7.529   4.391  0.1046 -0.1469  2.2513
 4927SOL    HW225251   3.859   7.672   4.319 -2.2679 -0.4853  0.4159
 4928SOL     OW25252   1.787   4.543   3.201  0.0696 -0.0752 -0.3442
 4928SOL    HW125253   1.854   4.469   3.204 -0.9958 -1.1953 -2.5057
 4928SOL    HW225254   1.712   4.523   3.263  0.5343 -0.0454  0.2295
 4929SOL     OW25255   7.863   6.777   1.736  0.1136  0.5674  0.3279
 4929SOL    HW125256   7.851   6.692   1.685 -0.1820  0.5346  0.4527
 4929SOL    HW225257   7.863   6.757   1.834  0.5439  0.6484  0.3445
 4930SOL     OW25258   3.324   7.660   0.123  0.2199  0.1483 -0.1837
 4930SOL    HW125259   3.248   7.605   0.089  2.1109 -1.6099 -1.6774
 4930SOL    HW225260   3.397   7.600   0.155  0.9268  1.8048  1.4395
 4931SOL     OW25261   0.209   8.708   0.531  0.0029  0.0448  0.5749
 4931SOL    HW125262   0.129   8.679   0.583 -0.1421  0.7098  0.7325
 4931SOL    HW225263   0.203   8.672   0.438 -0.9459  0.8563  0.3105
 4932SOL     OW25264   2.224   8.273   3.300  0.2307 -0.0776  0.4178
 4932SOL    HW125265   2.207   8.230   3.389 -0.4161 -0.1139  0.2842
 4932SOL    HW225266   2.153   8.342   3.284  0.4154  0.0081 -0.0180
 4933SOL     OW25267   1.132   5.699   2.148  0.6966 -0.1143  0.0454
 4933SOL    HW125268   1.188   5.758   2.206 -1.9808  1.1151  1.4433
 4933SOL    HW225269   1.071   5.754   2.091  1.3211 -1.4071 -1.9430
 4934SOL     OW25270   2.890   6.914   1.986  0.1184 -0.0438 -0.5714
 4934SOL    HW125271   2.976   6.867   1.965 -0.3944 -0.1891 -2.4860
 4934SOL    HW225272   2.905   7.013   1.987  0.5225 -0.1064  0.2063
 4935SOL     OW25273   2.458   7.010   1.102  0.7784 -0.0443 -0.1104
 4935SOL    HW125274   2.487   7.096   1.059  0.4224 -0.7660 -1.8475
 4935SOL    HW225275   2.538   6.962   1.137  1.0453  0.7055  0.3234
 4936SOL     OW25276   1.616   4.475   1.800 -0.1327 -0.0742  0.9988
 4936SOL    HW125277   1.578   4.431   1.718  0.9912  0.8928 -0.0532
 4936SOL    HW225278   1.544   4.526   1.846 -0.8642 -0.9457  0.8448
 4937SOL     OW25279   2.651   6.809   1.636  0.0944 -0.6531 -0.2562
 4937SOL    HW125280   2.657   6.838   1.731 -1.6904 -0.6335 -0.1354
 4937SOL    HW225281   2.655   6.888   1.576 -0.0970 -0.5529 -0.1363
 4938SOL     OW25282   1.044   5.161   3.034  0.0307 -0.3797 -0.5359
 4938SOL    HW125283   0.972   5.185   2.969 -0.2894  4.3334  1.3682
 4938SOL    HW225284   1.003   5.137   3.122  0.7245 -0.5005 -0.2454
 4939SOL     OW25285   9.594   6.371   2.650 -0.5666 -0.4209 -0.1464
 4939SOL    HW125286   9.616   6.281   2.688 -0.1099 -0.8507 -1.4009
 4939SOL    HW225287   9.674   6.408   2.604  0.6632  2.6225  4.0915
 4940SOL     OW25288   3.210   3.952   1.312  0.5718  0.4525  0.7626
 4940SOL    HW125289   3.172   3.923   1.224  0.1782 -2.1589  1.7615
 4940SOL    HW225290   3.155   4.028   1.348 -0.1544  0.5594 -0.5375
 4941SOL     OW25291   4.516   4.358   0.122  0.1818 -0.0967  0.2023
 4941SOL    HW125292   4.468   4.434   0.166 -2.1424 -0.6520 -1.3026
 4941SOL    HW225293   4.615   4.367   0.138 -0.1944  2.4122  1.2935
 4942SOL     OW25294   1.247   9.490   0.534  0.4194 -0.1081  0.1101
 4942SOL    HW125295   1.283   9.580   0.509  0.5495 -0.3823 -0.7232
 4942SOL    HW225296   1.206   9.494   0.625 -0.9910  1.1913 -0.5703
 4943SOL     OW25297   7.042   7.565   2.008  0.1845  0.0899 -0.1985
 4943SOL    HW125298   7.036   7.663   2.025 -3.3259  0.0714 -0.9295
 4943SOL    HW225299   7.057   7.549   1.910  1.6037 -0.1324  0.0353
 4944SOL     OW25300   0.811   9.496   2.276  1.1378 -0.4485  0.5156
 4944SOL    HW125301   0.805   9.444   2.361 -1.1710 -1.2218 -0.0746
 4944SOL    HW225302   0.735   9.561   2.271  1.0929 -0.5993 -1.0613
 4945SOL     OW25303   9.745   7.082   4.270 -0.4114  0.6196  0.7970
 4945SOL    HW125304   9.821   7.069   4.334  0.7595 -2.0474 -1.0114
 4945SOL    HW225305   9.761   7.165   4.216  2.0097 -0.6466 -0.5210
 4946SOL     OW25306   1.041   5.453   3.613  0.0164  0.4596 -0.0980
 4946SOL    HW125307   1.024   5.360   3.644  2.0544  0.1553  0.1588
 4946SOL    HW225308   1.044   5.515   3.691 -1.1380  0.7274 -0.2523
 4947SOL     OW25309   0.100   5.438   3.124  0.0412 -0.1897  0.0692
 4947SOL    HW125310   0.086   5.344   3.156  0.9719 -0.1104  0.7266
 4947SOL    HW225311   0.051   5.501   3.185  1.1394 -0.0983  0.8644
 4948SOL     OW25312   0.806   7.467   1.861 -0.0489 -0.6139  0.1217
 4948SOL    HW125313   0.845   7.522   1.935 -0.5015  1.2234 -0.9622
 4948SOL    HW225314   0.711   7.494   1.846 -0.2705 -1.6957 -0.4353
 4949SOL     OW25315   3.472   5.882   1.992 -0.2427 -0.1840 -0.1605
 4949SOL    HW125316   3.421   5.800   1.967 -2.3074  1.0263 -0.0568
 4949SOL    HW225317   3.527   5.913   1.915  0.3150 -1.4970 -0.2914
 4950SOL     OW25318   3.088   6.350   2.317 -0.2030  0.4736  0.3509
 4950SOL    HW125319   3.156   6.384   2.382 -0.3742  0.8397  0.3376
 4950SOL    HW225320   3.135   6.306   2.240  0.0257  0.9156  0.2352
 4951SOL     OW25321   3.953   7.979   3.558  0.2549  0.5812  0.4813
 4951SOL    HW125322   3.879   8.043   3.583  0.7533  0.8291  1.3548
 4951SOL    HW225323   4.020   8.027   3.502  1.0985  1.1056  1.8961
 4952SOL     OW25324   0.587   0.033   3.375 -0.0277  0.2035  0.3571
 4952SOL    HW125325   0.487   0.031   3.385 -0.0143  0.5444  0.5844
 4952SOL    HW225326   0.627   0.073   3.457  0.4800 -2.4808  1.4661
 4953SOL     OW25327   1.987   8.514   2.488 -0.2668  0.1817 -0.1026
 4953SOL    HW125328   1.934   8.598   2.470 -0.9050 -0.2269 -0.1480
 4953SOL    HW225329   2.037   8.525   2.574 -1.0559  0.2686  0.3498
 4954SOL     OW25330   2.739   2.970   2.546 -0.3998  0.5687 -0.1027
 4954SOL    HW125331   2.787   3.058   2.539  0.6526 -0.1505 -2.3968
 4954SOL    HW225332   2.783   2.903   2.486 -2.4426 -0.9615  0.0627
 4955SOL     OW25333   2.608   4.412   2.832  0.0808  0.2860 -0.2588
 4955SOL    HW125334   2.571   4.426   2.924  0.0475  1.3322 -0.4246
 4955SOL    HW225335   2.582   4.489   2.774  0.9191  0.0955 -0.8930
 4956SOL     OW25336   8.504   7.429   4.189 -0.4968  0.0434  0.9597
 4956SOL    HW125337   8.433   7.416   4.119 -0.8090 -0.2046  1.3172
 4956SOL    HW225338   8.562   7.507   4.165 -1.9278  1.3110  1.5006
 4957SOL     OW25339   9.926   0.880   1.712  0.0725  0.2824  0.1611
 4957SOL    HW125340   9.832   0.914   1.724 -0.3858 -1.3886  1.4985
 4957SOL    HW225341   9.939   0.798   1.768  1.5859 -0.9483 -1.9390
 4958SOL     OW25342   3.255   8.148   4.511  0.3004 -0.3438  0.5265
 4958SOL    HW125343   3.311   8.079   4.466  0.7436  0.1493  0.3265
 4958SOL    HW225344   3.232   8.220   4.446 -1.7171 -1.2223  0.2134
 4959SOL     OW25345   9.628   8.343   1.271  0.3759  0.3190  0.3336
 4959SOL    HW125346   9.559   8.319   1.339 -1.0875  1.5697 -0.6732
 4959SOL    HW225347   9.662   8.435   1.290  1.1387  0.0459  0.3077
 4960SOL     OW25348   2.462   1.681   2.287  0.5356  0.6844  0.7499
 4960SOL    HW125349   2.557   1.649   2.287  0.1041 -0.6647  2.2193
 4960SOL    HW225350   2.401   1.602   2.299 -0.6955  1.7238  1.3896
 4961SOL     OW25351   9.015   6.330   0.418  0.4032 -0.2244  0.2633
 4961SOL    HW125352   9.066   6.245   0.430  0.3266 -0.2087  0.7429
 4961SOL    HW225353   8.931   6.312   0.367 -1.1105 -1.0172  2.9524
 4962SOL     OW25354   1.986   7.260   1.387 -0.4276 -0.1760  0.0623
 4962SOL    HW125355   2.041   7.235   1.307 -0.9463 -1.0691 -0.0172
 4962SOL    HW225356   1.966   7.178   1.441  1.5949  0.6878  2.1874
 4963SOL     OW25357   2.284   1.453   0.730 -0.3506 -0.1378 -0.1682
 4963SOL    HW125358   2.324   1.543   0.712  2.1276 -1.1475  0.1275
 4963SOL    HW225359   2.203   1.464   0.789  0.1236  1.8633  0.1527
 4964SOL     OW25360   3.847   0.078   4.275  0.2758 -0.7215  0.0374
 4964SOL    HW125361   3.925   0.030   4.315  1.3754  0.3627 -0.7782
 4964SOL    HW225362   3.837   0.167   4.320  2.1166  0.9260 -2.6609
 4965SOL     OW25363   8.484   9.671   4.066 -0.6593  0.3740 -0.0728
 4965SOL    HW125364   8.502   9.698   4.161 -0.4978 -0.4586  0.1397
 4965SOL    HW225365   8.571   9.651   4.021 -0.8836 -1.7266  0.3670
 4966SOL     OW25366   3.822   2.027   0.837  0.4113 -0.1871 -0.3512
 4966SOL    HW125367   3.869   2.110   0.867 -0.2722  0.8980 -2.2273
 4966SOL    HW225368   3.874   1.947   0.866  1.8511  0.9281  0.1842
 4967SOL     OW25369   0.861   3.126   1.949  0.0661  0.1944 -0.3748
 4967SOL    HW125370   0.858   3.026   1.941 -0.8128  0.1053  0.9653
 4967SOL    HW225371   0.770   3.160   1.973  0.8842  1.1135  1.4776
 4968SOL     OW25372   1.754   5.466   2.606 -0.2660 -0.5672 -0.5294
 4968SOL    HW125373   1.673   5.513   2.571 -0.1670  1.4129  1.7849
 4968SOL    HW225374   1.728   5.375   2.639 -1.9268  0.7259  1.8302
 4969SOL     OW25375   8.973   8.949   3.189 -0.7207  0.0502  0.0118
 4969SOL    HW125376   8.881   8.926   3.158 -0.4579  1.3677 -1.8187
 4969SOL    HW225377   9.026   8.865   3.204 -2.4580 -0.7483  1.9285
 4970SOL     OW25378   3.817   9.278   0.600  0.0725  0.1053  0.0865
 4970SOL    HW125379   3.739   9.299   0.660 -0.3948 -4.2728  1.1613
 4970SOL    HW225380   3.902   9.303   0.646 -0.5111  2.5560 -0.0612
 4971SOL     OW25381   9.442   5.247   3.293 -0.1599 -0.1083  0.6451
 4971SOL    HW125382   9.404   5.158   3.269 -3.1399  1.0448  0.7941
 4971SOL    HW225383   9.454   5.301   3.210 -0.3116  0.0809  0.7463
 4972SOL     OW25384   8.809   6.788   3.941  0.0816 -0.7719  0.0002
 4972SOL    HW125385   8.718   6.747   3.941  0.2648 -1.1868 -0.1201
 4972SOL    HW225386   8.866   6.744   4.011 -0.5923  1.2774  1.8736
 4973SOL     OW25387   4.208   1.153   2.267 -0.6335  0.1165 -0.1432
 4973SOL    HW125388   4.141   1.110   2.206 -0.3356 -0.8149  0.1821
 4973SOL    HW225389   4.198   1.252   2.263  0.0647  0.1241 -2.5258
 4974SOL     OW25390   2.142   9.572   4.258 -0.4481  0.3483 -0.2116
 4974SOL    HW125391   2.122   9.668   4.238  0.5391  0.6585  0.2367
 4974SOL    HW225392   2.165   9.524   4.173 -2.5619  0.0999 -0.6597
 4975SOL     OW25393   9.151   0.369   0.521  0.2304 -0.2350  0.3285
 4975SOL    HW125394   9.245   0.392   0.496  0.5489 -0.8657  0.9158
 4975SOL    HW225395   9.143   0.369   0.621  0.5289 -3.6362  0.4267
 4976SOL     OW25396   2.944   3.726   3.135  0.4390  0.0224 -0.1771
 4976SOL    HW125397   2.884   3.708   3.057 -0.2055 -1.3071  0.5932
 4976SOL    HW225398   2.962   3.824   3.143 -0.8019  0.3261 -1.0325
 4977SOL     OW25399   8.311   8.628   4.211  0.3793 -0.2460  0.3056
 4977SOL    HW125400   8.298   8.611   4.309  0.2590  1.8790  0.6767
 4977SOL    HW225401   8.238   8.583   4.160 -1.3002  1.1337  1.4402
 4978SOL     OW25402   3.469   7.193   3.286  0.3086  0.5987  0.4359
 4978SOL    HW125403   3.490   7.250   3.207 -0.4637 -0.2466 -0.3942
 4978SOL    HW225404   3.410   7.117   3.258  0.4508 -0.0068  1.7254
 4979SOL     OW25405   3.304   3.441   1.401 -0.5413 -0.2794 -0.1310
 4979SOL    HW125406   3.261   3.523   1.365 -1.4418 -1.0389 -0.8130
 4979SOL    HW225407   3.386   3.466   1.453 -0.6786  1.0185 -0.5250
 4980SOL     OW25408   0.697   3.298   0.602 -0.2845 -0.4421 -0.3841
 4980SOL    HW125409   0.671   3.229   0.670 -2.7661  1.0197  0.2351
 4980SOL    HW225410   0.772   3.353   0.638 -0.9057 -0.3338  0.7725
 4981SOL     OW25411   0.791   7.823   2.356 -0.0839 -0.1923 -0.0276
 4981SOL    HW125412   0.821   7.916   2.377  0.7128 -0.1417 -1.3378
 4981SOL    HW225413   0.758   7.818   2.262 -1.4038 -0.9350  0.4670
 4982SOL     OW25414   2.428   5.698   0.093  0.2726  0.5046 -0.1319
 4982SOL    HW125415   2.329   5.685   0.080  0.1833  1.0233  0.0040
 4982SOL    HW225416   2.443   5.757   0.173  0.6812  0.6885 -0.3442
 4983SOL     OW25417   0.904   7.755   0.612  0.5716 -0.1500  0.5368
 4983SOL    HW125418   0.985   7.751   0.670  0.4147  0.4444  0.8016
 4983SOL    HW225419   0.931   7.785   0.520  0.4310  1.7046  1.0774
 4984SOL     OW25420   0.145   7.410   2.663  0.2417 -0.9946  0.5244
 4984SOL    HW125421   0.166   7.354   2.743  2.8780  1.5738  1.7120
 4984SOL    HW225422   0.144   7.506   2.688 -2.0293 -0.3032 -1.9308
 4985SOL     OW25423   3.094   1.929   1.441 -0.3042  0.2540 -0.4460
 4985SOL    HW125424   3.028   1.932   1.516  0.6580 -2.3016  0.5635
 4985SOL    HW225425   3.110   1.834   1.414  3.6831  0.7114  0.0160
 4986SOL     OW25426   3.694   9.025   2.762  0.7769  0.0705  0.2077
 4986SOL    HW125427   3.794   9.027   2.774  0.8279 -2.2337  0.4207
 4986SOL    HW225428   3.673   9.013   2.664  0.7327 -0.3699  0.2703
 4987SOL     OW25429   5.498   9.864   1.984  0.0499 -1.0691  0.3981
 4987SOL    HW125430   5.404   9.893   1.998  0.8250  1.7281  0.0242
 4987SOL    HW225431   5.509   9.770   2.019 -2.4027 -0.7719  2.1274
 4988SOL     OW25432   3.616   8.698   1.731 -0.3356 -0.0842  0.5630
 4988SOL    HW125433   3.575   8.621   1.780  0.3775 -0.0658  1.2062
 4988SOL    HW225434   3.655   8.763   1.797 -2.2486  1.5889  0.0752
 4989SOL     OW25435   0.298   3.877   4.087 -0.5199 -0.4082  0.8142
 4989SOL    HW125436   0.249   3.797   4.053 -0.6016  0.0793 -0.2490
 4989SOL    HW225437   0.321   3.936   4.010 -1.6522  1.2608  1.7131
 4990SOL     OW25438   1.496   2.651   4.161  0.0181 -0.2451  0.2149
 4990SOL    HW125439   1.576   2.695   4.123  0.0462  0.5485  1.1739
 4990SOL    HW225440   1.524   2.574   4.218  0.1160  0.1971  0.7666
 4991SOL     OW25441   6.712   8.360   1.846  0.1721 -0.0399  0.0991
 4991SOL    HW125442   6.794   8.379   1.792  0.4426 -1.2028  0.0749
 4991SOL    HW225443   6.681   8.443   1.891  1.4357  0.3754  0.2079
 4992SOL     OW25444   8.734   8.024   0.531  0.2864  0.1512 -0.3329
 4992SOL    HW125445   8.649   7.973   0.526  1.3285 -1.4826 -1.8314
 4992SOL    HW225446   8.718   8.118   0.500 -0.9189 -0.1783 -0.7428
 4993SOL     OW25447   5.606   0.269   1.959 -0.1781 -0.1434  0.6038
 4993SOL    HW125448   5.671   0.337   1.924 -1.8639  2.2530  1.9892
 4993SOL    HW225449   5.638   0.234   2.047 -0.3039  0.3640  0.8526
 4994SOL     OW25450   2.005   7.139   0.162  0.1146  0.8957  0.0471
 4994SOL    HW125451   2.017   7.074   0.238  0.9644  1.9371  0.8236
 4994SOL    HW225452   2.094   7.157   0.120 -0.6983 -1.6991 -2.9387
 4995SOL     OW25453   7.759   7.974   3.202 -0.3835 -0.0777  0.1244
 4995SOL    HW125454   7.811   7.963   3.286 -1.7634 -1.1434  0.8545
 4995SOL    HW225455   7.692   8.048   3.214 -0.6308 -0.2792 -0.0166
 4996SOL     OW25456   0.181   1.924   1.578  0.1607 -0.2114  0.1000
 4996SOL    HW125457   0.108   1.857   1.594  0.6420 -0.6359  0.5671
 4996SOL    HW225458   0.168   2.002   1.639 -0.1461 -0.0952 -0.1176
 4997SOL     OW25459   3.627   4.442   0.600 -0.2911 -0.0976  0.2881
 4997SOL    HW125460   3.678   4.359   0.620 -0.5203 -0.7490 -1.6625
 4997SOL    HW225461   3.530   4.420   0.590 -0.3154  0.3348 -0.5110
 4998SOL     OW25462   3.888   0.027   2.495  0.1822  0.0588  0.1668
 4998SOL    HW125463   3.968   0.060   2.546 -0.0375 -0.0882  0.6085
 4998SOL    HW225464   3.881  -0.072   2.504 -0.9856  0.2472  1.4951
 4999SOL     OW25465   2.117   1.083   3.394  0.1638 -0.1253 -0.3525
 4999SOL    HW125466   2.034   1.027   3.398  1.7304 -2.8083 -2.8926
 4999SOL    HW225467   2.173   1.066   3.475 -0.7447  0.0509  0.3241
 5000SOL     OW25468   3.197   2.928   2.310 -0.0065  0.0113 -0.1629
 5000SOL    HW125469   3.234   2.967   2.394 -2.3484  2.5114 -0.2076
 5000SOL    HW225470   3.205   2.994   2.236 -2.0915 -0.3950 -0.7828
 5001SOL     OW25471   8.790   9.189   1.200 -0.3365 -0.0422 -0.8465
 5001SOL    HW125472   8.727   9.113   1.182 -0.1441 -0.0302 -1.5633
 5001SOL    HW225473   8.882   9.154   1.214 -0.7859 -0.2390  2.0085
 5002SOL     OW25474   0.596   2.687   3.025 -0.5528 -0.0038  0.1278
 5002SOL    HW125475   0.560   2.762   3.080  0.5406  0.1218  0.6850
 5002SOL    HW225476   0.567   2.600   3.065 -1.1265  0.1050 -0.0442
 5003SOL     OW25477   4.384   0.603   3.724  0.2164  0.0639 -0.2606
 5003SOL    HW125478   4.351   0.590   3.630 -1.9977  0.6838  0.4025
 5003SOL    HW225479   4.312   0.646   3.779  1.7871  0.4826  1.5213
 5004SOL     OW25480   8.099   8.975   4.464 -0.0395 -0.5294 -0.7302
 5004SOL    HW125481   8.011   8.964   4.418 -1.1715  1.2206  0.9099
 5004SOL    HW225482   8.123   9.072   4.464  1.2680 -0.8570 -0.0390
 5005SOL     OW25483   1.223   6.304   3.965 -0.3432  0.0084 -0.1401
 5005SOL    HW125484   1.141   6.255   3.995  0.9142 -1.4366  1.0425
 5005SOL    HW225485   1.224   6.309   3.865 -1.4011 -0.8115 -0.1999
 5006SOL     OW25486   0.363   6.216   0.200  0.2415 -0.1276 -0.1294
 5006SOL    HW125487   0.305   6.208   0.119 -0.9046 -1.0387  0.7700
 5006SOL    HW225488   0.426   6.139   0.204 -0.4526 -0.6800  0.4147
 5007SOL     OW25489   3.922   8.466   4.706  0.6311  0.5308 -0.2002
 5007SOL    HW125490   3.929   8.366   4.710  0.4747  0.4704 -1.1316
 5007SOL    HW225491   4.013   8.506   4.700  0.7621  0.5308  1.5704
 5008SOL     OW25492   9.035   4.774   2.424  0.1410 -0.2935 -0.3352
 5008SOL    HW125493   9.100   4.844   2.393 -0.5522  0.5114  0.0284
 5008SOL    HW225494   8.942   4.809   2.418 -0.1000 -0.5826  1.4443
 5009SOL     OW25495   5.030   1.777   1.705 -0.0094  0.2751  0.0972
 5009SOL    HW125496   5.001   1.867   1.673 -0.8330 -0.8648 -2.4485
 5009SOL    HW225497   5.121   1.756   1.669 -0.6688 -0.7496 -1.0012
 5010SOL     OW25498   0.532   2.059   0.236  0.3119 -0.0588  0.1870
 5010SOL    HW125499   0.511   2.156   0.231  0.7833  0.0003 -0.9652
 5010SOL    HW225500   0.631   2.046   0.244  0.6196 -0.4658 -3.1826
 5011SOL     OW25501   4.681   2.016   2.912  0.0090 -0.1461 -0.0234
 5011SOL    HW125502   4.621   2.070   2.971  0.6027  0.7939 -0.2602
 5011SOL    HW225503   4.699   1.928   2.954 -0.3593  0.1375  0.7385
 5012SOL     OW25504   8.544   9.585   2.733 -0.4094  0.3553 -0.6044
 5012SOL    HW125505   8.558   9.684   2.732  0.3671  0.2340 -2.4918
 5012SOL    HW225506   8.612   9.542   2.793  0.5522  0.7682 -1.4018
 5013SOL     OW25507   2.028   8.242   2.421  0.2334 -0.3407 -0.1691
 5013SOL    HW125508   1.978   8.328   2.435  0.2214 -0.6083  1.5220
 5013SOL    HW225509   2.063   8.239   2.327 -0.6010  1.0724 -0.5395
 5014SOL     OW25510   7.531   8.789   3.548 -0.3669 -0.2784 -0.3212
 5014SOL    HW125511   7.547   8.885   3.573  1.1774 -0.4381 -0.6139
 5014SOL    HW225512   7.473   8.784   3.467  4.6528  0.6951 -4.2297
 5015SOL     OW25513   1.156   4.697   4.347  0.2846  0.1610 -0.1317
 5015SOL    HW125514   1.179   4.731   4.256 -3.2159 -2.1239 -2.0055
 5015SOL    HW225515   1.089   4.758   4.390 -0.3529 -0.3608 -0.3741
 5016SOL     OW25516   4.748   6.693   2.184 -0.0667 -0.1248  0.4081
 5016SOL    HW125517   4.748   6.791   2.206  1.1132  0.3096 -1.4334
 5016SOL    HW225518   4.799   6.644   2.254  0.3964  0.7435  0.6894
 5017SOL     OW25519   1.642   0.895   2.184 -0.1139 -0.5449  0.3884
 5017SOL    HW125520   1.718   0.848   2.229  0.3919  0.7459  0.8964
 5017SOL    HW225521   1.605   0.964   2.246 -0.1205  0.5008 -0.7773
 5018SOL     OW25522   8.082   9.653   4.695 -0.2649 -0.0874 -0.0471
 5018SOL    HW125523   8.136   9.577   4.732 -1.0806 -1.1084 -0.9108
 5018SOL    HW225524   8.084   9.730   4.759 -1.8697 -1.9169  2.2990
 5019SOL     OW25525   5.131   9.666   3.863  0.2580  0.2506 -0.3655
 5019SOL    HW125526   5.123   9.747   3.805  0.3519  0.9728  0.6280
 5019SOL    HW225527   5.068   9.596   3.830 -0.4745  1.0534 -0.6839
 5020SOL     OW25528   9.226   1.163   2.314 -0.1424 -0.2984 -0.1695
 5020SOL    HW125529   9.130   1.176   2.290 -1.1236 -0.8397  3.2114
 5020SOL    HW225530   9.274   1.251   2.314 -0.4815 -0.0982 -2.3965
 5021SOL     OW25531   2.437   9.696   3.154 -0.1139  0.2558  0.5816
 5021SOL    HW125532   2.511   9.728   3.094 -1.2013  0.0583 -0.9046
 5021SOL    HW225533   2.349   9.726   3.116 -0.9549 -1.6677  0.9501
 5022SOL     OW25534   9.878   5.600   4.295 -0.6114  0.2240  0.2743
 5022SOL    HW125535   9.890   5.663   4.217 -0.2295  1.7648  1.5524
 5022SOL    HW225536   9.941   5.625   4.368 -0.2967 -1.8215  0.7285
 5023SOL     OW25537   0.916   6.896   1.959 -0.3911 -0.0356 -0.3897
 5023SOL    HW125538   0.971   6.942   1.889 -1.0611  1.9386  0.3437
 5023SOL    HW225539   0.943   6.929   2.049 -1.4022 -0.5447  0.1021
 5024SOL     OW25540   3.126   2.151   4.664 -0.1639 -0.2117  0.4325
 5024SOL    HW125541   3.129   2.229   4.602 -1.0785 -0.2069  0.3844
 5024SOL    HW225542   3.207   2.151   4.722  1.3400 -0.9049 -1.5972
 5025SOL     OW25543   6.642   6.916   2.816 -0.1857  0.0746  0.4008
 5025SOL    HW125544   6.593   6.980   2.757  1.6518 -0.3010 -1.5609
 5025SOL    HW225545   6.717   6.873   2.765  1.0245 -0.7583  2.8072
 5026SOL     OW25546   8.640   7.446   0.198 -0.8126 -0.1993 -0.4683
 5026SOL    HW125547   8.725   7.393   0.206 -0.0953  0.7974 -1.5381
 5026SOL    HW225548   8.640   7.498   0.113 -2.4314 -0.0616 -0.4006
 5027SOL     OW25549   2.556   3.187   4.153  0.0848 -0.0794  0.0128
 5027SOL    HW125550   2.614   3.112   4.121 -0.3456 -1.3417  2.0321
 5027SOL    HW225551   2.609   3.248   4.212  0.2727  0.8379 -1.1086
 5028SOL     OW25552   6.246   0.087   1.479  0.6119  0.4839  0.1297
 5028SOL    HW125553   6.230   0.116   1.384 -0.9928 -0.8966 -0.0694
 5028SOL    HW225554   6.344   0.091   1.499  0.8320  2.0932 -1.1442
 5029SOL     OW25555   1.805   4.994   3.000 -0.0683  0.0346 -0.9151
 5029SOL    HW125556   1.862   5.074   3.011  1.0078 -0.9911  1.2636
 5029SOL    HW225557   1.730   4.996   3.067 -0.2751 -0.5655 -1.1161
 5030SOL     OW25558   3.997   3.623   1.239 -0.1487  0.2210  0.5153
 5030SOL    HW125559   3.907   3.593   1.210  1.1840 -2.9096 -0.6556
 5030SOL    HW225560   3.997   3.642   1.338 -1.2227 -3.4742  1.3058
 5031SOL     OW25561   2.867   0.937   3.392  0.3340 -0.1386  0.3394
 5031SOL    HW125562   2.807   0.957   3.470  0.7748  0.3870  0.5485
 5031SOL    HW225563   2.954   0.985   3.404  0.2017  0.3789 -0.7346
 5032SOL     OW25564   3.144   7.013   0.495 -0.5672  0.1480 -0.0505
 5032SOL    HW125565   3.125   6.973   0.585 -3.2145  2.0463  0.2631
 5032SOL    HW225566   3.231   6.976   0.461 -0.3888 -1.9400  2.4778
 5033SOL     OW25567   1.038   7.582   3.519 -0.3681  0.1014 -0.3073
 5033SOL    HW125568   1.002   7.539   3.436 -3.0799 -1.5323  1.6436
 5033SOL    HW225569   1.138   7.584   3.514 -0.4042 -1.5062 -2.8672
 5034SOL     OW25570   0.998   4.975   4.757 -0.0762  0.3108  0.0959
 5034SOL    HW125571   0.940   4.906   4.800  1.1043 -0.1161  1.0134
 5034SOL    HW225572   1.071   4.931   4.705  1.3471  0.8547  1.6044
 5035SOL     OW25573   1.893   4.001   4.541 -0.2623 -0.2354  0.2841
 5035SOL    HW125574   1.932   3.966   4.456 -0.6122 -1.8942  0.7995
 5035SOL    HW225575   1.825   4.072   4.520  2.3650  2.1268 -0.6664
 5036SOL     OW25576   2.052   5.175   2.103 -0.2515  0.5127  0.5470
 5036SOL    HW125577   2.087   5.121   2.026  0.7350  1.5910  0.2239
 5036SOL    HW225578   1.954   5.187   2.093 -0.1328  0.6526 -0.5678
 5037SOL     OW25579   0.513   9.870   2.887 -0.2084 -0.4561  0.0006
 5037SOL    HW125580   0.447   9.871   2.811  1.4363 -2.0637 -1.4891
 5037SOL    HW225581   0.500   9.787   2.941  0.1668 -0.4640  0.0788
 5038SOL     OW25582   2.939   1.420   2.348 -0.7003 -0.4246 -0.0240
 5038SOL    HW125583   2.870   1.348   2.358 -0.6762 -0.6080 -1.0971
 5038SOL    HW225584   2.991   1.404   2.264  2.0715 -1.4859  1.8068
 5039SOL     OW25585   0.229   7.656   4.637 -0.3844 -0.3314 -0.3199
 5039SOL    HW125586   0.272   7.664   4.727 -0.2974  0.2145 -0.4098
 5039SOL    HW225587   0.275   7.716   4.573  0.2549 -1.5277 -0.9993
 5040SOL     OW25588   2.865   0.734   2.145 -0.4757  0.3505  0.1791
 5040SOL    HW125589   2.840   0.637   2.151  1.3598 -0.1861 -0.3687
 5040SOL    HW225590   2.873   0.772   2.237 -2.5016  0.3448  0.3708
 5041SOL     OW25591   3.175   0.276   3.870  0.5077 -0.0313  0.3572
 5041SOL    HW125592   3.266   0.283   3.828  0.7041  0.4763  0.8505
 5041SOL    HW225593   3.185   0.273   3.970 -0.0540  0.7793  0.4390
 5042SOL     OW25594   3.942   8.982   1.949 -0.4528  0.4346 -0.1507
 5042SOL    HW125595   3.963   8.885   1.965 -0.1792  0.1442 -2.1219
 5042SOL    HW225596   3.963   9.005   1.854 -4.8152  1.2930 -0.9875
 5043SOL     OW25597   3.002   9.008   1.495  0.3996  0.0400  0.6729
 5043SOL    HW125598   3.051   8.925   1.523  0.2005  0.6459  2.9043
 5043SOL    HW225599   2.904   8.988   1.491  0.2996  0.2607  1.6972
 5044SOL     OW25600   3.678   2.565   1.294 -0.2373 -0.3443  0.1530
 5044SOL    HW125601   3.748   2.508   1.337  0.8876 -1.2054 -2.7507
 5044SOL    HW225602   3.593   2.557   1.346  0.3393 -3.4274  0.7110
 5045SOL     OW25603   3.167   9.168   3.876 -0.1887  0.0607 -0.2515
 5045SOL    HW125604   3.162   9.211   3.786  0.5015  0.9328  0.1125
 5045SOL    HW225605   3.077   9.174   3.920 -0.2560  0.6053 -0.4500
 5046SOL     OW25606   1.083   9.895   4.779 -0.3171 -0.2721  0.1101
 5046SOL    HW125607   1.157   9.948   4.736  1.4788 -3.1027 -0.4206
 5046SOL    HW225608   1.008   9.884   4.713 -1.1032  2.3045  0.5244
 5047SOL     OW25609   2.847   8.568   0.997  1.0714 -0.2980  0.3563
 5047SOL    HW125610   2.863   8.666   0.985  2.1702 -0.1773  2.4401
 5047SOL    HW225611   2.839   8.524   0.908 -0.5525  1.8468 -0.6104
 5048SOL     OW25612   2.163   5.813   4.092 -0.3263 -0.2873 -0.2328
 5048SOL    HW125613   2.093   5.752   4.054 -0.1936 -0.4217 -0.2599
 5048SOL    HW225614   2.121   5.872   4.161 -0.0825 -1.6926  1.1511
 5049SOL     OW25615   0.101   9.444   0.844  0.0406  0.0811  0.1226
 5049SOL    HW125616   0.062   9.376   0.907 -0.7400 -0.2440 -0.6989
 5049SOL    HW225617   0.061   9.534   0.864 -1.2204 -0.2684 -0.7802
 5050SOL     OW25618   2.564   8.606   1.360  0.0865 -0.4469 -0.1141
 5050SOL    HW125619   2.544   8.636   1.267  0.6053  1.3574  0.3470
 5050SOL    HW225620   2.552   8.506   1.366 -0.5845 -0.4950 -1.9303
 5051SOL     OW25621   0.758   1.263   3.364 -0.1950 -0.3615  0.4641
 5051SOL    HW125622   0.773   1.199   3.439 -0.8311  0.7245  1.5341
 5051SOL    HW225623   0.681   1.323   3.386 -0.2094  0.1495 -0.9335
 5052SOL     OW25624   4.865   2.465   0.542  0.1637 -0.3012 -0.0407
 5052SOL    HW125625   4.765   2.469   0.536  0.1930  0.4757 -0.0985
 5052SOL    HW225626   4.905   2.515   0.465  0.5814  0.9805  0.9850
 5053SOL     OW25627   3.225   9.336   2.508 -1.1026 -0.1685 -0.4085
 5053SOL    HW125628   3.184   9.276   2.576 -0.8572  0.7746  0.5878
 5053SOL    HW225629   3.158   9.354   2.435 -1.8847  0.0039  0.3394
 5054SOL     OW25630   8.167   9.741   3.107 -0.1203  0.1255 -0.1278
 5054SOL    HW125631   8.218   9.660   3.137 -1.3006 -0.5779  0.0311
 5054SOL    HW225632   8.093   9.759   3.172  0.6520  1.8522  0.3020
 5055SOL     OW25633   3.945   7.090   2.020 -0.1506 -0.7593  0.1516
 5055SOL    HW125634   3.846   7.104   2.020 -0.2110 -1.2180  0.3937
 5055SOL    HW225635   3.978   7.092   1.925 -0.2363  0.4843  0.1338
 5056SOL     OW25636   3.981   9.337   0.812 -0.0646  0.3767 -0.0096
 5056SOL    HW125637   3.928   9.393   0.875 -0.7113 -1.1742  0.8335
 5056SOL    HW225638   3.972   9.240   0.836  3.6537  0.0869  0.6077
 5057SOL     OW25639   3.726   9.486   4.065 -0.1453 -0.0414 -0.1509
 5057SOL    HW125640   3.651   9.432   4.104 -2.4910  1.4526 -2.4047
 5057SOL    HW225641   3.753   9.557   4.130  0.8891 -1.9801  1.5929
 5058SOL     OW25642   1.354   8.748   1.277 -0.3923 -0.5557 -0.0238
 5058SOL    HW125643   1.297   8.694   1.216  1.7839 -3.2755  0.2225
 5058SOL    HW225644   1.349   8.709   1.369 -0.5014  1.0458  0.6653
 5059SOL     OW25645   6.685   0.497   2.138  0.4506 -0.6661 -0.3231
 5059SOL    HW125646   6.617   0.513   2.210 -1.1770  0.2643 -2.0218
 5059SOL    HW225647   6.695   0.399   2.124 -0.3368 -0.8180  0.1300
 5060SOL     OW25648   1.789   4.549   4.665  0.4499  0.0388  0.3062
 5060SOL    HW125649   1.792   4.553   4.765  0.2945  1.3141  0.2662
 5060SOL    HW225650   1.874   4.511   4.630  0.6483 -0.0723  0.9095
 5061SOL     OW25651   1.801   3.945   2.588 -0.1234 -0.1194 -0.1676
 5061SOL    HW125652   1.822   3.853   2.623  0.4394  0.9845  2.5261
 5061SOL    HW225653   1.702   3.958   2.586 -0.2147 -0.9329 -0.9266
 5062SOL     OW25654   0.634   5.846   0.839  0.5878 -0.3292 -0.1395
 5062SOL    HW125655   0.697   5.848   0.916  1.4216  1.5075 -0.8401
 5062SOL    HW225656   0.634   5.755   0.798  1.7982 -0.7011  0.6698
 5063SOL     OW25657   8.825   5.706   2.249  0.3499 -0.2689  0.6445
 5063SOL    HW125658   8.923   5.717   2.234  0.2850 -0.9949 -0.3631
 5063SOL    HW225659   8.780   5.683   2.163 -0.5050 -1.3237  1.3510
 5064SOL     OW25660   9.055   0.904   1.474 -0.0091  0.4196  0.4717
 5064SOL    HW125661   8.970   0.878   1.519  0.9295  0.1742  2.1365
 5064SOL    HW225662   9.104   0.970   1.531  0.7408  0.8525 -0.6547
 5065SOL     OW25663   1.435   9.340   0.402 -0.0817 -0.3569 -0.2968
 5065SOL    HW125664   1.478   9.419   0.358 -0.9446 -1.3080 -2.9569
 5065SOL    HW225665   1.349   9.368   0.445  0.3435  0.4482  0.0167
 5066SOL     OW25666   4.452   7.508   2.368  0.0969 -0.2121 -0.7365
 5066SOL    HW125667   4.543   7.539   2.339 -0.8764  2.6007 -0.9393
 5066SOL    HW225668   4.449   7.505   2.468 -0.1458  1.6488 -0.6590
 5067SOL     OW25669   4.331   9.886   2.752  0.2464 -0.1324  0.0724
 5067SOL    HW125670   4.395   9.956   2.783  0.3538 -0.5796  0.8920
 5067SOL    HW225671   4.238   9.911   2.778  0.5657 -1.5325  2.7028
 5068SOL     OW25672   3.457   1.870   0.539 -0.3394 -0.6840 -0.4200
 5068SOL    HW125673   3.488   1.948   0.595 -2.3174 -1.0021  1.1364
 5068SOL    HW225674   3.444   1.790   0.597 -1.4494 -1.3050 -1.5126
 5069SOL     OW25675   1.803   4.971   2.671  0.3515  0.4556 -0.7495
 5069SOL    HW125676   1.829   4.997   2.764  2.5953  0.6907 -1.4088
 5069SOL    HW225677   1.809   5.051   2.611  2.4351 -0.4287 -1.7827
 5070SOL     OW25678   0.567   5.464   2.007  0.0559  0.2621 -0.8682
 5070SOL    HW125679   0.538   5.396   2.075  0.1167  1.4631  0.3867
 5070SOL    HW225680   0.584   5.418   1.920  1.4439 -1.5804  0.3033
 5071SOL     OW25681   3.284   8.344   2.641 -0.1364  0.7675 -0.0322
 5071SOL    HW125682   3.282   8.416   2.711  1.8818 -0.9822  1.8655
 5071SOL    HW225683   3.195   8.299   2.637 -1.1287  2.7006 -0.5897
 5072SOL     OW25684   4.130   7.563   3.660 -0.5733 -0.0802  0.0688
 5072SOL    HW125685   4.149   7.661   3.659  0.1903 -0.2049  0.9043
 5072SOL    HW225686   4.216   7.512   3.652 -0.6166 -0.6734  2.7541
 5073SOL     OW25687   1.875   3.667   2.039  0.4464 -0.8063 -0.1384
 5073SOL    HW125688   1.870   3.585   2.096 -0.7916 -0.2163  0.6135
 5073SOL    HW225689   1.783   3.697   2.014  0.9084  0.0206 -0.8958
 5074SOL     OW25690   0.362   9.059   3.688 -0.1426 -0.5104 -0.3266
 5074SOL    HW125691   0.324   9.034   3.777 -0.3439  0.0689 -0.2518
 5074SOL    HW225692   0.396   8.976   3.643 -2.3078 -1.1915 -0.7950
 5075SOL     OW25693   8.091   7.290   0.921 -0.2510  0.2177  0.2121
 5075SOL    HW125694   8.056   7.237   0.998 -0.1157  0.5657  0.5160
 5075SOL    HW225695   8.188   7.308   0.935 -0.3982  0.9270  0.3312
 5076SOL     OW25696   4.187   3.551   0.026  0.2466 -0.3511  0.3866
 5076SOL    HW125697   4.202   3.527   0.122  1.4976 -2.9988 -0.4408
 5076SOL    HW225698   4.143   3.475  -0.021 -0.0090  0.7890 -1.2620
 5077SOL     OW25699   2.920   9.632   2.396 -0.3007 -0.3343 -0.3619
 5077SOL    HW125700   2.826   9.660   2.417 -1.0869 -1.6333 -2.0031
 5077SOL    HW225701   2.919   9.538   2.361  1.7409 -0.7165  0.5453
 5078SOL     OW25702   9.245   5.048   0.494  0.2714 -0.4810  0.4439
 5078SOL    HW125703   9.171   5.115   0.495 -0.8486 -1.6822 -1.2006
 5078SOL    HW225704   9.228   4.978   0.564  0.9773  0.4084  1.5338
 5079SOL     OW25705   2.507   8.609   3.111 -0.2962  0.1841 -0.0503
 5079SOL    HW125706   2.514   8.547   3.189  1.0550 -0.9629 -1.0450
 5079SOL    HW225707   2.551   8.696   3.133  3.2978 -1.3667 -0.6900
 5080SOL     OW25708   3.197   5.307   0.831  0.0544 -0.4169 -0.3000
 5080SOL    HW125709   3.150   5.251   0.763  1.0973 -0.0101 -1.3512
 5080SOL    HW225710   3.273   5.256   0.871  0.1626 -0.2361 -0.2719
 5081SOL     OW25711   4.406   7.599   1.945  0.7690 -0.2713 -0.8171
 5081SOL    HW125712   4.495   7.554   1.939  0.9442  0.1187 -1.2241
 5081SOL    HW225713   4.360   7.595   1.856  0.2318 -0.7655 -0.5215
 5082SOL     OW25714   1.643   7.502   4.233 -0.0719 -0.1160 -0.6601
 5082SOL    HW125715   1.656   7.411   4.195  0.6356  0.0016 -0.7018
 5082SOL    HW225716   1.562   7.503   4.291  1.3826 -1.4202  1.4293
 5083SOL     OW25717   6.557   9.797   4.142  0.0824  0.0271  0.5660
 5083SOL    HW125718   6.652   9.800   4.110  0.6377  0.0800  2.1469
 5083SOL    HW225719   6.501   9.859   4.088  0.5328 -1.4997 -1.6925
 5084SOL     OW25720   5.305   8.925   1.609 -0.0981 -0.2220 -0.2497
 5084SOL    HW125721   5.285   8.851   1.673 -0.0364 -1.0415 -1.1661
 5084SOL    HW225722   5.387   8.974   1.640 -1.2411  0.6999  1.4028
 5085SOL     OW25723   3.750   8.438   2.429  0.1582  0.3040 -0.0192
 5085SOL    HW125724   3.677   8.497   2.396  0.8672  0.1729 -1.8550
 5085SOL    HW225725   3.738   8.423   2.528 -1.8204  0.9164 -0.1398
 5086SOL     OW25726   9.616   6.469   3.665  0.2261 -0.0863 -0.4214
 5086SOL    HW125727   9.568   6.382   3.677  0.3580 -0.1666 -0.4752
 5086SOL    HW225728   9.677   6.462   3.586 -1.4215  0.7832 -1.7976
 5087SOL     OW25729   4.594   8.272   4.229 -0.5175  0.2970 -0.5488
 5087SOL    HW125730   4.646   8.271   4.144  1.3096 -1.2384  0.5438
 5087SOL    HW225731   4.496   8.267   4.209 -0.1982  2.0144 -2.6012
 5088SOL     OW25732   9.447   0.662   2.893 -0.0788 -0.2769 -0.5730
 5088SOL    HW125733   9.350   0.675   2.873 -0.0001  2.1605  0.4597
 5088SOL    HW225734   9.495   0.630   2.811 -1.3655  0.6306 -1.6941
 5089SOL     OW25735   7.896   7.942   0.337  0.4911  0.1539  0.7313
 5089SOL    HW125736   7.921   7.850   0.308 -1.8397 -0.5016  0.6639
 5089SOL    HW225737   7.903   8.005   0.260 -0.1120 -0.4478  0.1751
 5090SOL     OW25738   4.482   9.223   2.303  0.6297 -0.1682 -0.1302
 5090SOL    HW125739   4.440   9.133   2.315 -0.6779  0.5269  0.5816
 5090SOL    HW225740   4.475   9.250   2.207  0.9209 -0.7646 -0.3247
 5091SOL     OW25741   2.237   1.208   4.116  0.2606  0.2990  0.0043
 5091SOL    HW125742   2.291   1.203   4.032  1.7643 -0.2799  0.9838
 5091SOL    HW225743   2.275   1.278   4.176 -2.5096  2.7122 -0.9352
 5092SOL     OW25744   6.200   8.206   3.101 -0.1631  0.3253  0.4227
 5092SOL    HW125745   6.162   8.165   3.184 -0.6698  1.9932  1.0282
 5092SOL    HW225746   6.152   8.291   3.080  0.9718  0.7048 -0.7313
 5093SOL     OW25747   1.953   0.045   0.552  0.0879  0.0636 -0.1955
 5093SOL    HW125748   1.899   0.115   0.598 -0.3541 -1.7125  2.1106
 5093SOL    HW225749   2.044   0.080   0.530 -0.2643  1.4522  0.5647
 5094SOL     OW25750   9.734   6.341   1.792 -0.2945  0.7661  0.0231
 5094SOL    HW125751   9.651   6.357   1.845 -0.1379  3.4284 -0.4959
 5094SOL    HW225752   9.710   6.331   1.695 -0.1373  0.0764  0.0485
 5095SOL     OW25753   9.516   8.815   4.010 -0.6880  0.5979  0.3437
 5095SOL    HW125754   9.598   8.853   3.969 -0.7464  0.5017  0.1386
 5095SOL    HW225755   9.540   8.733   4.062 -0.8394 -0.1070 -0.7022
 5096SOL     OW25756   2.393   1.644   2.001 -0.4204 -0.7516 -0.3046
 5096SOL    HW125757   2.293   1.642   2.002 -0.5228  2.0774 -0.6392
 5096SOL    HW225758   2.427   1.680   2.088  0.1490  1.1917 -1.2847
 5097SOL     OW25759   0.760   8.242   4.263  0.0902 -0.0300 -0.1925
 5097SOL    HW125760   0.850   8.230   4.221 -0.4769 -3.4729 -0.5581
 5097SOL    HW225761   0.751   8.183   4.343 -0.9533  2.1774  1.3663
 5098SOL     OW25762   0.529   4.110   1.684  0.2552  0.6416 -0.1354
 5098SOL    HW125763   0.525   4.138   1.588  2.5673 -0.4985 -0.5922
 5098SOL    HW225764   0.528   4.010   1.690 -1.2290  0.7080  1.1266
 5099SOL     OW25765   0.458   9.009   1.818  0.2629  0.0670  0.1615
 5099SOL    HW125766   0.520   8.931   1.812 -0.2391 -0.5257  2.3037
 5099SOL    HW225767   0.384   8.997   1.752 -0.3387 -1.7547  1.1378
 5100SOL     OW25768   1.372   1.893   1.683  0.6229  0.2331 -0.1261
 5100SOL    HW125769   1.370   1.873   1.585  0.0742 -0.6526  0.0655
 5100SOL    HW225770   1.289   1.859   1.726 -0.3427  2.9548  0.2227
 5101SOL     OW25771   3.215   7.283   2.433  0.1101  0.1442 -0.1294
 5101SOL    HW125772   3.161   7.213   2.386  0.5713  0.3730 -1.0265
 5101SOL    HW225773   3.197   7.280   2.531  0.6027 -1.6541 -0.0805
 5102SOL     OW25774   4.149   0.493   0.114 -0.1207  0.9922  0.5738
 5102SOL    HW125775   4.101   0.516   0.199  1.2491  0.7167  1.4523
 5102SOL    HW225776   4.146   0.570   0.051 -0.2117  1.5967  1.3224
 5103SOL     OW25777   1.695   3.969   1.049  0.1632  0.1837 -0.2918
 5103SOL    HW125778   1.769   3.944   1.112 -0.7501  0.1632  0.7923
 5103SOL    HW225779   1.612   3.921   1.076 -0.8754  2.1036 -0.0006
 5104SOL     OW25780   4.314   8.559   0.023  0.0432  0.4023 -0.3909
 5104SOL    HW125781   4.278   8.646   0.058 -3.0916 -1.6099  1.6951
 5104SOL    HW225782   4.283   8.545  -0.071  1.6606  2.0819 -1.2136
 5105SOL     OW25783   3.421   2.812   1.948 -0.2385 -0.2845 -0.3130
 5105SOL    HW125784   3.496   2.746   1.938  0.5117  0.3687  0.8942
 5105SOL    HW225785   3.340   2.765   1.982 -0.2515 -0.9055 -1.1578
 5106SOL     OW25786   1.226   8.372   1.081 -0.1997 -0.4819  0.1826
 5106SOL    HW125787   1.228   8.311   1.002  0.2163  1.3322 -1.2576
 5106SOL    HW225788   1.313   8.367   1.129  0.5678  0.4061 -1.0810
 5107SOL     OW25789   2.311   4.781   4.290 -0.7315  0.4930  0.5333
 5107SOL    HW125790   2.353   4.699   4.329 -1.4304 -0.1539 -0.0419
 5107SOL    HW225791   2.347   4.796   4.198 -0.9524  0.5686  0.4595
 5108SOL     OW25792   4.653   2.911   2.667  0.3330 -0.5974 -0.1510
 5108SOL    HW125793   4.561   2.907   2.707 -0.2215 -1.3333 -1.4606
 5108SOL    HW225794   4.704   2.986   2.708  0.0502 -1.7719  2.4947
 5109SOL     OW25795   3.866   0.250   4.598 -0.5796  0.3773 -0.3263
 5109SOL    HW125796   3.839   0.334   4.644  0.8272  0.1233  0.9891
 5109SOL    HW225797   3.802   0.177   4.622 -0.3903  0.4764  0.5067
 5110SOL     OW25798   9.777   1.032   4.570  0.0099  0.0948  0.2621
 5110SOL    HW125799   9.790   0.934   4.555  2.5147  0.9071 -3.5300
 5110SOL    HW225800   9.706   1.066   4.508  1.3987  1.2093 -0.7613
 5111SOL     OW25801   1.244   7.936   2.655 -0.7284  0.1027 -0.3217
 5111SOL    HW125802   1.194   7.946   2.569 -4.1460  3.1181  1.9010
 5111SOL    HW225803   1.210   7.856   2.704  0.1898 -0.7441 -1.0243
 5112SOL     OW25804   0.881   0.235   0.314 -0.3588 -0.7149  0.0711
 5112SOL    HW125805   0.911   0.158   0.259  1.0838 -0.2105  0.1278
 5112SOL    HW225806   0.907   0.321   0.269  0.3443 -0.2963  1.2358
 5113SOL     OW25807   1.983   2.387   1.660  0.1853  0.3443 -0.3988
 5113SOL    HW125808   2.022   2.457   1.719 -1.2836  1.2559 -0.4867
 5113SOL    HW225809   2.018   2.398   1.567  0.8014  0.2739 -0.1766
 5114SOL     OW25810   4.189   0.725   1.691  0.0371 -0.1558 -0.0734
 5114SOL    HW125811   4.109   0.739   1.749  0.5912  0.6886  0.5001
 5114SOL    HW225812   4.236   0.641   1.717  1.1875  1.0168  1.8005
 5115SOL     OW25813   1.204   4.544   2.589 -0.7209  0.0501  0.5415
 5115SOL    HW125814   1.111   4.523   2.558 -0.4416 -2.0865  1.0404
 5115SOL    HW225815   1.233   4.632   2.552 -2.6955  0.4238 -0.1660
 5116SOL     OW25816   9.758   8.555   1.034  0.0997 -0.0506 -0.5417
 5116SOL    HW125817   9.829   8.501   0.991 -1.0986 -1.3376 -0.9544
 5116SOL    HW225818   9.669   8.529   0.996 -0.6512  1.0697  0.4155
 5117SOL     OW25819   9.517   6.714   3.725 -0.1486 -0.0059  0.1556
 5117SOL    HW125820   9.505   6.708   3.824  0.7347 -1.5053  0.1829
 5117SOL    HW225821   9.522   6.622   3.686  0.7728  0.5648 -1.1230
 5118SOL     OW25822   1.081   9.014   4.270  0.0166  0.0288  0.3669
 5118SOL    HW125823   0.985   8.988   4.270 -0.4809  1.7946  1.0025
 5118SOL    HW225824   1.099   9.078   4.345  0.9789  2.1684 -1.6040
 5119SOL     OW25825   4.509   9.261   4.239  0.8505 -0.7335 -0.2693
 5119SOL    HW125826   4.423   9.211   4.232 -0.0042  1.0134 -2.8464
 5119SOL    HW225827   4.490   9.358   4.256  2.3313 -0.4933  0.0844
 5120SOL     OW25828   3.720   2.309   1.685  0.2026 -0.5506  0.0266
 5120SOL    HW125829   3.774   2.319   1.769 -1.2039  1.0372  0.7680
 5120SOL    HW225830   3.631   2.270   1.707 -0.4671  0.5925 -0.5983
 5121SOL     OW25831   4.328   3.028   2.413  0.0466 -0.2979 -0.0956
 5121SOL    HW125832   4.284   3.073   2.491 -0.2426  0.4954 -0.7143
 5121SOL    HW225833   4.415   3.073   2.393 -0.3165  0.0982 -0.8114
 5122SOL     OW25834   7.779   8.403   3.957 -0.0666 -0.4701  0.2137
 5122SOL    HW125835   7.811   8.389   3.863 -1.5709 -4.4529  0.2270
 5122SOL    HW225836   7.782   8.501   3.978  1.4930  0.3845 -3.5272
 5123SOL     OW25837   0.294   0.289   1.927 -0.2077 -0.0310 -0.3535
 5123SOL    HW125838   0.269   0.341   1.845  0.3781  0.9829  0.0941
 5123SOL    HW225839   0.338   0.350   1.992 -0.2885 -0.9245  0.5486
 5124SOL     OW25840   1.458   9.454   3.292  0.3322 -0.3431 -0.1312
 5124SOL    HW125841   1.463   9.527   3.223  0.3237  0.0987  0.3358
 5124SOL    HW225842   1.402   9.379   3.256 -2.4387  1.2849  0.6623
 5125SOL     OW25843   3.579   0.126   3.970  0.3122  0.8999 -0.5261
 5125SOL    HW125844   3.677   0.111   3.960 -0.1138 -2.4299 -0.0494
 5125SOL    HW225845   3.543   0.169   3.887  2.0868  1.9444 -0.7918
 5126SOL     OW25846   9.830   0.605   0.106  0.6032  0.6650  0.3079
 5126SOL    HW125847   9.894   0.643   0.038  0.0973  0.8575 -0.0620
 5126SOL    HW225848   9.778   0.679   0.148  1.5615  0.6422  1.5842
 5127SOL     OW25849   4.352   9.072   3.113  0.3284  0.3405 -0.3315
 5127SOL    HW125850   4.348   9.160   3.159 -0.6603 -0.2165  0.6754
 5127SOL    HW225851   4.445   9.036   3.116  0.2279  0.1715  1.5372
 5128SOL     OW25852   1.515   1.658   0.236  0.5598 -0.1577  0.5934
 5128SOL    HW125853   1.599   1.713   0.234  0.3725  0.0998 -0.2907
 5128SOL    HW225854   1.436   1.718   0.244  0.4125 -0.3538  0.6055
 5129SOL     OW25855   6.848   9.543   2.111  0.1180  0.2950 -0.6201
 5129SOL    HW125856   6.855   9.502   2.202 -0.2665  0.4202 -0.5337
 5129SOL    HW225857   6.939   9.568   2.079 -0.0508  4.2723  1.5884
 5130SOL     OW25858   4.850   2.442   1.351  0.0174  0.3435  0.2471
 5130SOL    HW125859   4.818   2.532   1.378  0.3058  0.8019 -0.9171
 5130SOL    HW225860   4.924   2.451   1.284  1.3449 -0.7215  1.5216
 5131SOL     OW25861   8.409   6.043   0.845  0.7850 -0.4899  0.6026
 5131SOL    HW125862   8.368   6.039   0.754 -1.8661  1.1581  1.6306
 5131SOL    HW225863   8.500   6.082   0.839  2.0199 -3.5261 -1.6966
 5132SOL     OW25864   6.409   8.628   3.660 -0.0133 -0.0289 -0.4394
 5132SOL    HW125865   6.440   8.616   3.566 -0.0352  0.5835 -0.5273
 5132SOL    HW225866   6.472   8.581   3.722 -0.3082 -0.9094 -0.7922
 5133SOL     OW25867   1.584   7.271   2.978 -0.1505  0.3550  0.1926
 5133SOL    HW125868   1.578   7.240   2.883 -0.3430  0.2853  0.2282
 5133SOL    HW225869   1.540   7.205   3.038  0.4076  0.1500  0.3870
 5134SOL     OW25870   3.969   0.510   0.318  0.7598  0.0279  0.1673
 5134SOL    HW125871   3.928   0.601   0.328  1.3256  0.4783 -1.4666
 5134SOL    HW225872   3.940   0.452   0.393 -2.6794  0.4214 -0.7926
 5135SOL     OW25873   2.416   1.688   0.714  0.4342 -0.0775  0.6099
 5135SOL    HW125874   2.505   1.713   0.750  0.9735  0.5788 -1.1291
 5135SOL    HW225875   2.353   1.765   0.723  0.6943  0.2345 -0.2607
 5136SOL     OW25876   1.458   2.608   1.716  0.2267  0.7167 -0.2201
 5136SOL    HW125877   1.455   2.642   1.810 -0.3110  1.4138 -0.4845
 5136SOL    HW225878   1.418   2.676   1.655  0.3249  0.1494 -0.9202
 5137SOL     OW25879   1.703   0.170   2.820  0.2724  0.3394  0.0674
 5137SOL    HW125880   1.686   0.094   2.882 -1.9933 -0.1228 -1.0717
 5137SOL    HW225881   1.621   0.228   2.815  0.9435  1.1892 -1.3348
 5138SOL     OW25882   8.269   9.320   1.084 -0.4197  0.0706  0.4434
 5138SOL    HW125883   8.180   9.302   1.126  0.1535 -0.2451  1.5469
 5138SOL    HW225884   8.271   9.280   0.992 -1.2031 -0.4763  0.6584
 5139SOL     OW25885   2.272   6.082   0.084 -0.3363 -0.3285 -0.0922
 5139SOL    HW125886   2.360   6.035   0.077 -0.6210 -1.0784  1.1547
 5139SOL    HW225887   2.240   6.107  -0.007  0.6071 -1.0946 -0.6440
 5140SOL     OW25888   1.322   9.463   1.919  0.0675  0.1942 -0.7357
 5140SOL    HW125889   1.253   9.524   1.956  0.6988  1.2213 -1.2426
 5140SOL    HW225890   1.297   9.368   1.940 -0.9214  0.6145  0.0289
 5141SOL     OW25891   7.364   0.392   3.649 -0.1690 -0.1331 -0.0690
 5141SOL    HW125892   7.322   0.380   3.559  0.8670 -0.8839 -0.4647
 5141SOL    HW225893   7.423   0.473   3.647  0.2191 -0.4189 -0.2040
 5142SOL     OW25894   9.394   8.870   2.516 -0.5295 -0.0037 -0.3391
 5142SOL    HW125895   9.373   8.879   2.419 -0.8733 -1.8555 -0.4535
 5142SOL    HW225896   9.355   8.947   2.566 -1.1155  0.4943 -1.5550
 5143SOL     OW25897   2.749   2.718   3.834 -0.3061 -0.0003  0.5233
 5143SOL    HW125898   2.827   2.774   3.859 -0.7516  0.3060  1.2585
 5143SOL    HW225899   2.665   2.764   3.863 -0.9321  0.9483 -2.6057
 5144SOL     OW25900   9.849   0.808   4.414  0.1100 -0.1280 -0.4189
 5144SOL    HW125901   9.800   0.754   4.346  1.5115 -0.5749 -1.0891
 5144SOL    HW225902   9.933   0.844   4.374  1.3299 -1.0173  1.2766
 5145SOL     OW25903   1.802   7.561   2.592 -0.1963 -0.2692  0.5430
 5145SOL    HW125904   1.799   7.513   2.680  2.5142 -0.9530  0.3212
 5145SOL    HW225905   1.836   7.654   2.605 -2.7506  0.6778  0.6001
 5146SOL     OW25906   0.554   3.820   3.525 -0.5502 -0.2016 -0.6234
 5146SOL    HW125907   0.611   3.746   3.490  1.7154  0.1868  2.0492
 5146SOL    HW225908   0.466   3.783   3.556  0.5137 -1.7814  0.5767
 5147SOL     OW25909   5.198   9.372   3.748 -0.3819  0.1694  0.0681
 5147SOL    HW125910   5.105   9.367   3.712  0.2005 -0.1988 -1.4093
 5147SOL    HW225911   5.234   9.464   3.736 -0.6723  0.4070  0.9634
 5148SOL     OW25912   2.916   3.171   2.362  0.2335 -0.2167  0.1272
 5148SOL    HW125913   2.873   3.142   2.277 -1.2850 -1.7357  1.3770
 5148SOL    HW225914   2.975   3.097   2.396  1.1700  0.5466  0.1798
 5149SOL     OW25915   3.462   2.961   1.678  0.2678  0.3564 -0.1508
 5149SOL    HW125916   3.444   2.899   1.755  0.7001  0.3693 -0.0380
 5149SOL    HW225917   3.527   2.918   1.615 -0.5921  0.0695 -0.8561
 5150SOL     OW25918   4.061   3.540   0.350  0.2244  0.4077 -0.2613
 5150SOL    HW125919   4.127   3.600   0.395  0.0971  0.4336 -0.1124
 5150SOL    HW225920   3.982   3.593   0.320  0.5179  0.4773 -0.9310
 5151SOL     OW25921   3.028   8.729   1.515 -0.4004  0.8942 -0.8157
 5151SOL    HW125922   2.949   8.708   1.572  1.0547 -0.1783  0.9123
 5151SOL    HW225923   3.009   8.705   1.420 -0.2574 -4.9369  0.4237
 5152SOL     OW25924   2.930   4.352   4.375  0.1611 -0.2517 -0.1158
 5152SOL    HW125925   3.004   4.418   4.367  0.9389 -1.1004 -0.0259
 5152SOL    HW225926   2.862   4.386   4.440  0.6485  0.3721  0.0717
 5153SOL     OW25927   0.961   9.895   1.305  0.8221 -0.0777 -0.2326
 5153SOL    HW125928   0.959   9.805   1.347 -1.3316  0.4172  0.8237
 5153SOL    HW225929   0.916   9.892   1.216  0.3352  0.0300  0.0054
 5154SOL     OW25930   3.767   0.257   0.933  0.2843 -0.3052  0.2270
 5154SOL    HW125931   3.821   0.182   0.973 -1.2973 -1.2843  0.5870
 5154SOL    HW225932   3.701   0.289   1.001  0.2124  0.6776 -0.3055
 5155SOL     OW25933   3.685   0.970   0.481 -0.2200  0.2298  0.1917
 5155SOL    HW125934   3.587   0.960   0.498 -0.6390  0.7734 -1.7383
 5155SOL    HW225935   3.711   1.066   0.493  0.3491 -0.1234  1.9343
 5156SOL     OW25936   3.521   4.148   3.978 -0.3867  0.0363 -0.1504
 5156SOL    HW125937   3.571   4.072   4.019  0.0912  1.0070  1.1063
 5156SOL    HW225938   3.572   4.183   3.899  0.8663  0.9449  1.0518
 5157SOL     OW25939   1.230   9.259   2.387 -0.2104 -0.0388 -0.1246
 5157SOL    HW125940   1.144   9.234   2.343 -2.0561  3.5981  1.1935
 5157SOL    HW225941   1.228   9.228   2.482  0.1907 -0.4403 -0.2463
 5158SOL     OW25942   9.995   6.163   0.652 -0.0351  0.5664  0.0809
 5158SOL    HW125943   9.919   6.176   0.716 -0.1376 -0.9820  0.2717
 5158SOL    HW225944   9.959   6.144   0.561  0.1097 -2.2133  0.5819
 5159SOL     OW25945   2.617   1.342   0.402 -0.2230 -0.1384 -0.1330
 5159SOL    HW125946   2.635   1.391   0.488  0.5956  0.5753 -0.6909
 5159SOL    HW225947   2.703   1.307   0.365 -0.7414 -1.5414 -0.0210
 5160SOL     OW25948   1.316   0.716   4.029  0.5961 -0.2207 -0.1909
 5160SOL    HW125949   1.407   0.689   4.062  0.1499 -1.7802 -0.2087
 5160SOL    HW225950   1.281   0.790   4.087  2.9381  2.2109 -1.7447
 5161SOL     OW25951   7.042   7.601   2.953 -0.4446  0.1247  0.1873
 5161SOL    HW125952   6.958   7.638   2.994 -1.5396 -2.8950  0.8067
 5161SOL    HW225953   7.078   7.529   3.012  1.1958 -0.3180 -1.3448
 5162SOL     OW25954   0.387   7.907   3.710  0.1389  0.2495 -0.0419
 5162SOL    HW125955   0.352   7.854   3.787 -1.0894 -0.5868 -1.1565
 5162SOL    HW225956   0.380   8.005   3.730  0.8707  0.0310  1.3422
 5163SOL     OW25957   8.874   6.824   0.966  0.0071 -0.3963  0.2308
 5163SOL    HW125958   8.886   6.729   0.939  2.9766 -0.9902  3.2447
 5163SOL    HW225959   8.806   6.830   1.039 -0.2212 -0.1704  0.0040
 5164SOL     OW25960   6.404   8.414   2.994 -0.1214 -0.2948 -0.2065
 5164SOL    HW125961   6.345   8.483   2.952 -0.2954  0.4674  1.2459
 5164SOL    HW225962   6.347   8.341   3.032 -0.0941 -0.0006  0.4127
 5165SOL     OW25963   8.721   6.931   2.701 -0.2189 -0.0755 -0.2096
 5165SOL    HW125964   8.755   7.025   2.704 -0.2422 -0.0943  0.7893
 5165SOL    HW225965   8.653   6.917   2.773  2.4934 -1.8868  2.0980
 5166SOL     OW25966   8.348   7.677   2.676  0.1606  0.6104  0.2786
 5166SOL    HW125967   8.299   7.739   2.614  0.0714  1.1760  0.9128
 5166SOL    HW225968   8.446   7.694   2.668  0.2193 -0.0321 -0.4659
 5167SOL     OW25969   4.657   7.685   3.157 -0.1255  0.0611 -0.4264
 5167SOL    HW125970   4.680   7.738   3.075  0.1606  3.4807  1.7323
 5167SOL    HW225971   4.565   7.711   3.188  1.1353  1.4782  2.2666
 5168SOL     OW25972   0.937   3.887   3.819  0.7190  0.2038  0.1427
 5168SOL    HW125973   0.859   3.948   3.837  0.4958  0.5907 -1.8923
 5168SOL    HW225974   0.966   3.900   3.724  3.0372 -0.2101  0.7873
 5169SOL     OW25975   2.529   3.997   1.425  0.0328 -0.4774  0.1556
 5169SOL    HW125976   2.494   3.909   1.456 -0.3713 -0.2659  0.2944
 5169SOL    HW225977   2.482   4.071   1.473  1.3666 -0.2117  1.0807
 5170SOL     OW25978   5.262   6.374   2.662 -0.4879  0.0288  0.0209
 5170SOL    HW125979   5.234   6.300   2.600  0.8691  0.1173 -0.7107
 5170SOL    HW225980   5.183   6.434   2.679 -1.2089 -0.7277 -0.5757
 5171SOL     OW25981   9.290   9.201   4.698 -0.0432 -0.8159  0.4268
 5171SOL    HW125982   9.280   9.114   4.746  1.0344 -0.8156  0.6518
 5171SOL    HW225983   9.306   9.185   4.601  0.0303 -0.8615  0.4471
 5172SOL     OW25984   9.926   4.482   1.828  0.1161 -0.1940  0.1604
 5172SOL    HW125985   9.991   4.511   1.898 -0.9455  0.7582  0.7652
 5172SOL    HW225986   9.956   4.516   1.739  0.6336 -0.0695  0.3789
 5173SOL     OW25987   1.117   9.941   4.348  0.4743 -0.4314 -0.6350
 5173SOL    HW125988   1.063   9.861   4.374  0.1934  0.1823  0.7132
 5173SOL    HW225989   1.107   9.958   4.250  0.3036 -1.8658 -0.8816
 5174SOL     OW25990   2.785   7.146   2.595  0.4389 -0.3885  0.5271
 5174SOL    HW125991   2.828   7.235   2.578  0.3075 -0.2926  0.6975
 5174SOL    HW225992   2.746   7.145   2.687  2.2092 -1.3147  1.3122
 5175SOL     OW25993   1.834   7.432   3.949  0.4055  0.0383 -0.5154
 5175SOL    HW125994   1.877   7.361   4.004 -1.8586 -2.6026 -2.0336
 5175SOL    HW225995   1.869   7.428   3.855 -0.8727 -0.1049 -0.9938
 5176SOL     OW25996   3.652   0.045   2.650  0.0682  0.1382 -0.3102
 5176SOL    HW125997   3.686   0.054   2.744 -0.0528 -1.5434 -0.0860
 5176SOL    HW225998   3.724   0.068   2.586  0.6060 -0.1468  0.1875
 5177SOL     OW25999   1.723   8.916   4.190 -0.1537  0.0078  0.5878
 5177SOL    HW126000   1.715   8.972   4.107 -0.0491 -1.4911 -0.4511
 5177SOL    HW226001   1.775   8.967   4.259  1.4282  0.5270 -0.9431
 5178SOL     OW26002   2.896   0.850   4.577 -0.4386 -0.0200 -0.0511
 5178SOL    HW126003   2.885   0.915   4.502 -1.3279 -0.3397 -0.2077
 5178SOL    HW226004   2.947   0.893   4.651  0.0808  0.4372 -0.6671
 5179SOL     OW26005   3.091   7.394   2.042 -0.0389  0.1197 -0.2927
 5179SOL    HW126006   3.082   7.471   1.979  1.0120  0.2435 -0.3104
 5179SOL    HW226007   3.140   7.424   2.124 -1.4354 -0.0278  0.6123
 5180SOL     OW26008   8.149   8.516   1.818 -0.2693  0.4301 -0.1520
 5180SOL    HW126009   8.240   8.548   1.844 -1.4668  1.8959  2.4887
 5180SOL    HW226010   8.102   8.587   1.766 -0.5206  0.3527 -0.0336
 5181SOL     OW26011   3.322   6.963   3.264 -0.4471  0.0787 -0.1552
 5181SOL    HW126012   3.274   6.917   3.339 -0.8657  0.4444 -0.1964
 5181SOL    HW226013   3.368   6.894   3.207  0.5996 -0.1354  0.9280
 5182SOL     OW26014   2.538   9.572   4.078  0.1633  0.2446  0.0576
 5182SOL    HW126015   2.597   9.530   4.009 -0.3401  0.3290 -0.4260
 5182SOL    HW226016   2.457   9.517   4.092 -0.5104  1.0603 -0.5935
 5183SOL     OW26017   3.802   7.791   3.419  0.2012 -0.0174  0.2519
 5183SOL    HW126018   3.849   7.862   3.472  0.7307 -1.6285  2.0011
 5183SOL    HW226019   3.868   7.719   3.395 -0.7799 -0.9328  0.2971
 5184SOL     OW26020   1.479   9.223   1.322  0.0136  0.0241 -0.2726
 5184SOL    HW126021   1.531   9.238   1.406  0.9732  0.7237 -0.9792
 5184SOL    HW226022   1.424   9.304   1.303  1.4600  0.7570 -1.4658
 5185SOL     OW26023   3.263   9.105   0.878 -0.1309  0.1398  0.2559
 5185SOL    HW126024   3.178   9.085   0.828  0.5626  0.3154 -1.0192
 5185SOL    HW226025   3.326   9.028   0.867  0.2343  0.4192  0.4079
 5186SOL     OW26026   9.467   0.624   1.707 -0.0030  0.4147  0.1165
 5186SOL    HW126027   9.556   0.588   1.735 -0.4760 -0.6553  0.2756
 5186SOL    HW226028   9.470   0.650   1.611  0.4762  0.3986  0.1251
 5187SOL     OW26029   3.873   5.451   1.486  0.0151  0.6849  0.5554
 5187SOL    HW126030   3.869   5.372   1.424 -0.1636  2.5472 -1.8592
 5187SOL    HW226031   3.811   5.522   1.453 -0.6093  1.4619  3.2893
 5188SOL     OW26032   0.577   9.832   1.204  0.4303  0.1036 -0.8919
 5188SOL    HW126033   0.588   9.829   1.105 -3.3059  0.7777 -1.3819
 5188SOL    HW226034   0.607   9.922   1.238  0.0960  0.5041 -1.6422
 5189SOL     OW26035   8.939   8.754   0.855 -0.2760 -0.0641  0.1544
 5189SOL    HW126036   9.005   8.828   0.841  2.0238 -1.5509  2.6513
 5189SOL    HW226037   8.968   8.673   0.803 -0.8227 -0.3330  0.2629
 5190SOL     OW26038   0.410   1.090   0.133 -0.1604  0.1084  0.2443
 5190SOL    HW126039   0.312   1.071   0.122  0.1156 -1.4449  0.3829
 5190SOL    HW226040   0.453   1.016   0.185  1.1055  0.7690  0.1628
 5191SOL     OW26041   7.474   8.463   4.725  0.1697  0.2487 -0.1276
 5191SOL    HW126042   7.414   8.412   4.787 -0.4163  2.7200  1.4439
 5191SOL    HW226043   7.430   8.470   4.635 -2.2193  2.3808  1.1116
 5192SOL     OW26044   3.781   2.860   4.391 -0.4097 -0.6569 -0.0614
 5192SOL    HW126045   3.853   2.850   4.323  0.6459 -0.2327  0.9757
 5192SOL    HW226046   3.813   2.825   4.479 -1.7646 -1.2297  0.2354
 5193SOL     OW26047   2.708   3.091   4.634  0.2131  0.2753 -0.1450
 5193SOL    HW126048   2.762   3.011   4.607  0.2740 -0.0921  1.0675
 5193SOL    HW226049   2.727   3.113   4.729  0.1068  1.6748 -0.4460
 5194SOL     OW26050   0.403   7.430   3.183 -0.0312  0.0883 -0.0651
 5194SOL    HW126051   0.437   7.337   3.168 -1.0284 -0.5135  1.3028
 5194SOL    HW226052   0.469   7.481   3.239 -0.3270 -0.3763  0.7108
 5195SOL     OW26053   1.411   5.755   3.424  0.5474  0.4496  0.0339
 5195SOL    HW126054   1.382   5.676   3.369  1.0016 -1.0121  1.8362
 5195SOL    HW226055   1.504   5.780   3.400 -0.1033  1.3959 -1.5867
 5196SOL     OW26056   0.583   4.858   3.826  0.5964 -0.4554 -0.1311
 5196SOL    HW126057   0.515   4.900   3.766  0.1127 -1.0803 -0.0324
 5196SOL    HW226058   0.539   4.825   3.909  0.7662 -2.1409 -0.6935
 5197SOL     OW26059   0.001   9.679   0.903 -0.0363  0.1890  0.8341
 5197SOL    HW126060  -0.022   9.702   0.808  0.2365 -0.3596  0.6363
 5197SOL    HW226061  -0.078   9.697   0.962 -0.9065 -1.4752  0.1957
 5198SOL     OW26062   1.532   8.027   4.405 -0.3871  0.4018 -0.3470
 5198SOL    HW126063   1.446   8.031   4.354 -0.8874  1.3656  0.5331
 5198SOL    HW226064   1.576   7.939   4.389 -1.0445  0.2830 -1.5981
 5199SOL     OW26065   0.107   8.857   1.127  0.8317  0.1109 -0.3129
 5199SOL    HW126066   0.044   8.785   1.154  0.6425  0.7685  1.0936
 5199SOL    HW226067   0.192   8.817   1.093  0.7422 -0.7735  0.4949
 5200SOL     OW26068   7.086   8.549   3.144  0.2267  0.6231  0.0143
 5200SOL    HW126069   7.121   8.594   3.062 -1.4460  2.0525  0.0607
 5200SOL    HW226070   7.051   8.618   3.207 -1.3163 -0.6663  0.6117
 5201SOL     OW26071   0.724   6.352   2.717 -0.1987 -0.4004  0.1500
 5201SOL    HW126072   0.761   6.286   2.782 -1.3896 -0.3097  0.9309
 5201SOL    HW226073   0.720   6.310   2.626 -1.0750 -1.4500  0.6657
 5202SOL     OW26074   9.775   7.098   3.078  0.1688  0.0543 -0.5213
 5202SOL    HW126075   9.863   7.142   3.060 -0.1257  1.2072  0.7646
 5202SOL    HW226076   9.711   7.120   3.005  0.0676  1.6561  0.0491
 5203SOL     OW26077   8.915   0.309   1.345 -0.2085 -0.3888  0.1554
 5203SOL    HW126078   8.897   0.375   1.418 -0.0234  0.2506 -0.3696
 5203SOL    HW226079   9.013   0.306   1.325 -0.3329  0.0056 -0.5742
 5204SOL     OW26080   2.186   6.995   3.749  0.4473 -0.3253  0.8926
 5204SOL    HW126081   2.255   7.006   3.676 -0.0970 -0.9826  0.2674
 5204SOL    HW226082   2.183   7.078   3.804 -0.6088  1.0094 -1.1144
 5205SOL     OW26083   1.024   2.941   1.285  0.1988  0.3205  0.1731
 5205SOL    HW126084   0.964   2.894   1.349  0.1049  0.2687  0.0483
 5205SOL    HW226085   0.970   2.974   1.208  0.6651 -1.7477 -1.0938
 5206SOL     OW26086   0.492   5.195   3.726  0.3238 -0.0613  0.2095
 5206SOL    HW126087   0.575   5.249   3.716 -1.0485  1.9554 -0.6424
 5206SOL    HW226088   0.444   5.220   3.810 -0.7362  0.6953 -0.5933
 5207SOL     OW26089   7.498   9.427   0.005  0.0525 -0.1941  0.2635
 5207SOL    HW126090   7.448   9.487   0.068  2.5166  4.0010 -1.5913
 5207SOL    HW226091   7.450   9.425  -0.083 -0.7158 -2.0800  0.7012
 5208SOL     OW26092   2.951   3.156   2.706  0.1590 -0.0082 -0.0546
 5208SOL    HW126093   2.991   3.107   2.783  0.0660 -0.8618 -0.5472
 5208SOL    HW226094   2.968   3.254   2.716  1.0473 -0.2181  0.5217
 5209SOL     OW26095   3.164   0.902   2.077  0.0600 -0.1407  0.5363
 5209SOL    HW126096   3.109   0.900   1.993  1.2524 -0.7731 -0.2326
 5209SOL    HW226097   3.195   0.810   2.099  0.1856  0.1044  1.3969
 5210SOL     OW26098   1.211   0.667   4.426 -0.5786 -0.3169  0.0764
 5210SOL    HW126099   1.174   0.653   4.518  0.0201 -1.9528  0.0805
 5210SOL    HW226100   1.268   0.749   4.424 -0.6807 -0.2232  1.1300
 5211SOL     OW26101   9.772   8.967   3.324 -0.1721 -0.1345  0.3395
 5211SOL    HW126102   9.695   9.017   3.364  1.0562  1.4589  0.7641
 5211SOL    HW226103   9.832   9.031   3.277  1.7809 -1.1113  1.4306
 5212SOL     OW26104   3.984   4.259   3.938 -0.0121 -0.5589 -0.3128
 5212SOL    HW126105   3.912   4.216   3.883  0.2743 -0.2363 -0.9540
 5212SOL    HW226106   3.967   4.357   3.944  1.3332 -0.1824 -2.0079
 5213SOL     OW26107   0.670   1.790   4.183  0.1424  0.1782  0.5459
 5213SOL    HW126108   0.649   1.862   4.117  2.0044  1.1357  0.9455
 5213SOL    HW226109   0.588   1.735   4.201 -0.9742  1.3960 -0.7389
 5214SOL     OW26110   9.751   4.473   2.440 -0.7463 -0.3455  0.3389
 5214SOL    HW126111   9.828   4.425   2.483  0.2666 -0.3315 -1.4503
 5214SOL    HW226112   9.723   4.423   2.358 -2.3542 -0.0882  0.7198
 5215SOL     OW26113   1.613   0.222   0.112  0.7052 -0.5170  0.5623
 5215SOL    HW126114   1.710   0.201   0.125  0.8269 -0.2593  0.0886
 5215SOL    HW226115   1.586   0.200   0.018  0.5708  0.4342  0.3752
 5216SOL     OW26116   0.925   6.819   0.360  0.5732  0.2767  0.2043
 5216SOL    HW126117   0.871   6.828   0.445  1.0791  0.3718  0.5157
 5216SOL    HW226118   0.900   6.733   0.315 -1.0904  1.1249 -0.5363
 5217SOL     OW26119   3.339   9.215   3.385  0.1149 -0.5216 -0.1633
 5217SOL    HW126120   3.283   9.188   3.307 -0.3784 -1.0476  0.3635
 5217SOL    HW226121   3.435   9.218   3.358 -0.0215 -1.0060 -0.7094
 5218SOL     OW26122   3.453   5.664   2.407  0.7036 -0.2857  0.1144
 5218SOL    HW126123   3.455   5.756   2.368  0.7030 -0.4540 -0.2896
 5218SOL    HW226124   3.361   5.645   2.443  0.1015 -0.8846 -1.6662
 5219SOL     OW26125   2.825   6.258   3.436  0.1795 -0.1330  0.0774
 5219SOL    HW126126   2.829   6.171   3.386  0.1693 -1.1501  1.8218
 5219SOL    HW226127   2.918   6.290   3.455  0.2474 -1.8549  2.9590
 5220SOL     OW26128   2.213   9.504   0.190 -0.0271  0.1013 -0.1034
 5220SOL    HW126129   2.263   9.458   0.264  1.5635 -1.1192 -1.8793
 5220SOL    HW226130   2.118   9.519   0.219  0.3263 -1.1271  1.8518
 5221SOL     OW26131   0.984   3.180   2.415 -0.7086 -0.1997 -0.1218
 5221SOL    HW126132   0.952   3.086   2.417 -0.6355 -0.2121  0.5390
 5221SOL    HW226133   1.060   3.188   2.350  0.3553 -0.9452  1.0101
 5222SOL     OW26134   2.223   6.831   3.103 -0.1936 -0.7245  0.1272
 5222SOL    HW126135   2.161   6.909   3.094 -0.1357 -0.9755 -3.5671
 5222SOL    HW226136   2.174   6.752   3.138 -1.6031 -0.4633 -1.2101
 5223SOL     OW26137   7.542   8.141   3.146 -0.1039 -0.4892 -0.1592
 5223SOL    HW126138   7.464   8.161   3.088 -0.5861 -1.5081  0.1247
 5223SOL    HW226139   7.613   8.210   3.133 -0.8930  0.2113 -0.7062
 5224SOL     OW26140   0.537   9.377   0.629  0.7795 -0.7016 -0.4466
 5224SOL    HW126141   0.558   9.315   0.553  0.1956 -0.6904 -0.6197
 5224SOL    HW226142   0.609   9.446   0.636  1.4857 -1.4517 -0.1921
 5225SOL     OW26143   0.400   2.533   3.618 -0.4634  0.1315 -0.4684
 5225SOL    HW126144   0.386   2.628   3.647  0.5097  0.2539 -0.4099
 5225SOL    HW226145   0.391   2.472   3.697  1.9047  0.4384  0.0664
 5226SOL     OW26146   9.167   6.731   1.710  0.4434  0.4037 -0.5246
 5226SOL    HW126147   9.104   6.743   1.634 -0.8446 -0.3261  0.4125
 5226SOL    HW226148   9.117   6.738   1.796  1.9458  1.5957  0.2762
 5227SOL     OW26149   2.566   3.694   0.975  0.4178  0.0943 -0.7943
 5227SOL    HW126150   2.474   3.731   0.963 -0.6999 -2.1200  0.6691
 5227SOL    HW226151   2.578   3.615   0.914  1.1572  0.0419 -0.5821
 5228SOL     OW26152   2.340   6.131   0.805  1.0748 -0.2137 -0.1987
 5228SOL    HW126153   2.400   6.169   0.876 -0.4153  0.7748  0.5525
 5228SOL    HW226154   2.270   6.073   0.848  0.5316 -0.0864 -0.9118
 5229SOL     OW26155   9.753   4.602   0.834 -0.0708 -0.4095  0.1078
 5229SOL    HW126156   9.735   4.541   0.911  1.5507  0.5292  1.2659
 5229SOL    HW226157   9.795   4.686   0.868  0.5330  0.0769 -1.7969
 5230SOL     OW26158   4.260   2.725   1.169  0.5864  0.0658 -0.2328
 5230SOL    HW126159   4.360   2.732   1.163  0.6594 -1.4853 -1.2019
 5230SOL    HW226160   4.222   2.811   1.203  2.3280  0.3119  1.1320
 5231SOL     OW26161   0.804   8.436   3.626 -0.4307 -0.2003  0.2751
 5231SOL    HW126162   0.712   8.445   3.586 -1.2507 -0.8012  1.9574
 5231SOL    HW226163   0.819   8.510   3.691  0.2477 -0.1629  0.0730
 5232SOL     OW26164   5.397   0.035   3.646  0.8981 -0.2966 -0.3064
 5232SOL    HW126165   5.465   0.066   3.712  1.6103 -1.9182 -0.2576
 5232SOL    HW226166   5.420   0.068   3.555 -0.1148  1.9945  0.2441
 5233SOL     OW26167   9.894   4.842   2.611 -0.2704 -0.4445 -0.0413
 5233SOL    HW126168   9.903   4.817   2.514  0.8349  0.2124 -0.1240
 5233SOL    HW226169   9.946   4.777   2.667 -2.0491 -1.6526  0.2510
 5234SOL     OW26170   1.342   2.808   1.551  0.3716  0.3628 -0.5176
 5234SOL    HW126171   1.403   2.880   1.585  3.0273 -2.4098  0.8452
 5234SOL    HW226172   1.318   2.827   1.456  1.1932  2.9048 -0.2628
 5235SOL     OW26173   8.677   6.890   2.431  0.3687 -0.3166 -0.2009
 5235SOL    HW126174   8.617   6.813   2.409 -0.7675  0.1267  1.2553
 5235SOL    HW226175   8.667   6.914   2.528  2.6080  0.0269 -0.0217
 5236SOL     OW26176   2.093   2.129   0.410 -0.2223 -0.2069 -0.0074
 5236SOL    HW126177   2.054   2.037   0.408 -0.5409 -0.1167  1.3462
 5236SOL    HW226178   2.123   2.150   0.503 -0.0303  1.0044 -0.3387
 5237SOL     OW26179   0.250   1.943   0.561 -0.3534  0.0270  0.2614
 5237SOL    HW126180   0.157   1.928   0.526 -1.0625 -0.8630  2.4379
 5237SOL    HW226181   0.262   2.039   0.585 -1.1499 -0.0843  1.1333
 5238SOL     OW26182   1.676   7.550   3.712 -0.4782  0.1417  0.1278
 5238SOL    HW126183   1.744   7.482   3.685  0.1299  0.6607  0.3459
 5238SOL    HW226184   1.722   7.633   3.743 -1.2001  0.2885  0.8292
 5239SOL     OW26185   4.119   9.784   3.088  0.0774  0.1201 -0.0452
 5239SOL    HW126186   4.088   9.795   2.993 -1.1902 -0.8201  0.2500
 5239SOL    HW226187   4.072   9.850   3.146 -1.3000 -1.2032  0.3767
 5240SOL     OW26188   9.897   0.358   2.902  0.0603  0.0148 -0.4698
 5240SOL    HW126189   9.817   0.346   2.842 -0.5022 -2.2705  0.7034
 5240SOL    HW226190   9.875   0.325   2.994  1.9061  0.7107  0.2373
 5241SOL     OW26191   2.743   0.470   0.832 -0.1373  0.4189 -0.9467
 5241SOL    HW126192   2.667   0.505   0.888 -0.1296 -1.6188  0.3810
 5241SOL    HW226193   2.829   0.481   0.882 -0.1350 -1.4621 -0.5306
 5242SOL     OW26194   4.172   0.017   1.016  0.1772  0.5396 -0.2928
 5242SOL    HW126195   4.191  -0.024   0.927 -1.2430 -1.0708  0.1280
 5242SOL    HW226196   4.076   0.005   1.039  0.8581 -0.5611  2.2009
 5243SOL     OW26197   2.153   7.009   2.713 -0.4991  0.2494  0.1734
 5243SOL    HW126198   2.150   7.066   2.631  1.2356  1.8826  1.2015
 5243SOL    HW226199   2.062   6.972   2.732 -0.9003 -0.2568 -2.5338
 5244SOL     OW26200   3.769   1.781   3.513 -0.0598 -0.0501 -0.0560
 5244SOL    HW126201   3.715   1.850   3.465  1.0805  2.1728  1.7653
 5244SOL    HW226202   3.757   1.792   3.611  1.7566 -1.1287  0.3063
 5245SOL     OW26203   3.987   0.308   1.313  0.3402 -0.0195  0.1822
 5245SOL    HW126204   3.995   0.406   1.330  0.9199 -0.1692  0.8004
 5245SOL    HW226205   3.953   0.292   1.220  3.2858  0.7237 -1.0772
 5246SOL     OW26206   8.594   9.911   3.637 -0.1786  0.3089 -0.3432
 5246SOL    HW126207   8.520   9.906   3.703  2.1048  1.6894  2.4478
 5246SOL    HW226208   8.623  10.006   3.627  0.4867 -0.0728 -2.2513
 5247SOL     OW26209   8.479   6.770   0.672  0.3061 -0.6549 -0.8387
 5247SOL    HW126210   8.482   6.716   0.756  0.8050 -1.0424 -1.1011
 5247SOL    HW226211   8.384   6.789   0.648  0.1689 -0.3525 -0.0677
 5248SOL     OW26212   1.660   5.555   2.174 -0.0590 -0.0864  0.6212
 5248SOL    HW126213   1.711   5.471   2.153 -0.0464 -0.8991  3.6267
 5248SOL    HW226214   1.627   5.596   2.089  1.2514 -2.2887 -1.0189
 5249SOL     OW26215   4.284   4.170   0.278  0.2900  0.2842  0.4360
 5249SOL    HW126216   4.334   4.231   0.217 -1.0606  2.1865  1.1626
 5249SOL    HW226217   4.299   4.075   0.251  0.3694  1.0397 -2.3418
 5250SOL     OW26218   3.289   7.263   4.174  0.0098 -0.0043 -0.4822
 5250SOL    HW126219   3.332   7.300   4.092  1.8555 -1.0971 -0.0381
 5250SOL    HW226220   3.359   7.226   4.235 -1.3653  0.4537  1.4318
 5251SOL     OW26221   0.683   4.973   4.522  0.6200  0.0547 -0.0782
 5251SOL    HW126222   0.767   4.936   4.484  0.0695  0.3128 -1.6195
 5251SOL    HW226223   0.703   5.056   4.574  1.5976 -1.2342  1.6449
 5252SOL     OW26224   3.181   7.233   0.105 -0.2177  0.2172 -0.2924
 5252SOL    HW126225   3.269   7.186   0.098  0.5092  1.4122  0.7220
 5252SOL    HW226226   3.192   7.329   0.078 -1.0683  0.5349  0.4711
 5253SOL     OW26227   3.595   1.437   0.098  0.4633  0.1775 -0.1934
 5253SOL    HW126228   3.523   1.399   0.039 -0.0519 -0.2780  0.7249
 5253SOL    HW226229   3.685   1.414   0.059  0.1922 -2.6567  0.7271
 5254SOL     OW26230   8.497   7.413   2.492 -0.7303 -0.5519  0.2078
 5254SOL    HW126231   8.551   7.376   2.417 -2.2620  0.6723 -1.5420
 5254SOL    HW226232   8.419   7.354   2.511 -1.3547  0.0679 -0.3948
 5255SOL     OW26233   9.780   4.732   3.081  0.3833 -0.3897  0.0459
 5255SOL    HW126234   9.683   4.709   3.077 -0.6948  3.7061  0.0414
 5255SOL    HW226235   9.832   4.670   3.023 -2.3802 -1.9288 -0.8793
 5256SOL     OW26236   2.333   0.945   2.602  0.4379 -0.1057 -0.1264
 5256SOL    HW126237   2.416   1.002   2.609  0.1942  0.2834 -0.3644
 5256SOL    HW226238   2.359   0.850   2.585  0.9619 -0.5525  2.8894
 5257SOL     OW26239   0.068   4.971   0.731  0.6793 -0.0325  0.1698
 5257SOL    HW126240   0.014   5.014   0.659 -0.0020 -0.9443  0.1414
 5257SOL    HW226241   0.122   5.042   0.778  0.1865  0.7400 -0.4139
 5258SOL     OW26242   1.973   3.484   4.674 -0.1277 -0.1410 -0.0634
 5258SOL    HW126243   2.035   3.556   4.704  0.8718 -0.5068 -1.2086
 5258SOL    HW226244   1.965   3.415   4.746  1.6738 -0.6393 -0.3006
 5259SOL     OW26245   0.866   7.925   4.100  0.3035 -0.1227  0.2637
 5259SOL    HW126246   0.783   7.969   4.065  0.8280  1.4648  0.9901
 5259SOL    HW226247   0.843   7.833   4.133 -1.3911  0.6710  1.3973
 5260SOL     OW26248   2.353   8.668   2.272  0.3765  0.5112  0.2884
 5260SOL    HW126249   2.351   8.740   2.342  0.2027  0.4862  0.3089
 5260SOL    HW226250   2.291   8.692   2.197  2.0185  1.4848 -0.7994
 5261SOL     OW26251   4.597   0.157   2.683  0.1051  0.0928  0.3893
 5261SOL    HW126252   4.672   0.199   2.733  0.5200  0.7125 -0.7264
 5261SOL    HW226253   4.510   0.183   2.725  0.3611  2.0105 -0.2015
 5262SOL     OW26254   8.922   9.708   4.276 -0.1398 -0.1028  0.3579
 5262SOL    HW126255   8.855   9.662   4.335  0.0142 -0.8904 -0.0786
 5262SOL    HW226256   8.952   9.792   4.321 -0.7209 -0.2182  0.9844
 5263SOL     OW26257   8.415   9.224   1.297 -0.2737  0.6760  0.1184
 5263SOL    HW126258   8.347   9.259   1.232 -0.7162 -0.2191  0.0877
 5263SOL    HW226259   8.472   9.155   1.251 -1.0928 -0.5342  0.8728
 5264SOL     OW26260   2.080   4.497   0.789 -0.2335 -0.2708 -0.0993
 5264SOL    HW126261   2.112   4.590   0.769 -1.0963 -0.0364 -0.3845
 5264SOL    HW226262   2.158   4.442   0.821  0.2978  0.5211 -0.0013
 5265SOL     OW26263   7.240   8.894   2.457 -0.3766 -0.0968 -0.2431
 5265SOL    HW126264   7.230   8.795   2.467  3.4611 -0.6708 -0.9273
 5265SOL    HW226265   7.202   8.923   2.370 -0.6363 -1.1509 -0.4867
 5266SOL     OW26266   7.270   9.244   4.212  0.0747  0.3128  0.1541
 5266SOL    HW126267   7.366   9.222   4.225  0.2963  1.8323  1.1720
 5266SOL    HW226268   7.226   9.259   4.301 -0.5738  1.7960 -0.3942
 5267SOL     OW26269   9.995   8.603   1.223 -0.4058 -0.0636  0.3185
 5267SOL    HW126270   9.926   8.580   1.154 -0.9576 -1.1720  1.2247
 5267SOL    HW226271  10.054   8.524   1.238  0.5863  0.6275  0.1248
 5268SOL     OW26272   1.426   3.271   2.683  0.8857 -0.2164 -0.2289
 5268SOL    HW126273   1.424   3.177   2.648 -1.1347 -0.8045  1.4132
 5268SOL    HW226274   1.438   3.269   2.782 -0.4837  1.2157 -0.0241
 5269SOL     OW26275   3.981   6.907   2.762  0.0880 -0.2666 -0.0192
 5269SOL    HW126276   4.000   6.903   2.860 -2.3162 -1.7504  0.4425
 5269SOL    HW226277   3.972   7.002   2.733  2.2084  0.2360  0.8772
 5270SOL     OW26278   3.871   3.909   0.634 -0.0894  0.1083 -0.6730
 5270SOL    HW126279   3.904   3.967   0.560 -0.1720 -1.3629 -1.9008
 5270SOL    HW226280   3.778   3.937   0.660  0.5662  1.6781  0.0233
 5271SOL     OW26281   9.785   1.851   1.656  0.1302 -0.1862 -0.6621
 5271SOL    HW126282   9.847   1.918   1.615  0.4244 -0.5363 -0.7996
 5271SOL    HW226283   9.691   1.882   1.647  0.3887  1.1575  1.0601
 5272SOL     OW26284   7.336   7.937   1.654 -0.0235  0.2107 -0.2050
 5272SOL    HW126285   7.371   8.030   1.644  0.1421  0.0758 -0.9410
 5272SOL    HW226286   7.236   7.938   1.654 -0.0249  0.3542 -0.6572
 5273SOL     OW26287   0.997   6.985   4.603 -0.4448  0.0189 -0.2042
 5273SOL    HW126288   1.020   7.013   4.510 -1.2394  1.7278  0.0872
 5273SOL    HW226289   1.063   6.918   4.636  0.4503  0.2085 -1.6148
 5274SOL     OW26290   7.602   6.479   2.456  0.4865 -0.3375  0.3154
 5274SOL    HW126291   7.601   6.399   2.396 -0.4905  0.1380 -0.3291
 5274SOL    HW226292   7.692   6.522   2.454  1.4309 -2.1971  1.7279
 5275SOL     OW26293   2.737   3.045   2.844 -0.5017 -0.2217 -0.5693
 5275SOL    HW126294   2.765   3.059   2.750  0.6726  0.2966 -0.1479
 5275SOL    HW226295   2.805   2.988   2.891 -1.8346 -1.7503 -0.4350
 5276SOL     OW26296   5.433   7.909   2.348 -0.6951  0.1958  0.1936
 5276SOL    HW126297   5.370   7.987   2.353  0.6814  1.3818 -0.5907
 5276SOL    HW226298   5.488   7.915   2.265 -1.2352 -2.1529 -0.3751
 5277SOL     OW26299   8.510   8.260   2.550 -0.0642 -0.0500  0.8200
 5277SOL    HW126300   8.478   8.285   2.459  0.7277  0.2218  0.6068
 5277SOL    HW226301   8.450   8.299   2.619 -1.5061 -1.4755  0.3907
 5278SOL     OW26302   9.204   7.509   0.898  0.8456  0.2539  0.7068
 5278SOL    HW126303   9.150   7.502   0.815 -0.4373 -0.5389  1.5768
 5278SOL    HW226304   9.239   7.418   0.923  0.9527  0.4261  1.1969
 5279SOL     OW26305   9.917   7.515   0.802  0.1115  0.8329 -0.0928
 5279SOL    HW126306  10.003   7.529   0.752 -0.5047  1.1889 -1.0675
 5279SOL    HW226307   9.861   7.448   0.753 -0.2910  0.8145  0.3929
 5280SOL     OW26308   9.852   9.549   3.823  0.1765 -0.4698  0.2195
 5280SOL    HW126309   9.937   9.600   3.810  0.5651 -0.9926  0.6679
 5280SOL    HW226310   9.821   9.512   3.736 -0.4969  1.1341 -0.2406
 5281SOL     OW26311   2.030   8.305   2.802 -0.0022  0.1574  0.2536
 5281SOL    HW126312   2.036   8.392   2.752 -2.7257  1.3957  1.9232
 5281SOL    HW226313   2.107   8.247   2.777  0.5402  2.0509 -2.7923
 5282SOL     OW26314   2.965   4.414   3.359  0.7654 -0.0315  0.2799
 5282SOL    HW126315   2.920   4.500   3.334 -2.1000 -1.4379  0.4192
 5282SOL    HW226316   2.957   4.401   3.458  1.2520 -0.4116  0.2671
 5283SOL     OW26317   1.395   4.620   0.984  0.1068 -0.0546  0.0057
 5283SOL    HW126318   1.393   4.639   0.886 -0.7650 -1.1883 -0.2146
 5283SOL    HW226319   1.368   4.525   1.000 -0.1992  0.2456  1.3774
 5284SOL     OW26320   6.440   9.361   1.454  0.2107  0.9612 -0.3163
 5284SOL    HW126321   6.539   9.351   1.468 -0.1196 -1.6076  0.4524
 5284SOL    HW226322   6.419   9.349   1.357  0.5656  0.6004 -0.3538
 5285SOL     OW26323   2.056   9.438   3.510  0.0311 -0.4183  0.1335
 5285SOL    HW126324   2.045   9.385   3.594  0.5463  0.8616  1.0256
 5285SOL    HW226325   2.005   9.395   3.436 -1.0835 -1.1195  1.2980
 5286SOL     OW26326   4.392   0.343   3.414  0.5561  0.2985 -0.4052
 5286SOL    HW126327   4.400   0.309   3.507  0.1996 -0.2570 -0.5769
 5286SOL    HW226328   4.437   0.432   3.407  2.1325 -0.4589 -0.1313
 5287SOL     OW26329   9.882   9.699   4.761 -0.3867  0.5051 -0.1497
 5287SOL    HW126330   9.952   9.660   4.821  1.6062  0.8455 -2.1782
 5287SOL    HW226331   9.812   9.744   4.817 -0.5146 -2.2835  2.0311
 5288SOL     OW26332   8.332   7.108   2.092 -0.1444  0.1212  0.0298
 5288SOL    HW126333   8.312   7.011   2.103  0.4321  0.1800  1.6545
 5288SOL    HW226334   8.423   7.128   2.127 -1.3544  1.7505  2.4141
 5289SOL     OW26335   9.895   7.669   1.031  0.4538  0.1965 -0.0921
 5289SOL    HW126336   9.908   7.621   0.944  0.2785  1.2616 -0.7127
 5289SOL    HW226337   9.901   7.604   1.106 -2.4432 -1.2970 -1.0662
 5290SOL     OW26338   4.055   1.560   1.458 -0.0864 -0.1966 -0.0998
 5290SOL    HW126339   3.961   1.592   1.468  0.8309  2.0019  2.1532
 5290SOL    HW226340   4.103   1.617   1.392  0.1868 -0.0836  0.1928
 5291SOL     OW26341   2.563   1.514   4.539 -0.2800 -0.3223  0.1549
 5291SOL    HW126342   2.604   1.533   4.628 -0.7280 -0.3376  0.3685
 5291SOL    HW226343   2.463   1.517   4.547 -0.3233  0.4438 -0.5016
 5292SOL     OW26344   6.887   9.326   4.424  0.3599 -0.8407 -0.9987
 5292SOL    HW126345   6.930   9.374   4.500  0.7395  0.0530 -1.7740
 5292SOL    HW226346   6.830   9.389   4.372 -1.5932 -1.9316 -0.2109
 5293SOL     OW26347   2.706   4.521   2.210 -0.4034  0.6851  0.1569
 5293SOL    HW126348   2.773   4.595   2.206  1.8152 -1.1362  2.1211
 5293SOL    HW226349   2.713   4.473   2.297 -2.2852 -1.4102 -0.7625
 5294SOL     OW26350   2.140   0.445   2.130  0.5514 -0.2245 -0.1262
 5294SOL    HW126351   2.138   0.442   2.229 -1.8516  1.0291 -0.1096
 5294SOL    HW226352   2.185   0.363   2.095  2.7888  0.0331  1.9996
 5295SOL     OW26353   2.043   4.316   2.016  0.1499  0.0649  0.4234
 5295SOL    HW126354   2.070   4.362   1.931 -0.1145 -0.9154 -0.1932
 5295SOL    HW226355   2.088   4.361   2.093  0.4627  0.9064 -0.2369
 5296SOL     OW26356   0.913   6.684   4.683  0.5743 -0.4292  0.1008
 5296SOL    HW126357   0.984   6.635   4.733  0.5610 -2.4068 -1.7690
 5296SOL    HW226358   0.947   6.708   4.592  0.2821  2.3326  0.6797
 5297SOL     OW26359   6.789   9.784   3.996 -0.3577 -0.6625  0.0752
 5297SOL    HW126360   6.827   9.692   3.996 -0.2841 -0.7184  3.5196
 5297SOL    HW226361   6.861   9.850   4.017 -0.1947  0.3493 -3.3856
 5298SOL     OW26362   0.971   6.355   0.555 -0.0758  0.3917 -0.3531
 5298SOL    HW126363   0.896   6.291   0.538  1.1995 -0.9864 -0.8954
 5298SOL    HW226364   0.959   6.396   0.645 -0.2156 -1.6583  0.6036
 5299SOL     OW26365   3.272   4.340   2.199  0.0564 -1.0730  0.1837
 5299SOL    HW126366   3.306   4.261   2.250 -3.2832 -2.2361  0.7301
 5299SOL    HW226367   3.203   4.388   2.253  0.6450  1.1141 -0.9364
 5300SOL     OW26368   3.050   3.648   1.526  0.2793 -0.0103  0.3274
 5300SOL    HW126369   2.974   3.687   1.474 -0.1061 -1.8299 -0.5004
 5300SOL    HW226370   3.134   3.656   1.472 -0.0017 -1.2984 -0.3259
 5301SOL     OW26371   2.027   5.101   1.224  0.1922 -0.0759  0.9263
 5301SOL    HW126372   2.111   5.062   1.263  1.0114 -1.0793 -1.7334
 5301SOL    HW226373   2.039   5.200   1.212  0.2787  0.0905  2.2664
 5302SOL     OW26374   2.337   2.761   3.357  0.1269 -0.3327  0.4448
 5302SOL    HW126375   2.362   2.727   3.448 -1.8788 -2.6823  0.1646
 5302SOL    HW226376   2.243   2.796   3.359  0.9961  2.1125 -0.1085
 5303SOL     OW26377   9.640   0.079   3.029  0.8380  0.3497  0.7370
 5303SOL    HW126378   9.646   0.059   3.127  0.9920 -0.3431  0.5938
 5303SOL    HW226379   9.559   0.134   3.011  0.3672 -0.1931  1.1547
 5304SOL     OW26380   3.081   5.302   4.725 -0.3687 -0.1662 -0.1333
 5304SOL    HW126381   2.982   5.309   4.712 -0.1420 -0.4184 -2.1199
 5304SOL    HW226382   3.128   5.332   4.642  1.2119 -1.0347  0.4247
 5305SOL     OW26383   3.244   4.812   3.024 -0.1709 -0.0584 -0.1321
 5305SOL    HW126384   3.299   4.850   3.098  0.1120 -0.4753 -0.1232
 5305SOL    HW226385   3.291   4.827   2.937 -0.3544  0.1604 -0.1917
 5306SOL     OW26386   1.992   3.629   1.801 -0.1915  0.1553 -0.2712
 5306SOL    HW126387   2.087   3.637   1.832 -0.3381 -0.6313  0.4045
 5306SOL    HW226388   1.933   3.613   1.880 -0.9338  0.9647 -0.6537
 5307SOL     OW26389   9.747   6.811   2.533 -0.0843  0.0226  0.4631
 5307SOL    HW126390   9.703   6.881   2.477 -0.1602 -0.4865 -0.1121
 5307SOL    HW226391   9.709   6.814   2.626  0.0678  0.8839  0.4973
 5308SOL     OW26392   1.327   7.584   0.259  0.2643 -0.4352  0.5083
 5308SOL    HW126393   1.383   7.666   0.272  1.1936 -1.2659  1.9400
 5308SOL    HW226394   1.385   7.509   0.229 -0.4736 -0.7358 -0.1807
 5309SOL     OW26395   7.901   5.821   2.382 -0.1302 -0.5074 -0.4449
 5309SOL    HW126396   7.925   5.778   2.469  1.4106  1.5635  0.1970
 5309SOL    HW226397   7.818   5.876   2.395  1.1748  1.3727  0.2877
 5310SOL     OW26398   0.358   9.990   2.084  0.4034 -0.1996 -0.8187
 5310SOL    HW126399   0.405   9.934   2.016  1.0130  0.9518 -1.3662
 5310SOL    HW226400   0.341  10.081   2.046  0.1874  0.2511  0.3475
 5311SOL     OW26401   2.957   5.647   0.307 -0.0285 -0.1132  0.1121
 5311SOL    HW126402   3.003   5.680   0.225  0.3857 -1.5964 -0.2646
 5311SOL    HW226403   2.933   5.725   0.366  1.9257  0.7674 -0.2295
 5312SOL     OW26404   4.277   1.938   2.862 -0.1408 -0.8223  0.3143
 5312SOL    HW126405   4.312   1.944   2.768  0.1431 -1.9085  0.3361
 5312SOL    HW226406   4.279   1.842   2.891 -0.0991 -0.4705  1.4807
 5313SOL     OW26407   3.881   8.750   3.512  0.2960  0.1131  0.2591
 5313SOL    HW126408   3.920   8.757   3.420  1.4949  3.1051  0.9296
 5313SOL    HW226409   3.783   8.734   3.506  0.4046  0.0504 -1.5500
 5314SOL     OW26410   7.090   7.788   1.576  0.1904 -0.0443  0.2814
 5314SOL    HW126411   7.154   7.813   1.504  1.3489 -1.4349  0.7966
 5314SOL    HW226412   7.046   7.701   1.552 -1.3245  0.7777  0.0463
 5315SOL     OW26413   3.523   5.444   2.590 -0.7427 -0.0970 -0.6869
 5315SOL    HW126414   3.512   5.519   2.525  1.8727  0.3388 -0.6882
 5315SOL    HW226415   3.597   5.385   2.560  0.1291 -0.2045  1.5891
 5316SOL     OW26416   0.148   6.228   1.248 -0.3999 -1.2427 -0.0374
 5316SOL    HW126417   0.216   6.161   1.219  0.6424  0.2361 -1.1188
 5316SOL    HW226418   0.179   6.273   1.331  0.9595  0.8380 -1.6154
 5317SOL     OW26419   2.674   8.032   3.076 -0.7263  0.1992  0.0392
 5317SOL    HW126420   2.596   7.970   3.086 -0.0775 -0.2002  3.2414
 5317SOL    HW226421   2.740   7.993   3.012 -1.3264 -1.3970  0.3667
 5318SOL     OW26422   0.892   3.767   0.062  0.2056  0.0460  0.3515
 5318SOL    HW126423   0.939   3.710  -0.005 -0.7524  0.5358 -0.7611
 5318SOL    HW226424   0.958   3.827   0.107  1.3643 -2.5097  2.1565
 5319SOL     OW26425   3.958   9.525   2.600 -0.5690 -0.3671 -0.6188
 5319SOL    HW126426   3.970   9.624   2.592  3.5480 -0.7320 -0.0014
 5319SOL    HW226427   3.864   9.501   2.573 -1.2987  3.5184 -1.9707
 5320SOL     OW26428   0.814   1.520   0.080 -0.3329 -0.2565  0.0850
 5320SOL    HW126429   0.716   1.539   0.080  0.2365  2.8574 -1.4772
 5320SOL    HW226430   0.840   1.479  -0.007  0.0936  0.7490 -0.2591
 5321SOL     OW26431   2.158   7.461   1.933  0.1359  0.4724 -0.2231
 5321SOL    HW126432   2.060   7.450   1.919  0.2447 -0.2019 -0.4990
 5321SOL    HW226433   2.201   7.370   1.939  0.7882  0.7629 -0.4346
 5322SOL     OW26434   8.771   7.528   4.739  0.1581 -0.0547  1.2152
 5322SOL    HW126435   8.770   7.452   4.675  0.4804  0.8421  0.1441
 5322SOL    HW226436   8.859   7.531   4.787  0.8298  0.7109 -0.0365
 5323SOL     OW26437   2.978   7.801   1.004 -0.2906 -0.0268 -0.0769
 5323SOL    HW126438   3.035   7.756   0.935 -0.9696 -1.5062  0.3009
 5323SOL    HW226439   2.952   7.735   1.074  0.1420  1.3871  1.4464
 5324SOL     OW26440   6.776   9.659   3.695 -0.4985  0.0094 -0.5316
 5324SOL    HW126441   6.808   9.723   3.625  0.3003 -0.0216 -0.2057
 5324SOL    HW226442   6.755   9.709   3.779 -1.9154  0.1061 -0.9386
 5325SOL     OW26443   6.992   0.320   3.668 -0.0557  0.1126  0.3649
 5325SOL    HW126444   6.896   0.333   3.690 -0.0437  0.3323  0.2906
 5325SOL    HW226445   7.046   0.318   3.753 -0.0459  0.6578  0.3743
 5326SOL     OW26446   8.595   6.510   0.035 -0.5897 -0.6715  0.1654
 5326SOL    HW126447   8.655   6.441   0.075  0.3162 -0.8968 -1.5231
 5326SOL    HW226448   8.511   6.468   0.003 -0.0227 -1.0255 -0.8966
 5327SOL     OW26449   8.345   6.641   3.418  0.4253 -0.2301  0.0588
 5327SOL    HW126450   8.402   6.586   3.358 -2.8162 -1.6151 -1.8468
 5327SOL    HW226451   8.267   6.587   3.450 -0.5777  1.9951  1.5505
 5328SOL     OW26452   3.018   2.040   4.071 -0.0192 -0.3616  0.4227
 5328SOL    HW126453   3.012   2.136   4.096  0.2684 -0.2810  0.1892
 5328SOL    HW226454   3.006   1.983   4.152  0.3946 -0.1133  0.6575
 5329SOL     OW26455   1.849   4.841   0.132  0.3032  0.0348  0.0053
 5329SOL    HW126456   1.853   4.872   0.227  1.2623 -0.1755  0.0381
 5329SOL    HW226457   1.935   4.797   0.108 -0.1483 -0.4177 -0.7934
 5330SOL     OW26458   7.396   6.726   2.686  0.1847  0.4610  0.4720
 5330SOL    HW126459   7.364   6.814   2.650 -0.2163  0.5932  1.1458
 5330SOL    HW226460   7.334   6.654   2.655  0.4843  0.4160 -0.0370
 5331SOL     OW26461   0.596   3.535   0.364 -0.2381 -0.3952  0.1322
 5331SOL    HW126462   0.626   3.565   0.455  0.0135 -0.7249  0.1565
 5331SOL    HW226463   0.550   3.611   0.318  1.6049  0.4847 -0.3393
 5332SOL     OW26464   3.247   1.902   0.889 -0.4143  0.8680 -0.0888
 5332SOL    HW126465   3.148   1.908   0.902 -0.3404 -0.5551  1.1702
 5332SOL    HW226466   3.293   1.952   0.962 -0.1450 -1.4893  1.3950
 5333SOL     OW26467   6.880   9.241   3.384 -0.0913 -0.2140  0.2399
 5333SOL    HW126468   6.820   9.320   3.402 -1.6970 -1.0641 -1.2993
 5333SOL    HW226469   6.971   9.274   3.358 -0.6195  1.1282  0.0471
 5334SOL     OW26470   3.534   7.739   1.730 -0.5374 -0.1107  0.2224
 5334SOL    HW126471   3.582   7.714   1.815 -1.0379 -1.7770  0.0301
 5334SOL    HW226472   3.494   7.830   1.741  0.9695  0.4816  1.1031
 5335SOL     OW26473   7.437   8.468   4.425  0.0475  0.4649 -0.3578
 5335SOL    HW126474   7.514   8.411   4.397 -1.6011 -1.5429 -0.8984
 5335SOL    HW226475   7.418   8.536   4.354 -0.7476 -1.1636 -1.7379
 5336SOL     OW26476   9.834   0.505   0.493  0.3675 -0.0423 -0.3589
 5336SOL    HW126477   9.904   0.471   0.430 -1.1226 -2.3308 -0.8499
 5336SOL    HW226478   9.817   0.602   0.476  1.0248 -0.2830 -2.4851
 5337SOL     OW26479   3.222   5.409   2.952  0.0829  0.3847 -0.3268
 5337SOL    HW126480   3.313   5.395   2.914  0.3671  0.3047  0.3706
 5337SOL    HW226481   3.164   5.330   2.932 -0.0149  0.6914 -1.2800
 5338SOL     OW26482   2.213   6.938   1.280  0.1114  0.3371 -0.0091
 5338SOL    HW126483   2.258   6.864   1.230  0.8425  0.8787 -0.1654
 5338SOL    HW226484   2.114   6.933   1.264 -0.3145 -2.8920  3.0406
 5339SOL     OW26485   1.783   6.855   2.479 -0.0722  0.0616  0.2245
 5339SOL    HW126486   1.792   6.954   2.472 -0.0158  0.2557  2.7915
 5339SOL    HW226487   1.818   6.813   2.395 -0.9164  2.2282 -1.2675
 5340SOL     OW26488   2.356   5.150   1.508 -0.0226  0.3303 -0.3835
 5340SOL    HW126489   2.382   5.112   1.597 -0.3539 -0.0621 -0.4532
 5340SOL    HW226490   2.294   5.087   1.462 -0.5939  0.9614 -0.4862
 5341SOL     OW26491   2.227   7.591   4.241  0.1334  0.3074  0.2775
 5341SOL    HW126492   2.310   7.626   4.197  0.7889  0.3460  1.5203
 5341SOL    HW226493   2.159   7.664   4.247 -0.8465 -0.3191 -2.7808
 5342SOL     OW26494   3.522   7.435   4.631 -0.1472  0.6460  0.5743
 5342SOL    HW126495   3.454   7.365   4.608 -0.3867  0.8198  0.7520
 5342SOL    HW226496   3.587   7.397   4.698 -0.9389  0.9458  1.5323
 5343SOL     OW26497   2.149   4.181   1.732 -0.0326  0.1866 -0.2044
 5343SOL    HW126498   2.089   4.260   1.717 -1.1249 -0.5480  0.2868
 5343SOL    HW226499   2.099   4.097   1.713  0.7429 -0.4547  0.5456
 5344SOL     OW26500   1.108   3.853   2.744  0.0651 -0.0130  0.6041
 5344SOL    HW126501   1.182   3.920   2.736  0.7840 -0.6558  1.6184
 5344SOL    HW226502   1.021   3.900   2.758  0.0488  0.8039 -2.0789
 5345SOL     OW26503   6.209   8.592   2.911 -0.3975 -0.0386  0.0560
 5345SOL    HW126504   6.248   8.683   2.924 -0.2628  0.1085 -1.3053
 5345SOL    HW226505   6.145   8.594   2.835  1.4433 -1.6254 -1.5756
 5346SOL     OW26506   7.853   0.462   2.017 -0.0412  0.6666  0.1248
 5346SOL    HW126507   7.798   0.460   2.101  1.4671 -0.6381  1.1026
 5346SOL    HW226508   7.939   0.510   2.035  1.3271 -1.6538  0.0109
 5347SOL     OW26509   7.470   8.396   4.050  0.5425 -0.2271  0.3765
 5347SOL    HW126510   7.486   8.431   3.958  1.2877  0.3007  0.6963
 5347SOL    HW226511   7.377   8.360   4.057  0.1625  0.6003 -0.3099
 5348SOL     OW26512   2.322   7.694   3.239  0.9301 -0.1527  0.3656
 5348SOL    HW126513   2.289   7.608   3.200  0.7892 -0.1115  0.3906
 5348SOL    HW226514   2.328   7.763   3.167 -0.0789  0.1429  0.5480
 5349SOL     OW26515   1.870   0.524   0.991 -0.6080  0.1772 -0.0124
 5349SOL    HW126516   1.773   0.549   0.980 -0.7020  0.0003  0.4184
 5349SOL    HW226517   1.879   0.457   1.064 -0.1514  0.2195 -0.0302
 5350SOL     OW26518   0.788   9.551   1.017 -0.0143 -0.0480  0.1254
 5350SOL    HW126519   0.729   9.491   1.070 -0.5888 -0.2690 -0.7572
 5350SOL    HW226520   0.828   9.500   0.941 -0.6792  0.7226 -0.7585
 5351SOL     OW26521   0.640   9.177   4.776 -0.2960  0.1275  0.0956
 5351SOL    HW126522   0.625   9.179   4.677 -0.0314  0.5387  0.0597
 5351SOL    HW226523   0.710   9.244   4.799  0.8510 -1.1491  0.3654
 5352SOL     OW26524   2.170   8.085   1.482 -0.2876 -0.0295 -0.0934
 5352SOL    HW126525   2.198   8.105   1.576  0.2037 -1.0061 -0.0258
 5352SOL    HW226526   2.238   8.027   1.438 -2.3387 -2.7518  0.1831
 5353SOL     OW26527   1.385   2.572   4.645 -0.0973  0.3305  0.4159
 5353SOL    HW126528   1.316   2.542   4.578  0.4750  0.6250 -0.3162
 5353SOL    HW226529   1.344   2.635   4.710 -0.4110  0.8805 -0.3069
 5354SOL     OW26530   1.967   8.444   3.353  0.0420  0.1915 -0.3538
 5354SOL    HW126531   1.995   8.494   3.271  0.4551  0.6893  0.0927
 5354SOL    HW226532   1.873   8.413   3.342 -0.3494  1.4021 -0.4698
 5355SOL     OW26533   3.251   3.600   0.091  0.7606 -0.3835 -0.6880
 5355SOL    HW126534   3.163   3.559   0.065  0.7024  0.3432 -1.6417
 5355SOL    HW226535   3.239   3.699   0.104  1.2291 -0.4300  0.1357
 5356SOL     OW26536   9.287   0.133   0.293  0.5147 -0.2288 -0.3809
 5356SOL    HW126537   9.387   0.140   0.291  0.4545  0.5161 -1.0429
 5356SOL    HW226538   9.247   0.217   0.256 -0.3741 -0.1047  0.8548
 5357SOL     OW26539   9.803   9.293   3.053 -0.2442  0.9857  0.3284
 5357SOL    HW126540   9.745   9.305   3.134 -1.1921 -0.7895 -0.0770
 5357SOL    HW226541   9.792   9.201   3.017  0.4101  1.6582 -1.6532
 5358SOL     OW26542   1.929   0.237   1.878 -0.3003 -0.1236  0.8826
 5358SOL    HW126543   1.950   0.304   1.806 -1.6065 -0.4495  0.1892
 5358SOL    HW226544   1.989   0.253   1.957  0.4500  0.8789  0.1208
 5359SOL     OW26545   2.185   9.937   0.890 -0.0062  0.9007 -0.1322
 5359SOL    HW126546   2.266   9.896   0.848  0.1681  1.2248 -0.1200
 5359SOL    HW226547   2.114   9.868   0.901 -0.4613  1.0600 -1.9749
 5360SOL     OW26548   9.535   4.724   0.656  0.3170 -0.2244  0.0703
 5360SOL    HW126549   9.452   4.704   0.708  1.1845 -1.7697  0.9126
 5360SOL    HW226550   9.614   4.683   0.702  1.5256  1.0725 -0.8155
 5361SOL     OW26551   1.135   6.186   0.199  0.1210 -0.1895 -0.4127
 5361SOL    HW126552   1.110   6.110   0.259  0.0398  1.2351  1.4015
 5361SOL    HW226553   1.235   6.188   0.188  0.2575  0.5295  0.9917
 5362SOL     OW26554   7.799   0.284   3.588  0.0300 -0.4817  0.0732
 5362SOL    HW126555   7.883   0.307   3.540 -0.1545 -1.2523 -0.6350
 5362SOL    HW226556   7.720   0.307   3.531 -0.3743  3.2459  2.0248
 5363SOL     OW26557   1.719   3.353   0.857  0.0264  0.0716  0.2514
 5363SOL    HW126558   1.666   3.334   0.940 -1.3493 -0.9187 -0.8274
 5363SOL    HW226559   1.664   3.409   0.795 -0.2331 -1.9139 -1.3771
 5364SOL     OW26560   9.924   6.354   0.056 -0.2309  0.0559  0.2786
 5364SOL    HW126561   9.838   6.330   0.010 -0.0715 -2.3347  1.1802
 5364SOL    HW226562   9.996   6.292   0.025  0.6626  0.6141  1.2311
 5365SOL     OW26563   3.920   1.110   3.857  0.2852 -0.0664  0.8971
 5365SOL    HW126564   3.891   1.031   3.911  3.1108 -1.8568 -0.0934
 5365SOL    HW226565   4.013   1.135   3.883  0.0707  1.8206 -0.0889
 5366SOL     OW26566   4.205   8.221   3.688 -0.4739  0.3532  0.4855
 5366SOL    HW126567   4.105   8.220   3.687 -0.4928 -2.0298  1.8105
 5366SOL    HW226568   4.237   8.315   3.680 -2.7622  0.9502 -2.4357
 5367SOL     OW26569   4.032   1.236   4.339 -0.3002 -0.2108  0.2790
 5367SOL    HW126570   4.054   1.176   4.262  0.8136  0.5470  0.0060
 5367SOL    HW226571   4.116   1.276   4.376 -0.7889 -0.7569  2.0589
 5368SOL     OW26572   0.537   7.719   3.989  0.2919  0.3776  0.0962
 5368SOL    HW126573   0.484   7.744   4.071  1.4988 -0.2841  1.0974
 5368SOL    HW226574   0.628   7.688   4.017  0.7879  0.3518 -1.5276
 5369SOL     OW26575   2.446   8.263   0.128  0.6984  0.4976  0.4074
 5369SOL    HW126576   2.470   8.352   0.091  0.3577  0.4732  0.1309
 5369SOL    HW226577   2.356   8.236   0.095  0.5180  0.3460  1.0103
 5370SOL     OW26578   1.506   8.973   4.379 -0.2930 -0.0314 -0.3735
 5370SOL    HW126579   1.587   8.972   4.320 -0.6572 -0.8927 -0.8726
 5370SOL    HW226580   1.427   8.938   4.328 -0.2696 -2.3564  1.1004
 5371SOL     OW26581   2.182   5.549   0.436  0.3441  0.5981  0.2791
 5371SOL    HW126582   2.255   5.609   0.406  0.8861 -0.4483 -0.5425
 5371SOL    HW226583   2.093   5.590   0.413  0.6725  1.6296  0.8176
 5372SOL     OW26584   4.756   8.665   4.418 -0.1486 -0.0706 -0.1846
 5372SOL    HW126585   4.701   8.741   4.385 -0.2422  0.7043  1.6633
 5372SOL    HW226586   4.841   8.659   4.366  0.0220  1.5330 -0.1031
 5373SOL     OW26587   0.533   6.443   2.377  0.0912 -0.2884 -0.3828
 5373SOL    HW126588   0.464   6.386   2.422 -1.7729  1.7652 -0.5516
 5373SOL    HW226589   0.600   6.473   2.444 -0.9483  0.2506  0.4275
 5374SOL     OW26590   5.049   0.158   2.606 -0.6116 -0.5568 -0.0240
 5374SOL    HW126591   5.003   0.247   2.616  0.7210  0.2095 -0.6445
 5374SOL    HW226592   5.087   0.150   2.514 -0.4518 -1.6475  0.1281
 5375SOL     OW26593   2.745   8.035   4.523 -0.3921  0.2303 -0.1095
 5375SOL    HW126594   2.687   8.090   4.463 -0.4893 -1.0088 -1.1807
 5375SOL    HW226595   2.697   8.020   4.610 -1.4047 -0.2095 -0.7271
 5376SOL     OW26596   1.149   1.760   1.792  0.2770  0.3845  0.4747
 5376SOL    HW126597   1.095   1.807   1.723  1.0771  0.8674  0.1616
 5376SOL    HW226598   1.105   1.674   1.817 -0.0217  0.2141 -0.6252
 5377SOL     OW26599   4.864   0.954   2.895 -0.5406  0.0150 -0.4831
 5377SOL    HW126600   4.897   0.869   2.938  0.6550  1.5303  1.7216
 5377SOL    HW226601   4.781   0.984   2.942 -0.3217  0.6558 -0.5099
 5378SOL     OW26602   2.566   8.317   1.402 -0.2579  0.5396 -0.4290
 5378SOL    HW126603   2.661   8.312   1.433  0.0560  2.8675 -0.8856
 5378SOL    HW226604   2.506   8.276   1.470  0.8127  1.7658  1.2931
 5379SOL     OW26605   0.552   9.927   0.336  0.3743  0.3698  0.1999
 5379SOL    HW126606   0.529   9.882   0.250 -0.3336  2.2101 -0.5759
 5379SOL    HW226607   0.640   9.892   0.368  0.2969 -0.8679 -0.8824
 5380SOL     OW26608   4.343   4.301   4.672 -0.3577  0.4273  0.1438
 5380SOL    HW126609   4.402   4.327   4.749  1.0849 -1.0786 -0.4005
 5380SOL    HW226610   4.400   4.266   4.598 -1.7528  1.7700 -1.5887
 5381SOL     OW26611   4.271   1.411   4.426 -0.4535 -0.0943 -0.0933
 5381SOL    HW126612   4.271   1.502   4.386  1.7886 -0.4081 -0.8908
 5381SOL    HW226613   4.271   1.418   4.526  1.0046  0.8239 -0.1420
 5382SOL     OW26614   1.118   5.276   4.458 -0.0397 -0.1694 -0.4157
 5382SOL    HW126615   1.042   5.267   4.522 -1.8455 -2.0057 -2.7057
 5382SOL    HW226616   1.159   5.366   4.466 -0.4041 -0.2698  3.0820
 5383SOL     OW26617   7.585   7.656   3.699 -0.7326 -0.5309  0.9882
 5383SOL    HW126618   7.496   7.700   3.686 -1.0455 -0.6426  2.6838
 5383SOL    HW226619   7.646   7.718   3.748  0.0047 -0.6118  0.1892
 5384SOL     OW26620   9.572   5.815   0.686  0.2847  1.0325  0.5675
 5384SOL    HW126621   9.518   5.807   0.769 -0.3490  0.8727  0.1459
 5384SOL    HW226622   9.667   5.836   0.709  0.3364 -0.0920  1.3636
 5385SOL     OW26623   4.585   8.130   1.746  0.6669  0.2277  0.2289
 5385SOL    HW126624   4.605   8.032   1.744 -1.2159 -0.1886  0.8110
 5385SOL    HW226625   4.624   8.170   1.829  2.6447  0.2618 -0.6964
 5386SOL     OW26626   1.179   7.274   3.283 -0.5722 -0.3853 -0.3293
 5386SOL    HW126627   1.124   7.319   3.212  0.1683 -0.0639 -0.6983
 5386SOL    HW226628   1.268   7.249   3.246 -0.8747 -1.9359 -0.0524
 5387SOL     OW26629   3.206   1.805   1.741 -0.1284 -0.3594 -0.6758
 5387SOL    HW126630   3.111   1.825   1.716 -0.0685  1.8903  0.7824
 5387SOL    HW226631   3.218   1.822   1.839  1.8445 -0.4680 -0.8959
 5388SOL     OW26632   2.647   2.027   2.201  0.1230  0.0606 -0.3177
 5388SOL    HW126633   2.625   2.125   2.208  1.0036  0.1268  1.8963
 5388SOL    HW226634   2.601   1.977   2.275 -0.1240 -1.1914 -1.2912
 5389SOL     OW26635   6.977   7.847   1.210 -0.2791  0.3604 -0.1859
 5389SOL    HW126636   7.057   7.873   1.264 -0.1882  1.4538 -0.8118
 5389SOL    HW226637   6.980   7.894   1.122 -0.2799 -1.6196 -1.2653
 5390SOL     OW26638   1.716   4.454   4.102 -0.6034 -0.1614 -0.3258
 5390SOL    HW126639   1.748   4.439   4.196  0.9418 -1.1771 -1.0003
 5390SOL    HW226640   1.770   4.399   4.039 -2.9657 -1.0212 -1.6372
 5391SOL     OW26641   1.017   2.040   0.773 -0.3439  0.2777  0.1903
 5391SOL    HW126642   1.042   2.078   0.684 -0.0709 -3.0162 -1.2307
 5391SOL    HW226643   1.098   1.998   0.815 -1.2707 -1.5182  0.2209
 5392SOL     OW26644   1.500   0.368   2.742  0.4431  0.2286 -0.1632
 5392SOL    HW126645   1.561   0.428   2.690  0.9262  0.6978  0.9349
 5392SOL    HW226646   1.418   0.349   2.688  0.9474  0.6910 -1.1041
 5393SOL     OW26647   1.083   7.362   2.057 -0.1444 -0.1063  0.6640
 5393SOL    HW126648   1.058   7.459   2.060  2.1767  0.6653 -2.0977
 5393SOL    HW226649   1.001   7.306   2.050 -1.4507  1.8009  0.3860
 5394SOL     OW26650   0.410   5.716   4.034  0.1406 -0.8089 -0.3148
 5394SOL    HW126651   0.422   5.630   3.984 -0.3094 -0.6498 -0.7034
 5394SOL    HW226652   0.313   5.741   4.033 -0.0315 -1.3440  1.5360
 5395SOL     OW26653   1.588   3.690   1.928  0.7476 -0.2527 -0.3086
 5395SOL    HW126654   1.490   3.670   1.936  0.7103 -0.4017 -1.0943
 5395SOL    HW226655   1.602   3.789   1.932  0.6747 -0.2853  0.9068
 5396SOL     OW26656   0.542   0.718   0.448 -0.5799 -0.3049  0.4003
 5396SOL    HW126657   0.597   0.723   0.531 -0.5290 -0.4471  0.3750
 5396SOL    HW226658   0.477   0.642   0.455  1.7821 -2.5472 -1.1178
 5397SOL     OW26659   6.865   6.996   3.222  0.4260  0.0973  0.0110
 5397SOL    HW126660   6.874   7.078   3.166  0.3105 -0.5598 -0.9991
 5397SOL    HW226661   6.828   7.020   3.311  1.4567  1.2873  0.1305
 5398SOL     OW26662   1.475   9.131   0.212 -0.4700  0.2191 -0.0985
 5398SOL    HW126663   1.486   9.048   0.267 -1.0169  0.7616  0.8387
 5398SOL    HW226664   1.446   9.206   0.270 -0.9680  0.8290 -1.1178
 5399SOL     OW26665   1.497   1.265   0.827 -0.0124 -0.0562  0.7687
 5399SOL    HW126666   1.486   1.255   0.926 -2.0517 -0.7659  0.4946
 5399SOL    HW226667   1.466   1.182   0.781 -1.5147  1.2364 -0.6084
 5400SOL     OW26668   1.801   0.407   3.677 -0.0967  0.5029 -0.0641
 5400SOL    HW126669   1.721   0.354   3.705 -0.1345  1.0477  0.8914
 5400SOL    HW226670   1.875   0.345   3.651 -0.9157  0.0009 -1.2049
 5401SOL     OW26671   1.963   0.792   2.962  0.1043  1.0873 -0.1118
 5401SOL    HW126672   1.952   0.693   2.953 -0.2732  1.2282 -1.3933
 5401SOL    HW226673   2.021   0.813   3.041 -0.1857 -0.1322  0.4248
 5402SOL     OW26674   7.331   6.912   3.416  0.2500 -0.0468  0.4273
 5402SOL    HW126675   7.418   6.892   3.371 -0.3832 -3.0731  0.4097
 5402SOL    HW226676   7.257   6.862   3.369 -1.1600  0.6654  1.8404
 5403SOL     OW26677   6.577   0.031   1.706 -0.2215  0.4144  0.3914
 5403SOL    HW126678   6.677   0.028   1.709 -0.2235 -0.1471 -0.0897
 5403SOL    HW226679   6.540  -0.050   1.751 -0.4814  1.1151  1.4729
 5404SOL     OW26680   9.401   8.471   1.939 -0.2807  0.2858 -0.7440
 5404SOL    HW126681   9.330   8.541   1.935 -1.9042 -1.3243 -0.6145
 5404SOL    HW226682   9.488   8.514   1.962 -1.0478  2.3885 -1.6249
 5405SOL     OW26683   3.912   8.400   3.661  0.3037  0.1701  0.6838
 5405SOL    HW126684   3.952   8.491   3.651  2.2828 -0.7288  0.2354
 5405SOL    HW226685   3.928   8.366   3.753  1.3524 -0.5449  0.2451
 5406SOL     OW26686   2.356   1.438   3.897 -0.1275 -0.6668 -0.0810
 5406SOL    HW126687   2.423   1.364   3.886 -1.6194 -2.5632  2.6890
 5406SOL    HW226688   2.379   1.491   3.979 -0.6631  0.1760 -0.4754
 5407SOL     OW26689   0.665   8.512   0.685 -0.2121 -0.1501  0.1367
 5407SOL    HW126690   0.615   8.439   0.730  0.4498 -1.2701 -0.9159
 5407SOL    HW226691   0.748   8.475   0.644  0.5362  1.3401  0.2679
 5408SOL     OW26692   7.219   8.337   3.199 -0.1156  0.6752 -0.1987
 5408SOL    HW126693   7.165   8.414   3.164  1.9629  1.9247 -0.7465
 5408SOL    HW226694   7.258   8.362   3.288  0.4073  0.1867 -0.2890
 5409SOL     OW26695   8.198   7.927   4.537  0.2610  0.2176 -0.4414
 5409SOL    HW126696   8.192   7.881   4.626 -0.7182 -0.7967 -1.0150
 5409SOL    HW226697   8.271   7.885   4.483  1.2183  1.1871  0.0650
 5410SOL     OW26698   8.555   8.871   2.568 -0.2417  0.3449 -0.5637
 5410SOL    HW126699   8.525   8.810   2.495  0.6378 -0.0346 -0.6084
 5410SOL    HW226700   8.650   8.852   2.591 -0.2588  1.0309  0.1048
 5411SOL     OW26701   0.727   1.352   0.854  0.3984  0.0605 -0.5410
 5411SOL    HW126702   0.737   1.416   0.930 -0.9478  0.6713 -0.8579
 5411SOL    HW226703   0.781   1.385   0.776  0.3416  0.3961 -0.4425
 5412SOL     OW26704   5.459   0.608   3.213 -0.1446 -0.0735  0.3125
 5412SOL    HW126705   5.455   0.708   3.219  3.1169  0.1348  0.0012
 5412SOL    HW226706   5.478   0.570   3.303 -1.2717 -0.4147  0.4082
 5413SOL     OW26707   4.250   3.439   4.006 -0.3239  0.5260  0.0667
 5413SOL    HW126708   4.259   3.536   3.985  0.4841  0.6519  0.9449
 5413SOL    HW226709   4.251   3.386   3.922  0.4674  1.1934 -0.3470
 5414SOL     OW26710   8.971   7.144   2.744  0.4525  0.5340  0.1799
 5414SOL    HW126711   8.939   7.223   2.691  0.2070  0.1621 -0.2176
 5414SOL    HW226712   8.921   7.139   2.830 -0.1163  0.3187 -0.1647
 5415SOL     OW26713   2.060   9.202   0.144  0.6937 -0.6581  0.2926
 5415SOL    HW126714   2.105   9.255   0.071  0.9820 -1.4090 -0.0794
 5415SOL    HW226715   1.974   9.246   0.168  0.0141 -1.0465 -1.3515
 5416SOL     OW26716   7.116   9.218   4.748 -0.0760  0.0789  0.3235
 5416SOL    HW126717   7.066   9.134   4.768 -0.6924  0.5606  0.8251
 5416SOL    HW226718   7.112   9.279   4.828 -0.3860  0.9531 -0.3542
 5417SOL     OW26719   6.963   0.824   2.163 -0.4114  0.2325  0.2011
 5417SOL    HW126720   7.035   0.755   2.167 -0.5320  0.0685 -0.4990
 5417SOL    HW226721   6.942   0.856   2.256  0.9763  0.7087  0.3606
 5418SOL     OW26722   7.742   7.603   0.772 -0.0464 -0.2131 -0.3338
 5418SOL    HW126723   7.655   7.603   0.821 -0.9532 -0.1577 -1.9124
 5418SOL    HW226724   7.816   7.579   0.835 -1.1582  0.0414  1.0900
 5419SOL     OW26725   2.297   4.769   3.978 -0.5052 -0.7073  0.0081
 5419SOL    HW126726   2.253   4.689   3.938 -1.1951 -0.5678  0.4832
 5419SOL    HW226727   2.233   4.845   3.979 -0.1140 -0.3835  0.3126
 5420SOL     OW26728   2.277   1.464   3.576  0.3908 -0.1697  0.2374
 5420SOL    HW126729   2.278   1.531   3.650 -2.0089 -1.2054  1.2904
 5420SOL    HW226730   2.282   1.511   3.488 -0.6075  1.3412  0.9666
 5421SOL     OW26731   2.184   0.343   4.309 -0.2901  0.5318 -0.3035
 5421SOL    HW126732   2.203   0.438   4.332  0.9838  0.0097  0.9356
 5421SOL    HW226733   2.144   0.337   4.218 -0.6275  2.2689 -0.2719
 5422SOL     OW26734   0.877   6.795   3.155  0.1965  0.0211 -0.1082
 5422SOL    HW126735   0.896   6.764   3.248  2.3256 -0.9519 -0.8279
 5422SOL    HW226736   0.844   6.890   3.158  0.4611  0.0784  1.6173
 5423SOL     OW26737   2.401   7.819   2.749 -0.5809 -0.5220 -0.3530
 5423SOL    HW126738   2.420   7.733   2.701  1.4046 -0.0595 -0.4557
 5423SOL    HW226739   2.400   7.894   2.683 -0.1217 -0.1822  0.0218
 5424SOL     OW26740   2.032   8.548   3.133 -1.1231  0.5320 -0.0233
 5424SOL    HW126741   1.949   8.598   3.110 -1.4090 -0.0275 -0.2032
 5424SOL    HW226742   2.112   8.604   3.110 -1.4343  0.7331 -0.6263
 5425SOL     OW26743   0.689   6.486   4.419 -0.3398  0.1410 -0.4382
 5425SOL    HW126744   0.709   6.583   4.408  1.4104 -0.2714 -1.0789
 5425SOL    HW226745   0.763   6.432   4.379 -0.9223 -1.4606  0.5967
 5426SOL     OW26746   7.253   9.983   3.210 -0.6945  0.5086 -0.2774
 5426SOL    HW126747   7.254   9.922   3.289 -1.0343  1.7160  0.6801
 5426SOL    HW226748   7.346  10.017   3.193 -0.5733  0.0358 -0.5715
 5427SOL     OW26749   9.365   5.736   1.176  0.0932  0.3753 -0.3157
 5427SOL    HW126750   9.448   5.693   1.209 -0.1049 -0.6126 -1.0687
 5427SOL    HW226751   9.289   5.716   1.238  0.1020  0.0196 -0.4166
 5428SOL     OW26752   9.488   7.041   4.252 -0.4547  0.1990 -0.0735
 5428SOL    HW126753   9.585   7.061   4.238 -0.4389 -0.1675 -0.5327
 5428SOL    HW226754   9.474   6.942   4.249 -0.9531  0.2867 -0.8143
 5429SOL     OW26755   9.187   8.154   2.179 -0.1140 -0.3369  0.1952
 5429SOL    HW126756   9.141   8.242   2.168  0.8744  0.0456 -1.0157
 5429SOL    HW226757   9.285   8.169   2.192  0.1455 -1.2808 -0.6061
 5430SOL     OW26758   3.665   4.646   0.442 -0.3294  0.1408  0.0397
 5430SOL    HW126759   3.666   4.572   0.510 -0.2341 -1.1737 -1.3652
 5430SOL    HW226760   3.571   4.671   0.422 -0.3925 -0.1681 -0.0641
 5431SOL     OW26761   4.159   4.923   1.399  0.7255 -0.4283 -0.1160
 5431SOL    HW126762   4.245   4.935   1.450 -0.6685 -0.7035  2.3612
 5431SOL    HW226763   4.116   4.837   1.427 -1.1091  0.4510 -0.2143
 5432SOL     OW26764   0.272   3.180   1.408  0.1949 -0.7666  0.6455
 5432SOL    HW126765   0.255   3.082   1.415 -2.5882 -0.4704 -1.0141
 5432SOL    HW226766   0.365   3.196   1.375  0.5773 -2.8488  0.6484
 5433SOL     OW26767   6.989   7.167   2.492  0.1740 -0.1665 -0.3193
 5433SOL    HW126768   7.045   7.221   2.555 -0.5373  1.0920 -0.7489
 5433SOL    HW226769   7.049   7.123   2.424  0.6700  1.1153 -0.7373
 5434SOL     OW26770   0.783   8.127   4.566  0.2471 -0.2218  0.0939
 5434SOL    HW126771   0.729   8.208   4.591  0.2410  0.2684 -1.4607
 5434SOL    HW226772   0.879   8.145   4.584  0.1053 -0.3701  1.0219
 5435SOL     OW26773   9.563   8.722   1.650 -0.3972  0.3579 -0.3381
 5435SOL    HW126774   9.635   8.656   1.631 -1.1481 -0.3159 -0.9357
 5435SOL    HW226775   9.577   8.764   1.739  1.7266  1.5753 -1.2098
 5436SOL     OW26776   3.262   2.557   1.148 -0.0503 -0.2114  0.2297
 5436SOL    HW126777   3.340   2.581   1.091  0.3835 -1.3547  0.3162
 5436SOL    HW226778   3.203   2.493   1.099 -0.2433 -0.3665  0.6586
 5437SOL     OW26779   6.148   9.188   1.837  0.2325 -0.1576 -0.5282
 5437SOL    HW126780   6.189   9.170   1.748  1.0529 -0.5612 -0.0794
 5437SOL    HW226781   6.216   9.172   1.909 -0.5642 -0.3433  0.2015
 5438SOL     OW26782   1.417   5.056   1.822  0.0049  0.3859  0.0766
 5438SOL    HW126783   1.392   5.005   1.905 -1.0134  0.2952 -0.2749
 5438SOL    HW226784   1.454   5.145   1.848 -0.6285  0.4931  0.6317
 5439SOL     OW26785   9.915   5.251   0.114 -0.1797  0.1245  0.3491
 5439SOL    HW126786   9.957   5.214   0.197  1.4248  0.8860 -0.1083
 5439SOL    HW226787   9.986   5.277   0.050 -1.4096 -0.1331 -1.1449
 5440SOL     OW26788   3.389   1.564   0.574 -0.3936 -0.3272 -0.1071
 5440SOL    HW126789   3.310   1.575   0.514 -0.2001  0.4572 -0.2260
 5440SOL    HW226790   3.460   1.513   0.527  0.6482  2.2050 -1.4087
 5441SOL     OW26791   2.319   3.250   0.964 -0.2295 -0.0040  0.4047
 5441SOL    HW126792   2.239   3.212   0.916  1.1804 -0.4732 -1.6221
 5441SOL    HW226793   2.316   3.349   0.961  0.4918 -0.0163 -1.8364
 5442SOL     OW26794   8.966   6.391   3.476  0.3925  0.1104 -0.0526
 5442SOL    HW126795   8.954   6.490   3.472  0.9805  0.2742  1.9097
 5442SOL    HW226796   9.043   6.364   3.418  1.4963  1.0466  0.9453
 5443SOL     OW26797   8.064   0.535   1.090  0.0245  0.0472  0.2102
 5443SOL    HW126798   7.993   0.487   1.142  1.2203 -2.0378 -0.0038
 5443SOL    HW226799   8.145   0.476   1.083  0.7772  1.2908 -1.9006
 5444SOL     OW26800   9.844   7.794   0.018 -0.0850  0.4886  0.1966
 5444SOL    HW126801   9.829   7.868   0.083  0.2332 -0.1138  0.9698
 5444SOL    HW226802   9.851   7.707   0.068  0.8419  0.1118 -0.5752
 5445SOL     OW26803   1.040   8.059   4.260  0.1248  0.1476 -0.0240
 5445SOL    HW126804   0.977   7.999   4.210  0.8980 -1.4589  0.8783
 5445SOL    HW226805   1.124   8.071   4.206 -0.8297  2.0867 -1.1144
 5446SOL     OW26806   9.693   4.624   2.716 -0.0725 -0.1193  0.6723
 5446SOL    HW126807   9.710   4.627   2.617 -1.0237 -0.1556  0.5007
 5446SOL    HW226808   9.692   4.717   2.752  0.5445 -0.1223  0.6939
 5447SOL     OW26809   4.993   7.813   1.888 -0.2646 -0.0927  0.1974
 5447SOL    HW126810   5.016   7.903   1.924  0.2181  0.1361 -0.6601
 5447SOL    HW226811   4.940   7.823   1.804 -1.7001 -0.6216  1.0166
 5448SOL     OW26812   7.980   0.422   1.599 -0.1463  0.0324  0.1159
 5448SOL    HW126813   7.882   0.401   1.594 -0.1374  0.2852 -1.4876
 5448SOL    HW226814   8.029   0.365   1.533  0.6601  0.6431  0.1861
 5449SOL     OW26815   2.964   5.178   3.477  0.2942  0.2320  0.0420
 5449SOL    HW126816   3.057   5.212   3.487 -0.2014  1.3548  0.8845
 5449SOL    HW226817   2.967   5.082   3.451  1.7036  0.9133 -2.4461
 5450SOL     OW26818   7.944   8.585   0.792  0.0093 -0.0860  0.0287
 5450SOL    HW126819   7.891   8.556   0.712  0.1620 -2.0672  0.6247
 5450SOL    HW226820   7.986   8.674   0.773 -3.4809  1.5250 -0.4602
 5451SOL     OW26821   5.610   7.903   2.128  0.2014 -0.4900  0.0887
 5451SOL    HW126822   5.666   7.844   2.070 -2.3431 -1.5677 -1.3374
 5451SOL    HW226823   5.596   7.991   2.083 -1.3166 -1.1274 -0.7037
 5452SOL     OW26824   0.689   3.880   2.036 -0.2218  0.1938  0.4337
 5452SOL    HW126825   0.642   3.917   1.955 -2.2902 -0.8605  1.1058
 5452SOL    HW226826   0.786   3.871   2.017 -0.2561  2.4279 -1.0320
 5453SOL     OW26827   7.882   9.802   1.900  0.0403  0.1943  0.5295
 5453SOL    HW126828   7.837   9.873   1.845 -1.2937 -0.4905  0.7050
 5453SOL    HW226829   7.951   9.755   1.845 -1.0999 -0.3090 -0.4978
 5454SOL     OW26830   9.216   6.979   2.131  0.5181  0.3953  0.0422
 5454SOL    HW126831   9.294   6.916   2.129 -0.8633 -1.4208  1.6427
 5454SOL    HW226832   9.195   7.004   2.225 -0.7529  0.9670 -0.3802
 5455SOL     OW26833   0.066   8.331   2.004  0.6017  0.4182 -0.1438
 5455SOL    HW126834   0.151   8.378   2.027  0.2122  2.1260 -2.0560
 5455SOL    HW226835   0.059   8.321   1.905 -0.6148 -1.2758  0.0897
 5456SOL     OW26836   3.078   4.719   4.425 -0.0101  0.7897  0.1149
 5456SOL    HW126837   3.148   4.659   4.464 -0.4511 -0.1667 -0.5650
 5456SOL    HW226838   3.024   4.759   4.499  0.2521  0.3169  0.5699
 5457SOL     OW26839   4.064   2.367   3.163  0.1387  0.0922  0.0879
 5457SOL    HW126840   4.074   2.406   3.255  1.7797  1.4464 -0.6398
 5457SOL    HW226841   3.971   2.332   3.152 -0.7487  1.8689  1.5279
 5458SOL     OW26842   6.050   8.435   3.053  0.2712  0.1756  0.2955
 5458SOL    HW126843   6.106   8.500   3.001  0.0922 -0.5799 -0.8618
 5458SOL    HW226844   5.986   8.485   3.111 -1.1160  1.0407 -1.9321
 5459SOL     OW26845   0.893   5.236   2.179  0.2850  0.4728 -0.1205
 5459SOL    HW126846   0.908   5.334   2.187  0.6527  0.3077  1.3115
 5459SOL    HW226847   0.819   5.208   2.240 -0.2134 -0.0501 -0.9599
 5460SOL     OW26848   2.709   6.195   1.561 -0.2787 -0.3807 -0.6898
 5460SOL    HW126849   2.685   6.099   1.578 -1.7038  0.4634  2.4447
 5460SOL    HW226850   2.666   6.253   1.630  0.9212  2.5076 -2.2653
 5461SOL     OW26851   9.001   7.699   3.318 -0.2198 -0.3362 -0.5892
 5461SOL    HW126852   9.088   7.746   3.299  0.5429 -1.1438  0.8192
 5461SOL    HW226853   8.971   7.652   3.235  0.1127  0.8716 -1.4057
 5462SOL     OW26854   3.217   7.982   1.459 -0.3362  0.8234 -0.5853
 5462SOL    HW126855   3.142   8.042   1.486 -0.8670 -0.0482 -0.1148
 5462SOL    HW226856   3.248   8.006   1.367 -1.9397  0.4656 -1.2342
 5463SOL     OW26857   1.861   7.990   1.557 -0.1787  0.3611  0.3485
 5463SOL    HW126858   1.918   7.916   1.520 -0.6335 -0.5014  1.3354
 5463SOL    HW226859   1.846   8.059   1.487 -0.4277 -0.8961 -0.8633
 5464SOL     OW26860   1.788   5.409   0.743  0.1544  0.2843 -0.3990
 5464SOL    HW126861   1.744   5.417   0.833  2.6945  0.2528  0.9038
 5464SOL    HW226862   1.884   5.384   0.756  0.1760 -1.2323 -3.2019
 5465SOL     OW26863   1.903   6.989   1.186  0.1337 -0.8423 -0.4735
 5465SOL    HW126864   1.824   7.024   1.136  1.1213  2.7167  0.3168
 5465SOL    HW226865   1.874   6.955   1.275 -0.6029  0.1359 -0.3246
 5466SOL     OW26866   9.291   0.075   2.956  0.4491  0.2096 -0.4477
 5466SOL    HW126867   9.289   0.103   3.052  0.3874 -0.2555 -0.3120
 5466SOL    HW226868   9.199   0.086   2.917  0.7315  1.5250 -0.7881
 5467SOL     OW26869   3.618   1.037   0.895 -0.5379  0.0409  0.1560
 5467SOL    HW126870   3.522   1.061   0.888 -0.4135  0.0101 -2.2711
 5467SOL    HW226871   3.674   1.111   0.856  0.3597 -0.2729  0.8392
 5468SOL     OW26872   9.597   8.716   4.655  0.0258  0.4437 -0.0066
 5468SOL    HW126873   9.618   8.812   4.636 -0.2399  0.2961 -1.0666
 5468SOL    HW226874   9.610   8.661   4.572  1.0465 -0.5929  0.8176
 5469SOL     OW26875   2.744   2.232   2.448 -0.2044  0.2769 -0.7389
 5469SOL    HW126876   2.731   2.203   2.353  0.6531 -0.8021 -0.5314
 5469SOL    HW226877   2.728   2.331   2.455  2.5809  0.9097 -2.5768
 5470SOL     OW26878   3.348   5.322   3.417  0.4317 -0.0006  0.4354
 5470SOL    HW126879   3.352   5.225   3.393  2.1039  0.7018 -2.2831
 5470SOL    HW226880   3.299   5.372   3.345  0.8452  1.3811  1.1035
 5471SOL     OW26881   9.258   0.188   2.209 -0.3754 -0.1959 -0.3904
 5471SOL    HW126882   9.308   0.119   2.156 -1.2874 -1.3381  0.2038
 5471SOL    HW226883   9.169   0.151   2.235 -0.0371  0.4110  1.7370
 5472SOL     OW26884   0.615   8.474   2.452  0.1270  0.5307  0.6440
 5472SOL    HW126885   0.539   8.424   2.411  1.0863 -0.0724 -0.4104
 5472SOL    HW226886   0.579   8.534   2.523 -1.2822 -0.1146  0.5153
 5473SOL     OW26887   2.440   7.730   0.025  0.7155 -0.6698 -0.2662
 5473SOL    HW126888   2.528   7.688   0.048  1.2539  0.8184  0.3905
 5473SOL    HW226889   2.392   7.754   0.109  0.7322  0.6949 -0.6362
 5474SOL     OW26890   0.941   3.549   2.099  0.8245 -0.0641  0.0137
 5474SOL    HW126891   0.957   3.489   2.177 -1.2610  2.2794  2.3638
 5474SOL    HW226892   0.954   3.644   2.128  0.2194  0.8411 -2.5610
 5475SOL     OW26893   8.630   8.138   1.761 -0.3156  0.1970  0.3708
 5475SOL    HW126894   8.700   8.122   1.691  0.1783 -3.0013  1.5244
 5475SOL    HW226895   8.540   8.114   1.725 -0.6042  2.2881 -0.4027
 5476SOL     OW26896   0.885   3.144   1.652 -0.2523  0.1338  0.3923
 5476SOL    HW126897   0.901   3.140   1.751  2.5884  0.1986 -0.0188
 5476SOL    HW226898   0.936   3.221   1.614  0.0211 -0.9095 -1.3691
 5477SOL     OW26899   4.481   4.624   0.550 -0.9010 -0.3473  0.2592
 5477SOL    HW126900   4.569   4.603   0.509  0.9258  0.8444  3.3959
 5477SOL    HW226901   4.434   4.538   0.572  0.1660 -1.0073  0.0301
 5478SOL     OW26902   1.743   6.512   1.225  0.0569  0.5370 -0.0909
 5478SOL    HW126903   1.702   6.530   1.135  1.1205 -1.6015 -1.0301
 5478SOL    HW226904   1.673   6.521   1.296 -1.3287 -0.0608 -1.3520
 5479SOL     OW26905   2.012   7.766   4.279 -0.5089 -0.5582 -0.2683
 5479SOL    HW126906   2.035   7.863   4.280  2.5319 -1.2298 -0.3180
 5479SOL    HW226907   1.969   7.741   4.366 -2.5056  1.0688 -0.7549
 5480SOL     OW26908   9.206   7.574   1.265  0.2448  0.1006  0.3925
 5480SOL    HW126909   9.250   7.628   1.194  2.2532  0.4349  1.8526
 5480SOL    HW226910   9.200   7.479   1.236 -0.7087  0.5637 -0.9995
 5481SOL     OW26911   1.715   7.589   1.676  0.1680  0.6022  0.0729
 5481SOL    HW126912   1.624   7.547   1.683  0.6992 -0.7059 -0.6628
 5481SOL    HW226913   1.774   7.554   1.748  0.1854  1.1936  0.3453
 5482SOL     OW26914   3.496   3.518   2.029  0.2198 -0.1239  0.4983
 5482SOL    HW126915   3.560   3.566   1.968 -0.4071  0.3695  0.2233
 5482SOL    HW226916   3.511   3.420   2.022 -0.6386 -0.1537 -1.3671
 5483SOL     OW26917   1.124   3.793   3.204 -0.1658  0.1824  0.7680
 5483SOL    HW126918   1.091   3.883   3.232 -2.7647 -0.4810  0.0145
 5483SOL    HW226919   1.078   3.766   3.119  0.3150 -2.0011  1.1833
 5484SOL     OW26920   4.880   6.877   2.859 -0.2240  0.0897 -0.3412
 5484SOL    HW126921   4.970   6.866   2.903 -1.4956  0.7984  2.5587
 5484SOL    HW226922   4.873   6.814   2.782  2.2466 -0.9387  0.2104
 5485SOL     OW26923   2.350   4.338   0.782  0.2687 -0.1910 -0.6302
 5485SOL    HW126924   2.408   4.268   0.822 -0.1649 -0.8763 -1.1935
 5485SOL    HW226925   2.347   4.327   0.683 -0.0042  0.4683 -0.6996
 5486SOL     OW26926   8.014   9.277   4.141  0.0740 -0.3754  0.0582
 5486SOL    HW126927   8.036   9.181   4.159  0.1252 -0.6451 -1.4200
 5486SOL    HW226928   8.009   9.292   4.043 -0.2316  1.0773  0.2926
 5487SOL     OW26929   9.188   7.500   3.166 -0.0802 -0.0407 -0.0591
 5487SOL    HW126930   9.166   7.535   3.075  2.3258 -0.2418 -0.7612
 5487SOL    HW226931   9.173   7.401   3.168 -0.5653  0.0321 -0.0995
 5488SOL     OW26932   8.130   8.955   2.084 -0.1130 -0.2153  0.0013
 5488SOL    HW126933   8.119   8.856   2.082  1.1240 -0.3520 -1.4522
 5488SOL    HW226934   8.041   8.999   2.081 -0.6305 -1.2938 -0.7367
 5489SOL     OW26935   0.487   0.103   4.606  0.6300  0.5465  0.1633
 5489SOL    HW126936   0.391   0.078   4.618  0.8352  0.3592  1.4323
 5489SOL    HW226937   0.499   0.200   4.627  0.7819  0.4890  0.3404
 5490SOL     OW26938   8.124   8.112   4.315 -0.6252 -0.3910 -0.4392
 5490SOL    HW126939   8.132   8.090   4.412  1.9871  3.1849  0.2319
 5490SOL    HW226940   8.118   8.027   4.263 -0.2062 -2.4222  2.6818
 5491SOL     OW26941   8.942   9.437   2.076  0.0986 -0.5315  0.0490
 5491SOL    HW126942   8.927   9.364   2.010 -0.7608  0.7402 -1.1958
 5491SOL    HW226943   9.040   9.456   2.083  0.2118 -0.8086 -0.7184
 5492SOL     OW26944   0.405   8.101   4.240  0.0209 -0.2390 -0.0265
 5492SOL    HW126945   0.412   8.134   4.146 -0.4976 -1.2963 -0.4447
 5492SOL    HW226946   0.323   8.138   4.283 -0.3663 -0.6966 -0.3747
 5493SOL     OW26947   1.617   9.983   0.830  0.8354  0.5379 -0.0690
 5493SOL    HW126948   1.646  10.074   0.861  4.1904  0.0895 -1.7060
 5493SOL    HW226949   1.698   9.927   0.810 -1.1787 -1.7553 -2.1049
 5494SOL     OW26950   1.219   7.596   1.002  0.1055  0.2800 -0.1103
 5494SOL    HW126951   1.291   7.528   0.987 -0.5969 -0.9368  1.8886
 5494SOL    HW226952   1.256   7.672   1.055 -0.4019 -1.0121  2.1491
 5495SOL     OW26953   3.667   5.269   2.426 -0.3279  0.1439  0.1004
 5495SOL    HW126954   3.623   5.322   2.354 -0.1545  0.5341  0.2813
 5495SOL    HW226955   3.763   5.252   2.402 -0.8871 -1.7613 -0.8725
 5496SOL     OW26956   1.664   8.966   1.697  0.0763  0.8106 -0.1016
 5496SOL    HW126957   1.670   8.887   1.760 -1.1746  0.0624 -0.9129
 5496SOL    HW226958   1.569   8.989   1.681  0.4359  2.8680  0.5447
 5497SOL     OW26959   0.637   5.135   0.106  0.0631  0.7307 -0.1800
 5497SOL    HW126960   0.544   5.107   0.126  0.1809 -0.9890 -1.9687
 5497SOL    HW226961   0.695   5.054   0.094  1.3803  1.7738 -1.0014
 5498SOL     OW26962   2.905   4.753   2.816  0.7987  0.1621 -0.9696
 5498SOL    HW126963   2.941   4.662   2.799 -4.1440 -2.1067 -0.2155
 5498SOL    HW226964   2.883   4.762   2.914  0.9362  2.0544 -1.0953
 5499SOL     OW26965   3.199   0.234   2.739 -0.0762 -0.2620 -0.1031
 5499SOL    HW126966   3.256   0.160   2.704  0.5018 -0.0282  0.3284
 5499SOL    HW226967   3.103   0.209   2.729  0.0919 -0.5448 -1.0783
 5500SOL     OW26968   9.217   8.648   1.976  0.4334 -0.5247 -0.3402
 5500SOL    HW126969   9.141   8.614   2.032  0.1718  0.4009 -0.1372
 5500SOL    HW226970   9.224   8.747   1.985  1.2381 -0.5261 -0.8980
 5501SOL     OW26971   4.158   9.785   4.566  0.5275  0.2655 -0.2940
 5501SOL    HW126972   4.119   9.712   4.510  1.2311  0.7013 -1.3677
 5501SOL    HW226973   4.247   9.813   4.529  1.6773 -0.3938  1.8508
 5502SOL     OW26974   1.606   3.431   4.296  0.2523  0.2079 -0.0503
 5502SOL    HW126975   1.678   3.395   4.237  0.5272  1.4475 -0.4939
 5502SOL    HW226976   1.645   3.450   4.387  0.3852  0.4442 -0.1545
 5503SOL     OW26977   9.069   9.176   2.310 -0.0858  0.1776 -0.3708
 5503SOL    HW126978   9.155   9.216   2.276 -0.5069  0.6500 -0.9113
 5503SOL    HW226979   9.089   9.093   2.362  0.7916  0.9215  0.5042
 5504SOL     OW26980   4.988   8.423   2.646  0.0833 -0.1276  0.3662
 5504SOL    HW126981   4.983   8.505   2.704  0.1545  0.3247 -0.2573
 5504SOL    HW226982   5.073   8.373   2.666  0.6355  0.6027 -0.0962
 5505SOL     OW26983   2.695   6.931   2.466  0.0723 -0.1476 -0.9202
 5505SOL    HW126984   2.715   7.018   2.509  0.4743 -0.1447 -1.1129
 5505SOL    HW226985   2.760   6.862   2.498  0.6638 -0.0402 -1.8605
 5506SOL     OW26986   7.111   0.080   4.469  0.2992 -0.3562  0.1911
 5506SOL    HW126987   7.161   0.001   4.434  1.9550  0.2472  1.0939
 5506SOL    HW226988   7.022   0.052   4.504  0.7337 -1.7668  0.1789
 5507SOL     OW26989   4.876   8.411   2.944 -0.4152 -0.0816 -0.5271
 5507SOL    HW126990   4.885   8.452   2.853 -0.6882 -1.4979 -1.2148
 5507SOL    HW226991   4.962   8.422   2.994  0.4280 -1.0660 -1.7303
 5508SOL     OW26992   0.471   3.718   2.732  0.5075 -0.6526 -0.2986
 5508SOL    HW126993   0.473   3.649   2.805 -1.8532  0.1091  0.5337
 5508SOL    HW226994   0.407   3.790   2.757  0.9520  0.4811 -2.3902
 5509SOL     OW26995   0.319   9.261   1.044  0.4441 -0.2601 -0.0250
 5509SOL    HW126996   0.331   9.344   0.990 -1.2846 -0.3599 -0.5760
 5509SOL    HW226997   0.263   9.281   1.124  0.0267 -0.8883 -0.1569
 5510SOL     OW26998   0.581   9.628   2.182 -0.4266  0.2429 -0.2029
 5510SOL    HW126999   0.551   9.721   2.204 -1.9287 -0.4679  0.8638
 5510SOL    HW227000   0.606   9.623   2.086 -0.0735  1.8189 -0.2086
 5511SOL     OW27001   0.850   8.926   1.267 -0.5146 -0.7230  0.3131
 5511SOL    HW127002   0.797   9.011   1.261 -0.7778 -0.8535  0.7731
 5511SOL    HW227003   0.864   8.889   1.176 -1.4244 -0.8124  0.2006
 5512SOL     OW27004   0.250   1.249   1.527  0.1609 -0.1881  0.0974
 5512SOL    HW127005   0.227   1.316   1.457 -0.7134 -1.0633 -0.4548
 5512SOL    HW227006   0.167   1.215   1.570  0.5433 -1.4876 -0.1560
 5513SOL     OW27007   7.964   5.741   1.931 -0.8397 -0.1357  0.5342
 5513SOL    HW127008   7.885   5.707   1.879 -0.3213 -0.2062 -0.2204
 5513SOL    HW227009   7.935   5.817   1.988 -1.2943  0.3940 -0.3779
 5514SOL     OW27010   1.800   1.668   2.935 -0.0108  0.3499  0.1704
 5514SOL    HW127011   1.752   1.722   3.004  0.1755  2.7016 -1.4794
 5514SOL    HW227012   1.862   1.604   2.979 -1.2137  0.5475  2.2086
 5515SOL     OW27013   5.583   9.911   1.694 -0.4337  0.1423 -0.9875
 5515SOL    HW127014   5.529   9.921   1.778  1.6379 -0.4525  0.4400
 5515SOL    HW227015   5.562   9.822   1.652 -0.2038 -0.3060 -0.1651
 5516SOL     OW27016   3.935   3.476   3.113 -0.2415 -0.1383  0.3394
 5516SOL    HW127017   4.000   3.405   3.084  0.4465  0.0291  1.4334
 5516SOL    HW227018   3.920   3.469   3.212 -0.5951  0.8945  0.3673
 5517SOL     OW27019   8.601   7.241   1.483 -0.1651  0.0349 -0.6638
 5517SOL    HW127020   8.698   7.220   1.493  0.5477  2.5948 -1.9101
 5517SOL    HW227021   8.588   7.311   1.413 -2.8651  0.1859 -0.0900
 5518SOL     OW27022   2.652   5.929   1.618 -0.2812 -0.4341 -0.5350
 5518SOL    HW127023   2.652   5.883   1.706  2.2228 -1.5204 -1.0779
 5518SOL    HW227024   2.576   5.894   1.562 -0.5249 -1.3500  0.3661
 5519SOL     OW27025   1.394   2.048   4.401  0.0595 -0.0768 -0.0228
 5519SOL    HW127026   1.394   1.956   4.440  1.0519 -1.0209 -2.1819
 5519SOL    HW227027   1.301   2.074   4.376 -0.0471 -1.0731 -0.6864
 5520SOL     OW27028   9.704   0.072   2.379 -0.3467  0.9723  0.1784
 5520SOL    HW127029   9.704   0.098   2.283 -3.7121 -0.6790 -0.3329
 5520SOL    HW227030   9.643   0.133   2.430  2.0654  2.3714  1.4732
 5521SOL     OW27031   7.713   8.745   1.222 -0.3617  0.6060 -0.2540
 5521SOL    HW127032   7.635   8.745   1.160  0.3597  2.0218 -1.2027
 5521SOL    HW227033   7.708   8.826   1.282  1.0505  1.4361 -1.2260
 5522SOL     OW27034   4.354   2.314   0.937  0.0368  0.2045  0.6467
 5522SOL    HW127035   4.340   2.233   0.994  2.6931 -1.0512 -0.3717
 5522SOL    HW227036   4.367   2.285   0.842  0.8323  1.8524  0.2511
 5523SOL     OW27037   8.908   7.324   0.285 -0.0109  0.2902 -0.3390
 5523SOL    HW127038   8.927   7.266   0.206  2.1941  0.5793 -0.0439
 5523SOL    HW227039   8.983   7.389   0.297 -1.1839  1.4270  0.9354
 5524SOL     OW27040   8.525   8.771   1.218 -0.1440 -0.5957 -0.5442
 5524SOL    HW127041   8.468   8.718   1.281  1.0478 -1.6238 -0.3173
 5524SOL    HW227042   8.532   8.722   1.131 -0.2950 -0.0493 -0.8707
 5525SOL     OW27043   1.343   3.219   3.177 -0.1258 -0.6298  0.2259
 5525SOL    HW127044   1.251   3.197   3.143 -0.2619 -2.1175  1.5251
 5525SOL    HW227045   1.337   3.254   3.270  0.7573 -2.4643  1.0025
 5526SOL     OW27046   4.314   4.451   1.350 -0.1167 -0.2536  0.1595
 5526SOL    HW127047   4.256   4.524   1.313 -0.6094 -0.2239  0.9920
 5526SOL    HW227048   4.318   4.458   1.449 -1.9590 -2.6708  0.4576
 5527SOL     OW27049   2.294   2.299   4.483  0.0686 -0.0455 -0.1942
 5527SOL    HW127050   2.357   2.223   4.495  0.2892  0.1181 -0.3172
 5527SOL    HW227051   2.214   2.269   4.430 -0.9489 -0.7891  1.7227
 5528SOL     OW27052   3.767   7.615   2.258 -0.2168  0.5906  0.7584
 5528SOL    HW127053   3.771   7.517   2.236  0.5630  0.8185 -0.1617
 5528SOL    HW227054   3.749   7.626   2.355  1.8056 -0.4964  1.2847
 5529SOL     OW27055   0.636   3.831   1.740 -0.7960  0.0604 -0.2748
 5529SOL    HW127056   0.623   3.752   1.800 -0.1845  0.3665  0.2518
 5529SOL    HW227057   0.591   3.812   1.652 -1.4530 -0.4920  0.1707
 5530SOL     OW27058   4.580   3.077   1.295 -0.2292 -0.0598  0.0255
 5530SOL    HW127059   4.506   3.106   1.234  0.1859  1.1252  0.0653
 5530SOL    HW227060   4.546   3.007   1.357 -1.3675  0.5528  0.1161
 5531SOL     OW27061   2.083   6.550   2.878 -0.1055 -0.7865  0.2273
 5531SOL    HW127062   2.158   6.577   2.939 -0.3111 -0.9335  0.5459
 5531SOL    HW227063   2.009   6.616   2.884  0.8031  0.4331 -1.5706
 5532SOL     OW27064   6.841   8.687   2.117 -0.1395 -0.0037  0.0823
 5532SOL    HW127065   6.779   8.745   2.169  0.4629  0.6491  0.0807
 5532SOL    HW227066   6.913   8.743   2.076  0.2123 -0.6993 -0.2619
 5533SOL     OW27067   2.632   6.914   1.896  0.5744  0.0728 -0.0103
 5533SOL    HW127068   2.623   6.989   1.830 -0.0604 -1.3975 -1.6357
 5533SOL    HW227069   2.722   6.919   1.940  2.1439 -0.5412 -3.0310
 5534SOL     OW27070   4.008   3.191   1.157 -0.1287  1.0374 -0.0378
 5534SOL    HW127071   4.044   3.100   1.134 -0.7693  0.9361 -0.6525
 5534SOL    HW227072   4.083   3.257   1.161  0.2786  0.5757 -0.0663
 5535SOL     OW27073   2.650   6.667   1.020  0.3968  0.1948 -0.0478
 5535SOL    HW127074   2.622   6.597   1.086  0.5904  0.7972  0.6699
 5535SOL    HW227075   2.694   6.743   1.068 -3.5131  2.7785 -0.3176
 5536SOL     OW27076   9.373   0.937   2.251  0.7852  0.0721  0.4341
 5536SOL    HW127077   9.305   1.009   2.262  1.7673  0.9659  0.6506
 5536SOL    HW227078   9.346   0.878   2.175 -0.7463 -0.1719  1.1360
 5537SOL     OW27079   0.946   2.786   2.714 -0.4150  0.0346  0.1488
 5537SOL    HW127080   1.042   2.812   2.727 -0.1285 -0.9184 -0.0692
 5537SOL    HW227081   0.921   2.716   2.781 -1.0837  0.5772  0.4792
 5538SOL     OW27082   1.484   2.210   2.291 -0.3127 -0.5580 -0.1043
 5538SOL    HW127083   1.404   2.226   2.234 -0.3093  0.1370  0.0807
 5538SOL    HW227084   1.509   2.113   2.288 -0.3795 -0.5406 -1.1765
 5539SOL     OW27085   1.840   5.918   1.330  0.8319  0.8493  0.7052
 5539SOL    HW127086   1.922   5.873   1.365 -0.0113 -0.0191  1.5841
 5539SOL    HW227087   1.777   5.937   1.405 -0.6745 -0.3515 -0.2323
 5540SOL     OW27088   1.943   4.187   0.593  0.1418 -1.1367  0.2062
 5540SOL    HW127089   1.883   4.134   0.534 -0.4884 -1.3522  1.0412
 5540SOL    HW227090   1.895   4.267   0.627  0.9913 -0.1851 -0.7938
 5541SOL     OW27091   1.032   9.658   2.348  0.0398  0.1899 -0.3389
 5541SOL    HW127092   1.031   9.735   2.284 -0.2996 -0.1923 -0.7893
 5541SOL    HW227093   0.968   9.588   2.318  0.3509 -0.2749  0.0747
 5542SOL     OW27094   9.732   8.947   3.845 -0.4543 -0.1422  0.6425
 5542SOL    HW127095   9.731   9.008   3.766  0.2699 -2.6748 -1.4024
 5542SOL    HW227096   9.822   8.950   3.889 -0.7228  0.9527  1.1227
 5543SOL     OW27097   0.521   8.555   4.427 -0.2802  0.2805  0.2950
 5543SOL    HW127098   0.488   8.643   4.461  0.6980  0.8257 -0.1573
 5543SOL    HW227099   0.453   8.484   4.448 -0.0903  0.7340  2.6448
 5544SOL     OW27100   4.141   1.651   4.322  0.0881  0.3087  0.3493
 5544SOL    HW127101   4.093   1.589   4.259  0.1863  1.6168 -1.0478
 5544SOL    HW227102   4.103   1.743   4.313  3.5034  1.6147 -1.5686
 5545SOL     OW27103   7.999   5.651   1.491  0.4003 -0.2764  0.1092
 5545SOL    HW127104   7.911   5.661   1.444  0.4733 -0.2012 -0.0138
 5545SOL    HW227105   8.018   5.555   1.506  1.3987 -0.4387 -2.0048
 5546SOL     OW27106   3.108   9.253   1.357 -0.2683 -0.1143  0.5528
 5546SOL    HW127107   3.140   9.274   1.265  1.4878 -0.4908  1.0452
 5546SOL    HW227108   3.087   9.155   1.363 -1.0470  0.0353  0.3765
 5547SOL     OW27109   0.249   7.589   4.274  0.4153 -0.2003 -0.1149
 5547SOL    HW127110   0.304   7.670   4.254  0.2271 -0.4150 -1.5730
 5547SOL    HW227111   0.152   7.611   4.263  0.3426 -0.5081 -0.0980
 5548SOL     OW27112   7.973   8.352   2.660 -0.0534  0.1007 -0.2046
 5548SOL    HW127113   8.045   8.404   2.615 -0.4224  0.0451 -0.8660
 5548SOL    HW227114   7.912   8.313   2.591 -1.0101  0.5671  0.3662
 5549SOL     OW27115   3.151   1.735   4.249  0.3131 -0.3853  0.2533
 5549SOL    HW127116   3.094   1.815   4.266  0.0064 -0.6321  0.3803
 5549SOL    HW227117   3.095   1.652   4.253  0.9936 -0.7623  2.0575
 5550SOL     OW27118   1.747   4.208   4.413 -0.3610 -0.5680  0.5201
 5550SOL    HW127119   1.648   4.202   4.425 -0.0565 -0.2558  3.4649
 5550SOL    HW227120   1.774   4.305   4.407 -0.1326 -0.6260  0.6160
 5551SOL     OW27121   2.339   3.959   4.195  0.8284 -0.0977  0.3614
 5551SOL    HW127122   2.347   4.058   4.198  1.2206 -0.1380  0.8216
 5551SOL    HW227123   2.405   3.922   4.128 -0.5957  0.0708 -1.1699
 5552SOL     OW27124   1.079   1.729   0.703 -0.2556 -0.3054 -0.3130
 5552SOL    HW127125   1.136   1.778   0.770 -0.3595  2.2713 -2.0607
 5552SOL    HW227126   1.003   1.685   0.751 -0.4308  1.6358  1.2828
 5553SOL     OW27127   0.229   1.430   0.555 -0.0749  0.1180 -0.1075
 5553SOL    HW127128   0.320   1.458   0.525  0.1674 -0.7793 -0.2320
 5553SOL    HW227129   0.161   1.457   0.487  0.5083 -2.1643 -1.6557
 5554SOL     OW27130   4.920   0.375   3.213  0.3371  0.2427 -0.5878
 5554SOL    HW127131   4.868   0.353   3.296  0.5959  1.7064 -0.0193
 5554SOL    HW227132   5.018   0.375   3.234  0.4106  0.4836 -0.9288
 5555SOL     OW27133   3.279   9.643   0.198 -0.4986 -0.0406 -0.2842
 5555SOL    HW127134   3.258   9.690   0.112  1.5614 -0.0012 -0.7922
 5555SOL    HW227135   3.274   9.709   0.273  2.2863  1.0249 -0.9829
 5556SOL     OW27136   1.261   3.137   1.461  0.0696 -0.7164 -0.2400
 5556SOL    HW127137   1.295   3.201   1.392  0.3033  0.2786  0.7890
 5556SOL    HW227138   1.319   3.055   1.460  1.2564  0.1052  0.0960
 5557SOL     OW27139   7.406   7.856   3.658 -0.3655 -0.0100  0.6049
 5557SOL    HW127140   7.314   7.857   3.619 -0.7338  1.6024  1.4904
 5557SOL    HW227141   7.413   7.926   3.729  2.0799  1.0849 -0.6714
 5558SOL     OW27142   8.816   0.841   1.622  0.0901  0.0022  0.0568
 5558SOL    HW127143   8.837   0.855   1.719 -1.6097 -0.5212  0.5129
 5558SOL    HW227144   8.726   0.878   1.602  1.6126  2.8168 -2.0236
 5559SOL     OW27145   2.031   5.934   0.094  0.6867 -0.5613 -0.0358
 5559SOL    HW127146   2.125   5.967   0.083  0.6039  0.0063  0.8703
 5559SOL    HW227147   1.998   5.897   0.007  2.0332 -1.5166 -0.1556
 5560SOL     OW27148   1.447   0.201   4.615  0.0109  0.1481  0.1846
 5560SOL    HW127149   1.394   0.120   4.640 -0.4087  0.8778  1.7124
 5560SOL    HW227150   1.543   0.176   4.601  0.1592 -0.3803  2.0312
 5561SOL     OW27151   4.224   1.726   3.022  0.1733 -0.2814  0.4244
 5561SOL    HW127152   4.145   1.759   3.074 -0.5989 -0.8832 -0.3504
 5561SOL    HW227153   4.198   1.643   2.972  0.6594  0.7531 -1.5871
 5562SOL     OW27154   7.647   5.433   2.328  0.5284 -0.0899  0.0988
 5562SOL    HW127155   7.714   5.368   2.365  1.0868  0.1921 -0.4115
 5562SOL    HW227156   7.695   5.507   2.280 -0.1606 -0.0571 -0.5463
 5563SOL     OW27157   0.995   8.385   2.018 -0.4661  0.3740 -0.1318
 5563SOL    HW127158   0.945   8.463   2.055 -1.4098 -0.0600 -0.4512
 5563SOL    HW227159   0.968   8.371   1.923 -2.9159 -2.4038  0.8869
 5564SOL     OW27160   2.099   3.174   2.546 -0.1891 -0.3703  0.2633
 5564SOL    HW127161   2.025   3.187   2.480  0.1510 -0.4106 -0.1316
 5564SOL    HW227162   2.167   3.247   2.534 -0.8385  0.4612  1.5527
 5565SOL     OW27163   1.901   0.490   3.919  0.1385 -1.0285 -0.2490
 5565SOL    HW127164   1.887   0.449   3.829  0.8259  2.4048 -2.0047
 5565SOL    HW227165   1.819   0.475   3.976 -0.5314 -2.7182 -1.6085
 5566SOL     OW27166   0.009   8.484   0.933  0.5098 -0.5256 -0.2127
 5566SOL    HW127167  -0.005   8.400   0.986  1.5565 -1.7674 -1.8606
 5566SOL    HW227168   0.104   8.488   0.901  0.4706  1.2916 -0.1860
 5567SOL     OW27169   7.657   0.007   3.357  0.1468  0.2046  0.2105
 5567SOL    HW127170   7.737  -0.022   3.408  2.1337  2.4768 -1.5085
 5567SOL    HW227171   7.618   0.088   3.401 -0.4348 -0.1126  0.2859
 5568SOL     OW27172   4.240   0.161   2.099 -0.5977  0.3909 -0.2201
 5568SOL    HW127173   4.214   0.178   2.194  0.3646  1.6305 -0.1675
 5568SOL    HW227174   4.338   0.139   2.095 -0.5394  0.7815 -0.9790
 5569SOL     OW27175   6.888   8.953   4.189  0.3970 -0.4894  0.2637
 5569SOL    HW127176   6.873   9.020   4.262  3.4552 -0.0205  0.5361
 5569SOL    HW227177   6.834   8.978   4.109  0.1876  1.3524  0.9546
 5570SOL     OW27178   1.808   4.659   1.996 -0.1887  0.5466  0.1034
 5570SOL    HW127179   1.768   4.643   2.086 -1.5548  0.9397 -0.4300
 5570SOL    HW227180   1.749   4.619   1.925  1.4692 -0.8150 -0.5470
 5571SOL     OW27181   7.910   9.680   0.162  0.6485 -0.1235  0.0070
 5571SOL    HW127182   7.830   9.730   0.128  0.2672 -0.0979  0.9522
 5571SOL    HW227183   7.938   9.717   0.250  0.6266 -1.2931  0.5075
 5572SOL     OW27184   4.415   2.523   1.875  0.1670  0.3455  0.1391
 5572SOL    HW127185   4.404   2.586   1.952  0.2220  1.1804 -0.5385
 5572SOL    HW227186   4.325   2.495   1.842  0.1384 -1.0519  1.3455
 5573SOL     OW27187   4.709   0.645   2.311  0.4740  0.3031 -0.1295
 5573SOL    HW127188   4.745   0.690   2.229  0.2758  1.2439  0.2864
 5573SOL    HW227189   4.615   0.677   2.327  0.3190 -0.2920  0.1534
 5574SOL     OW27190   9.608   6.953   2.327 -0.2687  0.1576 -0.0088
 5574SOL    HW127191   9.554   6.952   2.243 -0.6638  2.3342  0.1790
 5574SOL    HW227192   9.601   7.044   2.370  1.6972 -0.2440  1.2205
 5575SOL     OW27193   2.687   5.117   4.611  0.8883 -0.0478 -0.4821
 5575SOL    HW127194   2.687   5.146   4.515  0.9581 -2.2931 -1.1729
 5575SOL    HW227195   2.593   5.100   4.640  0.9079  0.1706 -0.2927
 5576SOL     OW27196   3.799   2.493   2.401 -0.1797 -0.2558  0.7602
 5576SOL    HW127197   3.833   2.426   2.467  0.0944  0.5143  1.4002
 5576SOL    HW227198   3.703   2.476   2.383  0.0538 -1.2397  0.4177
 5577SOL     OW27199   1.444   2.158   3.030 -0.1259 -0.2228 -0.1294
 5577SOL    HW127200   1.381   2.084   3.009 -0.7361  0.2131  0.1677
 5577SOL    HW227201   1.502   2.131   3.107  0.1607 -0.6852 -0.5082
 5578SOL     OW27202   3.767   1.600   1.956  0.5899  0.0092  1.0103
 5578SOL    HW127203   3.771   1.532   1.882  2.1138 -0.0835  1.1644
 5578SOL    HW227204   3.699   1.572   2.024  1.8529 -1.8444  1.5410
 5579SOL     OW27205   1.719   3.273   1.555 -0.1249 -0.0108 -0.6931
 5579SOL    HW127206   1.669   3.279   1.641  0.1128  0.2172 -0.5721
 5579SOL    HW227207   1.657   3.244   1.482 -0.0063 -1.7087 -0.1446
 5580SOL     OW27208   9.380   8.947   1.317  0.3065 -0.6340 -0.0954
 5580SOL    HW127209   9.335   8.875   1.266  1.0006 -0.0807 -1.5013
 5580SOL    HW227210   9.320   8.978   1.391  0.0380 -2.6837  0.5718
 5581SOL     OW27211   0.222   4.156   0.689 -0.3956  0.2714 -0.3488
 5581SOL    HW127212   0.319   4.135   0.699 -0.1785  0.8764 -1.1635
 5581SOL    HW227213   0.171   4.111   0.763  0.7639  1.9214  1.5169
 5582SOL     OW27214   2.272   1.114   1.295  0.0879 -0.7245  0.8613
 5582SOL    HW127215   2.287   1.116   1.393 -1.2932 -1.0615  1.0860
 5582SOL    HW227216   2.314   1.194   1.253 -0.5801  0.1914  1.9127
 5583SOL     OW27217   2.180   4.742   0.756  0.0503  0.3195  0.0253
 5583SOL    HW127218   2.270   4.701   0.763 -0.5428 -1.0570 -0.2791
 5583SOL    HW227219   2.171   4.790   0.668  0.6281  0.8166  0.2384
 5584SOL     OW27220   9.569   9.493   4.577  0.0404 -0.7182  0.1141
 5584SOL    HW127221   9.616   9.461   4.659 -1.4651 -1.8069  0.5791
 5584SOL    HW227222   9.528   9.415   4.530 -1.5505  0.2234 -0.1052
 5585SOL     OW27223   0.382   1.616   1.282 -0.1089 -0.0885  0.1989
 5585SOL    HW127224   0.381   1.606   1.183  1.5081  0.1470  0.1515
 5585SOL    HW227225   0.290   1.602   1.318 -0.9896  1.3651 -1.4829
 5586SOL     OW27226   0.042   5.120   0.380 -0.0411  0.2892  0.2024
 5586SOL    HW127227   0.043   5.044   0.315  0.6214  0.0962  0.4382
 5586SOL    HW227228  -0.031   5.105   0.447 -0.0892  0.0008  0.0863
 5587SOL     OW27229   2.170   8.436   1.086  0.2655 -0.2276 -0.1405
 5587SOL    HW127230   2.212   8.464   0.999 -0.0632  2.0615  0.4036
 5587SOL    HW227231   2.117   8.352   1.072  0.2570  0.0798 -2.1397
 5588SOL     OW27232   5.434   0.687   3.687 -0.3424  0.3519  1.0540
 5588SOL    HW127233   5.383   0.665   3.770 -0.0161 -1.4415  0.8015
 5588SOL    HW227234   5.527   0.653   3.695 -0.6292 -0.8548 -0.4904
 5589SOL     OW27235   4.624   1.687   2.223  0.5750 -0.3453 -0.0271
 5589SOL    HW127236   4.566   1.762   2.254 -0.9437 -1.4614 -0.1587
 5589SOL    HW227237   4.651   1.703   2.128  0.0641 -0.0971 -0.1294
 5590SOL     OW27238   0.203   5.182   1.641  0.3907  0.3027 -0.2044
 5590SOL    HW127239   0.107   5.157   1.634  0.7230 -1.8259  1.9758
 5590SOL    HW227240   0.248   5.170   1.552 -0.7317 -1.5342 -0.5434
 5591SOL     OW27241   3.365   7.009   4.015 -0.2602  0.3253  0.6176
 5591SOL    HW127242   3.434   7.028   3.946 -0.7686 -1.1576 -0.3350
 5591SOL    HW227243   3.280   7.058   3.993 -0.0612  0.7750  0.8413
 5592SOL     OW27244   3.021   3.003   2.915  0.3697  0.3878  0.7230
 5592SOL    HW127245   3.025   2.907   2.941  1.6167 -0.0235 -0.9721
 5592SOL    HW227246   3.111   3.044   2.923 -0.1916  1.4849  1.6169
 5593SOL     OW27247   0.387   5.627   0.610  0.1535  0.7636  0.5897
 5593SOL    HW127248   0.450   5.607   0.685  0.8838 -0.4120 -0.3260
 5593SOL    HW227249   0.439   5.648   0.527 -0.6513 -0.4455 -0.2293
 5594SOL     OW27250   3.154   4.330   3.066  0.3671  0.0562  0.2700
 5594SOL    HW127251   3.102   4.291   3.142  0.2011 -0.1895  0.0355
 5594SOL    HW227252   3.173   4.258   2.999 -0.6752  0.5488 -0.5710
 5595SOL     OW27253   2.143   3.171   4.630 -0.1501 -0.5526  0.1612
 5595SOL    HW127254   2.182   3.235   4.564 -1.8276  1.6705  1.2528
 5595SOL    HW227255   2.057   3.134   4.594 -1.2858  0.9829  1.1823
 5596SOL     OW27256   2.265   7.207   0.061  0.1839  0.4923 -0.3745
 5596SOL    HW127257   2.226   7.133   0.008 -2.5260  1.5174  0.1088
 5596SOL    HW227258   2.342   7.173   0.116  0.4753 -1.3968 -1.9333
 5597SOL     OW27259   8.186   9.209   1.704  0.1612 -0.4596  0.1909
 5597SOL    HW127260   8.115   9.235   1.768  0.4218 -0.1175  0.3445
 5597SOL    HW227261   8.258   9.279   1.703 -0.0970 -0.1954 -0.8607
 5598SOL     OW27262   1.275   1.385   0.705 -1.0733  0.5087 -0.0639
 5598SOL    HW127263   1.370   1.373   0.732 -1.3601 -0.1453  0.7031
 5598SOL    HW227264   1.268   1.454   0.633  0.1930 -0.9142 -1.5838
 5599SOL     OW27265   4.148   4.035   3.993 -0.2328 -0.5390 -0.0776
 5599SOL    HW127266   4.152   4.056   4.091 -0.6307 -0.3566 -0.0994
 5599SOL    HW227267   4.102   4.110   3.945  0.6781 -0.2554 -0.5131
 5600SOL     OW27268   4.707   0.673   3.996  0.7657  0.2303  0.2699
 5600SOL    HW127269   4.654   0.724   4.064  2.0563  1.8047  0.1233
 5600SOL    HW227270   4.718   0.728   3.914 -0.5907 -1.5877 -1.1693
 5601SOL     OW27271   3.120   8.967   0.693 -0.6987 -0.5267 -0.5416
 5601SOL    HW127272   3.198   8.922   0.649 -0.1804  0.4752 -0.6488
 5601SOL    HW227273   3.040   8.907   0.689 -0.6740 -0.4244 -2.8872
 5602SOL     OW27274   9.167   5.252   2.804  0.2979  0.0670  0.8793
 5602SOL    HW127275   9.150   5.330   2.744 -1.3897 -0.6567  0.3825
 5602SOL    HW227276   9.125   5.170   2.764  2.1202 -1.1244  1.3433
 5603SOL     OW27277   8.989   8.368   4.317  0.4458 -0.1989  0.4575
 5603SOL    HW127278   9.048   8.308   4.369 -0.5447 -0.0116  1.8310
 5603SOL    HW227279   8.913   8.315   4.278  0.5997 -0.1539  0.0922
 5604SOL     OW27280   2.226   3.917   1.332  0.3452  0.0108 -0.0943
 5604SOL    HW127281   2.305   3.869   1.293  1.1139 -0.6210  2.1898
 5604SOL    HW227282   2.165   3.852   1.377  0.6479  0.9612  1.7412
 5605SOL     OW27283   9.987   8.410   3.953  0.1028 -0.2169 -0.1943
 5605SOL    HW127284  10.038   8.385   4.035  0.9275 -0.0542 -0.6468
 5605SOL    HW227285   9.911   8.470   3.977  0.1335 -0.4508  0.4876
 5606SOL     OW27286   1.461   7.487   1.665  0.1113  0.1145  0.5226
 5606SOL    HW127287   1.397   7.547   1.616  0.0462 -2.0779 -2.2249
 5606SOL    HW227288   1.412   7.407   1.700  0.9855 -0.6155  0.1078
 5607SOL     OW27289   2.731   5.437   0.446 -0.0000  0.0173  0.4188
 5607SOL    HW127290   2.749   5.420   0.543 -0.4461 -0.3435  0.4393
 5607SOL    HW227291   2.813   5.477   0.404  0.3098 -0.1345  0.8697
 5608SOL     OW27292   1.757   1.149   3.427 -0.4171 -0.2227  0.1000
 5608SOL    HW127293   1.787   1.107   3.513  0.3666 -0.1327 -0.1265
 5608SOL    HW227294   1.662   1.125   3.410 -0.7482  0.1866  1.2676
 5609SOL     OW27295   1.276   8.229   2.445 -0.2922 -0.1593 -0.1217
 5609SOL    HW127296   1.365   8.209   2.484 -0.1811 -0.4878 -0.5422
 5609SOL    HW227297   1.227   8.144   2.425 -0.3090 -0.0003 -0.7780
 5610SOL     OW27298   0.974   1.706   3.984  0.3813  0.3918  0.5654
 5610SOL    HW127299   0.942   1.755   4.064 -0.4134  0.8517 -0.0195
 5610SOL    HW227300   0.969   1.607   4.000 -2.5608  0.4031  0.0702
 5611SOL     OW27301   2.496   0.074   4.684  0.2468 -0.1572 -0.1504
 5611SOL    HW127302   2.504   0.089   4.783  0.0614 -0.4177 -0.0957
 5611SOL    HW227303   2.513  -0.023   4.664 -0.3276 -0.2226 -0.3096
 5612SOL     OW27304   2.402   2.049   2.040 -0.2858  0.6690  0.4655
 5612SOL    HW127305   2.488   2.024   2.084  0.2496  1.0067 -0.3760
 5612SOL    HW227306   2.360   2.125   2.090  0.0532  0.7054  0.6969
 5613SOL     OW27307   9.850   6.173   2.051 -0.4586  0.1492  0.9530
 5613SOL    HW127308   9.821   6.077   2.054 -0.2443  0.0547  0.1458
 5613SOL    HW227309   9.788   6.225   1.992  0.3237  0.1857  0.1499
 5614SOL     OW27310   3.646   0.182   0.703  0.0682 -0.6561 -0.5536
 5614SOL    HW127311   3.578   0.255   0.694  0.0508 -0.7526 -1.2424
 5614SOL    HW227312   3.701   0.197   0.784 -1.0850 -0.8179  0.2801
 5615SOL     OW27313   3.847   4.259   0.877  0.0673 -0.3693 -0.1347
 5615SOL    HW127314   3.841   4.355   0.850  0.1962 -0.2403  0.2808
 5615SOL    HW227315   3.831   4.201   0.798 -1.1697 -0.0100 -0.1560
 5616SOL     OW27316   2.450   2.512   2.571  0.2342 -0.3876  0.2604
 5616SOL    HW127317   2.533   2.563   2.551 -0.2094  0.0191 -0.6071
 5616SOL    HW227318   2.403   2.553   2.649  0.6802 -0.4253  0.5509
 5617SOL     OW27319   2.616   8.482   1.896  0.1798 -0.0065 -1.0167
 5617SOL    HW127320   2.687   8.548   1.919  0.8417 -1.2214  0.4935
 5617SOL    HW227321   2.533   8.502   1.949  1.0773 -1.6491  1.0504
 5618SOL     OW27322   2.970   8.367   1.766 -0.0513  0.2166 -0.1379
 5618SOL    HW127323   3.037   8.420   1.715 -0.6874  1.6404  0.4944
 5618SOL    HW227324   2.890   8.423   1.784 -0.0458 -0.4129  1.9916
 5619SOL     OW27325   1.286   3.337   0.133  0.4472  0.1074 -0.1140
 5619SOL    HW127326   1.276   3.306   0.227  0.1177 -0.5508 -0.3639
 5619SOL    HW227327   1.365   3.398   0.126 -0.7550  1.8089  0.9955
 5620SOL     OW27328   3.648   0.334   1.359  0.1634 -0.2039 -0.3438
 5620SOL    HW127329   3.578   0.314   1.428  1.1131 -0.9727  0.4104
 5620SOL    HW227330   3.710   0.405   1.393 -0.9842  1.4173 -1.5283
 5621SOL     OW27331   0.244   3.931   2.788  0.7537  0.2572  0.2187
 5621SOL    HW127332   0.151   3.893   2.782  1.5743 -1.5848 -1.4586
 5621SOL    HW227333   0.272   3.936   2.884 -0.8934  0.3704  0.7073
 5622SOL     OW27334   3.473   2.116   1.619 -0.2520  0.1031 -0.3378
 5622SOL    HW127335   3.410   2.075   1.684 -0.7357 -0.9515 -1.4516
 5622SOL    HW227336   3.515   2.045   1.563  1.0040  0.8944 -0.4432
 5623SOL     OW27337   3.389   5.865   2.252 -0.4044  0.4069  0.3020
 5623SOL    HW127338   3.292   5.853   2.235 -0.5193  0.6289  0.7759
 5623SOL    HW227339   3.439   5.866   2.166 -0.8191  0.2668  0.0617
 5624SOL     OW27340   2.217   8.931   4.046  0.2243 -0.4663  0.4912
 5624SOL    HW127341   2.255   8.838   4.048  0.4439 -0.3782  2.9621
 5624SOL    HW227342   2.234   8.973   3.957  1.8455 -2.0943  0.0083
 5625SOL     OW27343   0.114   5.293   3.576 -0.0053  0.7140  0.0774
 5625SOL    HW127344   0.019   5.313   3.553  0.5918  2.3883 -1.0507
 5625SOL    HW227345   0.157   5.375   3.613  1.3194  0.3076 -0.5331
 5626SOL     OW27346   1.345   7.357   4.639  0.5384  0.1536  0.3945
 5626SOL    HW127347   1.346   7.280   4.703 -0.2935  0.3360  0.6212
 5626SOL    HW227348   1.255   7.399   4.638  0.5244  0.1189 -0.9341
 5627SOL     OW27349   3.227   8.771   3.426 -0.8126  0.0104  0.0783
 5627SOL    HW127350   3.218   8.771   3.326  0.5284 -2.8684 -0.0953
 5627SOL    HW227351   3.136   8.765   3.467 -1.2485 -1.5316 -1.0482
 5628SOL     OW27352   4.816   9.125   2.095  0.5445 -0.3408  0.6426
 5628SOL    HW127353   4.884   9.086   2.033  0.2396 -1.6209  1.1017
 5628SOL    HW227354   4.859   9.148   2.182  0.5721 -0.3321  0.6266
 5629SOL     OW27355   8.485   5.786   1.332  0.2696  0.7174  0.0317
 5629SOL    HW127356   8.475   5.884   1.345  0.7551  0.7362  0.2650
 5629SOL    HW227357   8.446   5.760   1.243 -0.7867  0.9556  0.4159
 5630SOL     OW27358   0.074   4.878   0.246  0.2496  0.3208  0.4274
 5630SOL    HW127359   0.162   4.865   0.200  0.1405  0.5791  0.1403
 5630SOL    HW227360   0.059   4.805   0.311  0.3608 -0.1083 -0.0279
 5631SOL     OW27361   8.376   8.366   3.894  0.1483  0.0199 -0.4125
 5631SOL    HW127362   8.420   8.455   3.885  0.4769 -0.1959 -1.0096
 5631SOL    HW227363   8.292   8.375   3.948  2.4638 -0.0934  3.3402
 5632SOL     OW27364   8.110   9.887   2.866 -0.1191 -0.2533  0.2644
 5632SOL    HW127365   8.130   9.820   2.794 -1.2696  1.1893 -1.4531
 5632SOL    HW227366   8.150   9.856   2.952  0.5871 -2.4364 -0.7980
 5633SOL     OW27367   2.860   1.764   3.233 -0.1877  0.2671  0.1915
 5633SOL    HW127368   2.798   1.699   3.278 -0.2533  0.3640  0.2417
 5633SOL    HW227369   2.809   1.846   3.207  0.1475  0.8101  1.2155
 5634SOL     OW27370   0.317   0.885   3.879  0.3781  0.1305  0.6008
 5634SOL    HW127371   0.250   0.848   3.944  0.3057  0.0202  0.4640
 5634SOL    HW227372   0.388   0.816   3.863  1.8897  1.1582  2.6675
 5635SOL     OW27373   2.727   7.736   2.744  0.5585 -0.5967 -0.0450
 5635SOL    HW127374   2.655   7.683   2.701 -2.7926  1.7267  2.4024
 5635SOL    HW227375   2.743   7.702   2.837 -0.3597  1.4561  0.9009
 5636SOL     OW27376   3.314   2.486   2.814  0.0259 -0.5204  0.3829
 5636SOL    HW127377   3.271   2.575   2.826 -1.5751 -1.2480  0.1281
 5636SOL    HW227378   3.413   2.498   2.806 -0.0256  1.0750  1.9039
 5637SOL     OW27379   8.221   5.381   1.695  0.6709  0.1137  0.2295
 5637SOL    HW127380   8.245   5.340   1.783  1.4568  0.2562  0.0821
 5637SOL    HW227381   8.303   5.413   1.649  0.4554 -1.3683 -1.2611
 5638SOL     OW27382   3.297   3.644   4.042 -0.2756 -0.8609  0.6157
 5638SOL    HW127383   3.249   3.721   4.000  1.3854  0.6800  1.4844
 5638SOL    HW227384   3.275   3.641   4.139  0.3246 -0.9589  0.7477
 5639SOL     OW27385   8.967   9.003   2.926 -0.1876 -0.5458 -0.0631
 5639SOL    HW127386   8.986   8.961   3.016 -1.5527 -1.8907 -0.3735
 5639SOL    HW227387   9.028   8.963   2.858  0.9588  0.5910  0.2761
 5640SOL     OW27388   1.365   7.356   2.109 -0.0530  0.4154  0.3886
 5640SOL    HW127389   1.355   7.401   2.198 -0.6148  0.5505  0.2565
 5640SOL    HW227390   1.275   7.327   2.076  0.3110 -0.9835  0.5712
 5641SOL     OW27391   1.734   6.249   1.986 -0.6460 -0.1814  0.1154
 5641SOL    HW127392   1.710   6.157   2.019 -1.6543 -1.1100 -3.0640
 5641SOL    HW227393   1.690   6.265   1.898  0.8614  2.7527 -0.1452
 5642SOL     OW27394   4.019   3.408   2.593 -0.1389 -0.4398  0.0136
 5642SOL    HW127395   4.015   3.314   2.559  2.2828  0.0300 -1.7678
 5642SOL    HW227396   4.100   3.453   2.554 -0.2300  1.7967  2.3218
 5643SOL     OW27397   3.512   2.602   1.784  0.2950 -0.1161  0.0782
 5643SOL    HW127398   3.522   2.503   1.785  0.7578 -0.0675  0.5550
 5643SOL    HW227399   3.422   2.626   1.747 -0.6532 -0.8048  1.8579
 5644SOL     OW27400   7.585   8.554   3.131  0.2493 -0.2590  0.3292
 5644SOL    HW127401   7.655   8.626   3.141  0.1856 -0.2076  0.4058
 5644SOL    HW227402   7.547   8.557   3.039  0.7906 -0.6893  0.0900
 5645SOL     OW27403   2.855   8.373   2.648  0.0241  0.2384 -0.1356
 5645SOL    HW127404   2.879   8.285   2.688 -1.6504 -0.2153 -0.1114
 5645SOL    HW227405   2.920   8.395   2.575  0.4974 -0.9576 -0.0848
 5646SOL     OW27406   3.973   9.156   4.656  0.1368 -0.1869  0.1069
 5646SOL    HW127407   3.880   9.123   4.639 -0.4469  0.7462  1.3800
 5646SOL    HW227408   4.037   9.104   4.600 -0.9293 -2.3153  0.7825
 5647SOL     OW27409   0.230   3.047   2.660  0.1106 -0.5867  0.4651
 5647SOL    HW127410   0.321   3.026   2.625  0.2410 -0.4012  0.6906
 5647SOL    HW227411   0.164   3.044   2.585  0.3835 -0.2225  0.2076
 5648SOL     OW27412   1.927   3.537   3.504 -0.2436  0.0460  0.0213
 5648SOL    HW127413   1.835   3.498   3.498  0.4730 -1.4268 -1.5829
 5648SOL    HW227414   1.995   3.467   3.484  1.2177  1.2714  0.6010
 5649SOL     OW27415   9.008   8.709   3.316 -0.4645  0.1320 -0.1141
 5649SOL    HW127416   8.994   8.669   3.407 -1.1436  1.2777  0.3046
 5649SOL    HW227417   8.937   8.677   3.254 -1.7730  1.6759  0.5636
 5650SOL     OW27418   9.729   4.741   1.360 -0.0906 -0.3217 -0.9865
 5650SOL    HW127419   9.740   4.658   1.305  3.1459 -0.7325  0.2020
 5650SOL    HW227420   9.683   4.719   1.446  2.4874 -1.3201  0.1895
 5651SOL     OW27421   7.099   8.667   2.837  0.1244  0.1324 -0.4785
 5651SOL    HW127422   7.172   8.602   2.818  0.4754  0.0874  0.9793
 5651SOL    HW227423   7.022   8.620   2.880 -0.2225  0.4153 -0.7870
 5652SOL     OW27424   9.863   5.295   3.453 -0.3424  0.4842  0.6454
 5652SOL    HW127425   9.829   5.202   3.464  0.2973  0.0968 -0.6228
 5652SOL    HW227426   9.821   5.337   3.373  0.4098  0.7889  0.4022
 5653SOL     OW27427   2.880   1.092   0.789  0.1206 -0.2408 -0.7724
 5653SOL    HW127428   2.898   0.993   0.792 -0.6103 -0.4102 -1.6268
 5653SOL    HW227429   2.783   1.107   0.769  0.6219  0.6435 -2.6210
 5654SOL     OW27430   0.234   2.165   1.742  0.4100  0.6516 -0.1305
 5654SOL    HW127431   0.228   2.143   1.840 -1.9327  1.1812 -0.1187
 5654SOL    HW227432   0.164   2.232   1.719  0.6058  0.1549 -2.2944
 5655SOL     OW27433   4.250   8.368   1.465  0.2177 -0.1285  0.4654
 5655SOL    HW127434   4.335   8.398   1.509 -0.1808  0.1510  1.0514
 5655SOL    HW227435   4.235   8.421   1.382 -0.8410  1.8175  1.8626
 5656SOL     OW27436   5.818   6.797   2.660  0.4127 -0.2687 -0.2862
 5656SOL    HW127437   5.905   6.841   2.683  1.6753 -2.2977 -1.0197
 5656SOL    HW227438   5.806   6.796   2.561  1.2594 -3.0917 -0.3973
 5657SOL     OW27439   9.696   5.343   2.720 -0.1157  0.3268 -0.1435
 5657SOL    HW127440   9.772   5.395   2.758  1.8699 -0.1756 -3.2127
 5657SOL    HW227441   9.687   5.256   2.768  1.2179  0.4280  0.3027
 5658SOL     OW27442   9.976   8.157   2.776 -0.4529  0.3407 -0.0734
 5658SOL    HW127443   9.923   8.196   2.701  0.3327  1.5684  0.0098
 5658SOL    HW227444   9.948   8.062   2.789  0.3558 -0.3278 -2.8211
 5659SOL     OW27445   7.026   9.940   0.782  0.1005 -0.1380 -0.1707
 5659SOL    HW127446   6.973   9.869   0.828  1.3801 -0.2724  1.1747
 5659SOL    HW227447   7.123   9.930   0.807  0.3181  1.9611 -0.0877
 5660SOL     OW27448   0.459   4.632   1.261  0.7208  0.3507  0.0455
 5660SOL    HW127449   0.520   4.559   1.231  2.6221  2.3551 -1.1891
 5660SOL    HW227450   0.504   4.687   1.331  0.0073  1.3402 -0.2537
 5661SOL     OW27451   0.199   6.876   2.391 -0.0067 -0.0721  0.7868
 5661SOL    HW127452   0.119   6.878   2.451 -0.8140 -2.3363 -0.1593
 5661SOL    HW227453   0.283   6.881   2.446 -0.7549  0.3133  1.9128
 5662SOL     OW27454   3.723   7.538   0.560  0.4306 -0.0557  0.5141
 5662SOL    HW127455   3.785   7.608   0.525  2.0908 -0.2997  2.8936
 5662SOL    HW227456   3.630   7.575   0.563  1.1215  1.7168  0.7660
 5663SOL     OW27457   3.502   4.216   2.718 -0.2155 -0.1692  0.1926
 5663SOL    HW127458   3.463   4.138   2.670  0.9474 -0.9629  0.5077
 5663SOL    HW227459   3.495   4.202   2.817  0.3482 -0.0632  0.2509
 5664SOL     OW27460   1.161   1.838   2.563  0.2774  0.3862 -0.0531
 5664SOL    HW127461   1.250   1.846   2.608  0.0534  3.0112 -0.0352
 5664SOL    HW227462   1.132   1.742   2.565  2.4477 -0.2885  1.1628
 5665SOL     OW27463   2.428   3.775   1.238 -0.0798  0.1582  0.0316
 5665SOL    HW127464   2.401   3.680   1.220  2.0591 -0.7483  1.4127
 5665SOL    HW227465   2.464   3.816   1.154  0.8169 -0.8997 -0.1134
 5666SOL     OW27466   1.895   2.721   3.756  0.1706 -0.0748 -0.3807
 5666SOL    HW127467   1.880   2.774   3.672 -0.9841 -0.2481 -0.2918
 5666SOL    HW227468   1.911   2.625   3.732 -2.6967 -0.6209 -0.3021
 5667SOL     OW27469   9.344   7.219   2.027 -0.3251  0.1220  0.3069
 5667SOL    HW127470   9.283   7.154   2.072  1.3228 -1.1593  0.7596
 5667SOL    HW227471   9.368   7.291   2.092  0.0901 -0.3761  0.7137
 5668SOL     OW27472   1.736   5.166   4.179 -0.3401 -0.0551 -0.5871
 5668SOL    HW127473   1.801   5.140   4.107 -0.3568 -2.5535  0.2529
 5668SOL    HW227474   1.758   5.117   4.263 -1.1007  1.8795  0.7724
 5669SOL     OW27475   1.470   6.243   0.704  1.2754  0.2558  0.1520
 5669SOL    HW127476   1.412   6.232   0.623  3.2537  1.2861 -1.4578
 5669SOL    HW227477   1.466   6.160   0.760 -2.2625  0.5767  0.4662
 5670SOL     OW27478   6.711   9.894   0.408  0.4864 -0.3076  0.4984
 5670SOL    HW127479   6.644   9.841   0.356  0.5684 -1.4611  1.5574
 5670SOL    HW227480   6.665   9.939   0.485  0.5032  0.7991 -0.1252
 5671SOL     OW27481   1.849   7.387   0.188  0.2513  0.0002 -0.0749
 5671SOL    HW127482   1.928   7.326   0.191  0.7189  0.6189  0.6803
 5671SOL    HW227483   1.878   7.478   0.158 -0.0483  0.4127  0.8622
 5672SOL     OW27484   1.743   9.088   0.703 -0.0197 -0.1770  0.5011
 5672SOL    HW127485   1.702   9.045   0.783  1.0072 -0.2884  0.9823
 5672SOL    HW227486   1.684   9.162   0.671 -1.0788 -0.9963  0.5544
 5673SOL     OW27487   4.221   4.270   4.266 -0.3422 -0.5002 -0.4021
 5673SOL    HW127488   4.319   4.252   4.274  0.6267  4.2601  0.1740
 5673SOL    HW227489   4.180   4.268   4.357 -0.4170 -0.8626 -0.4465
 5674SOL     OW27490   8.501   9.463   1.483  0.1466  0.4847 -0.3165
 5674SOL    HW127491   8.556   9.529   1.434 -0.7457  1.7671  0.3790
 5674SOL    HW227492   8.464   9.396   1.419  0.0197  1.4086 -1.2203
 5675SOL     OW27493   5.119   8.711   2.967  0.1047 -0.5375  0.8436
 5675SOL    HW127494   5.212   8.681   2.949  0.0197 -0.3908  0.1333
 5675SOL    HW227495   5.113   8.747   3.060  1.8514  3.5541 -0.4978
 5676SOL     OW27496   4.842   7.784   2.412 -0.3116 -0.5865  0.6914
 5676SOL    HW127497   4.871   7.847   2.340 -0.2586 -1.5835 -0.1843
 5676SOL    HW227498   4.791   7.709   2.371  1.9081 -2.5361  1.3449
 5677SOL     OW27499   2.083   2.439   4.317 -0.0760  0.2014 -0.9198
 5677SOL    HW127500   1.999   2.441   4.372 -0.2048  0.1719 -1.1132
 5677SOL    HW227501   2.156   2.486   4.366 -0.2420  0.3458 -0.8089
 5678SOL     OW27502   3.235   0.624   3.623  0.3252 -0.7876 -0.8941
 5678SOL    HW127503   3.244   0.634   3.524 -1.5900 -0.8264 -1.0900
 5678SOL    HW227504   3.163   0.557   3.643  0.8259 -0.9112  0.5282
 5679SOL     OW27505   3.687   9.541   0.500  0.0651 -0.1973 -0.5855
 5679SOL    HW127506   3.604   9.526   0.553  0.5152 -0.1708  0.1442
 5679SOL    HW227507   3.765   9.500   0.548  0.7652  1.4079 -0.3205
 5680SOL     OW27508   1.360   5.172   0.232  0.3800 -0.5898  0.5615
 5680SOL    HW127509   1.319   5.260   0.257 -0.8960 -0.5519 -1.5754
 5680SOL    HW227510   1.434   5.151   0.295  1.4660  2.5695  0.4017
 5681SOL     OW27511   3.252   0.160   2.029 -0.0727  0.0404  0.2845
 5681SOL    HW127512   3.286   0.115   1.946  1.3999 -1.3221  1.5897
 5681SOL    HW227513   3.319   0.151   2.102 -0.8029  2.3402  1.2863
 5682SOL     OW27514   1.762   1.211   1.081 -0.2060 -0.1207  0.1107
 5682SOL    HW127515   1.816   1.206   1.165  1.6541 -3.0238 -1.1874
 5682SOL    HW227516   1.665   1.201   1.104  0.2928 -1.1228  1.8956
 5683SOL     OW27517   0.057   0.127   0.764 -0.5867 -0.3442 -0.4415
 5683SOL    HW127518   0.106   0.213   0.756 -2.5149  0.6543 -1.7053
 5683SOL    HW227519  -0.005   0.131   0.842  0.0165 -0.9573  0.0802
 5684SOL     OW27520   0.358   5.158   0.184 -0.1737  0.3711 -0.1469
 5684SOL    HW127521   0.374   5.179   0.280 -1.7373  0.6958  0.0477
 5684SOL    HW227522   0.325   5.239   0.136 -0.6735 -0.1219 -0.6573
 5685SOL     OW27523   0.723   6.864   4.740 -0.4149  0.0200  0.0724
 5685SOL    HW127524   0.771   6.939   4.784 -0.9056 -0.0193  0.6992
 5685SOL    HW227525   0.789   6.801   4.699 -0.0025  0.7316 -0.3611
 5686SOL     OW27526   1.196   4.507   1.278  0.1762  0.2803 -0.9199
 5686SOL    HW127527   1.151   4.547   1.197 -3.6873  0.0303  0.9924
 5686SOL    HW227528   1.259   4.574   1.317 -1.8079  2.3828 -1.1969
 5687SOL     OW27529   1.174   1.564   0.506 -0.4391 -0.2299  0.0201
 5687SOL    HW127530   1.138   1.603   0.591  1.3302  0.0278  0.6681
 5687SOL    HW227531   1.134   1.612   0.428 -0.3595  1.0640  0.7603
 5688SOL     OW27532   2.647   3.597   4.205 -0.0487  0.2415 -0.0026
 5688SOL    HW127533   2.714   3.529   4.237  0.7047  0.6406 -0.6950
 5688SOL    HW227534   2.675   3.630   4.114 -1.5248 -0.0319 -0.5605
 5689SOL     OW27535   9.640   9.817   2.345 -0.1557 -0.4606  0.1518
 5689SOL    HW127536   9.602   9.778   2.428  1.8803  0.6989  1.6957
 5689SOL    HW227537   9.658   9.915   2.359 -0.5071 -0.0608 -1.9239
 5690SOL     OW27538   9.523   6.303   1.300 -0.2111  0.4742 -0.7872
 5690SOL    HW127539   9.430   6.269   1.287 -0.0052  0.5778 -2.7600
 5690SOL    HW227540   9.588   6.234   1.268  0.5541 -0.8076  3.1994
 5691SOL     OW27541   0.733   5.719   3.241  0.4193  0.1629 -0.2552
 5691SOL    HW127542   0.654   5.659   3.237  1.2663 -0.8888 -2.0065
 5691SOL    HW227543   0.780   5.706   3.329 -0.7128 -0.0034  0.3378
 5692SOL     OW27544   2.136   7.191   2.478 -0.2529 -0.1294  0.7046
 5692SOL    HW127545   2.069   7.264   2.489  0.1808  0.6300 -1.3295
 5692SOL    HW227546   2.136   7.160   2.383  0.4608 -1.9183  1.2582
 5693SOL     OW27547   8.166   7.666   2.965  0.0192 -0.0722  0.2018
 5693SOL    HW127548   8.236   7.614   2.915  0.3332  0.4613  0.0844
 5693SOL    HW227549   8.127   7.736   2.906  0.0043  0.2031  0.5353
 5694SOL     OW27550   1.723   5.939   1.597  0.5508 -0.0350  0.2379
 5694SOL    HW127551   1.726   5.839   1.608 -1.9853 -0.0905  0.6785
 5694SOL    HW227552   1.786   5.982   1.662  0.0198 -1.2545  1.5848
 5695SOL     OW27553   2.917   9.741   0.963  0.0549  0.1609  0.0817
 5695SOL    HW127554   2.939   9.644   0.975  0.5080  0.1815 -0.5562
 5695SOL    HW227555   2.945   9.792   1.045  0.6143 -0.1173  0.0667
 5696SOL     OW27556   9.083   9.198   3.246 -0.6677 -0.5021  0.6175
 5696SOL    HW127557   9.160   9.185   3.309 -2.5916 -1.7409  2.7902
 5696SOL    HW227558   9.055   9.109   3.209 -0.0904  0.1199 -1.4007
 5697SOL     OW27559   0.614   4.767   4.713 -0.0043  0.0805 -0.3193
 5697SOL    HW127560   0.650   4.819   4.636  1.4657 -2.1612 -1.1948
 5697SOL    HW227561   0.516   4.750   4.698  0.3972 -0.8320 -1.9846
 5698SOL     OW27562   1.624   0.153   2.190 -0.4909  0.1577  0.1177
 5698SOL    HW127563   1.568   0.174   2.110  0.1068  1.0680 -0.0748
 5698SOL    HW227564   1.579   0.191   2.272 -0.9181 -0.4554  0.1730
 5699SOL     OW27565   3.042   4.468   0.298 -0.7013  0.4206  0.4964
 5699SOL    HW127566   2.975   4.418   0.353 -0.2257  0.3991  1.0615
 5699SOL    HW227567   2.995   4.522   0.229 -1.1666 -1.7918 -0.9502
 5700SOL     OW27568   2.267   2.637   1.051  0.1944 -0.1794 -0.0687
 5700SOL    HW127569   2.275   2.734   1.027 -0.1205  0.4184  2.0606
 5700SOL    HW227570   2.241   2.584   0.970  0.4548  1.5045 -1.2767
 5701SOL     OW27571   1.961   3.479   3.879 -0.0248 -0.4701  0.3320
 5701SOL    HW127572   2.043   3.448   3.927  0.2972 -2.2591 -1.2840
 5701SOL    HW227573   1.987   3.548   3.811 -0.3744  1.5050  2.1682
 5702SOL     OW27574   0.412   8.808   4.512 -0.0706  0.3202 -0.0124
 5702SOL    HW127575   0.409   8.819   4.611  1.7082  1.7107 -0.0932
 5702SOL    HW227576   0.339   8.861   4.470  0.1240  0.9675  0.4619
 5703SOL     OW27577   1.211   8.642   3.511 -0.0669  0.0247 -0.1881
 5703SOL    HW127578   1.276   8.699   3.560 -0.2299 -0.1686  0.2595
 5703SOL    HW227579   1.241   8.546   3.516 -0.7988 -0.1683  0.7058
 5704SOL     OW27580   8.052   7.849   2.160 -0.0417 -0.0813 -0.4464
 5704SOL    HW127581   8.014   7.820   2.248  0.3367 -0.1794 -0.3134
 5704SOL    HW227582   8.142   7.807   2.147  0.0741  0.2444 -0.7054
 5705SOL     OW27583   2.412   0.507   4.176  0.2306 -0.0530 -0.0178
 5705SOL    HW127584   2.412   0.420   4.125  0.8072  0.3805 -0.7693
 5705SOL    HW227585   2.435   0.489   4.271  0.0557 -0.7687 -0.1042
 5706SOL     OW27586   8.637   8.067   3.246  0.0100 -0.1289 -0.1783
 5706SOL    HW127587   8.653   7.978   3.287  0.0586  1.3589  3.2158
 5706SOL    HW227588   8.570   8.059   3.172  2.0305 -3.3509 -1.7354
 5707SOL     OW27589   6.561   0.233   2.458  0.4880  0.1023 -0.0416
 5707SOL    HW127590   6.505   0.234   2.541 -0.5015  1.7919 -0.6948
 5707SOL    HW227591   6.624   0.311   2.459  1.2316 -0.4854 -0.3777
 5708SOL     OW27592   8.236   8.838   3.168 -0.0017  0.0101 -0.0694
 5708SOL    HW127593   8.325   8.850   3.211  0.4088 -0.8281 -0.6735
 5708SOL    HW227594   8.238   8.875   3.075  0.4900 -2.2595 -0.9927
 5709SOL     OW27595   6.834   9.095   1.198  0.8076 -0.0906 -0.6999
 5709SOL    HW127596   6.861   9.060   1.108  0.6335 -0.8615 -0.4603
 5709SOL    HW227597   6.762   9.037   1.236  0.6624  0.4168 -0.1986
 5710SOL     OW27598   5.898   0.018   3.004  0.1588 -0.6291 -0.4878
 5710SOL    HW127599   5.979   0.023   2.945 -1.0458 -2.2505 -2.3280
 5710SOL    HW227600   5.816   0.010   2.947 -0.9577 -3.2027  1.3942
 5711SOL     OW27601   3.577   3.807   3.673  0.2321 -0.4381 -0.1435
 5711SOL    HW127602   3.666   3.815   3.628 -0.3207  1.2392 -0.9780
 5711SOL    HW227603   3.517   3.882   3.643 -1.1208 -0.9554  1.1902
 5712SOL     OW27604   2.604   6.382   3.492 -0.1981 -0.8344 -0.6407
 5712SOL    HW127605   2.597   6.394   3.591 -0.3208 -1.2916 -0.5923
 5712SOL    HW227606   2.687   6.331   3.470 -0.1154 -0.6420 -0.7859
 5713SOL     OW27607   8.396   9.854   3.813  0.5008 -0.1567  0.0598
 5713SOL    HW127608   8.424   9.792   3.887 -0.5927 -0.5766  0.1208
 5713SOL    HW227609   8.310   9.898   3.836 -0.4909 -1.2195 -1.4949
 5714SOL     OW27610   0.632   8.369   1.533  0.1411  0.2206  1.1756
 5714SOL    HW127611   0.636   8.412   1.443 -0.1765  0.0729  1.0921
 5714SOL    HW227612   0.607   8.273   1.523  1.7159 -0.2195  1.2885
 5715SOL     OW27613   2.905   4.748   1.173  0.6216 -0.1932 -0.2492
 5715SOL    HW127614   2.830   4.723   1.113 -0.5095 -1.1150  1.5336
 5715SOL    HW227615   2.963   4.816   1.127 -1.5897  0.9363 -1.4051
 5716SOL     OW27616   9.146   8.312   1.866 -0.5237 -0.2055  0.2267
 5716SOL    HW127617   9.097   8.279   1.946 -0.8686 -0.6846 -0.1793
 5716SOL    HW227618   9.237   8.344   1.893  0.1712 -2.3432  0.4860
 5717SOL     OW27619   2.582   8.806   4.027  0.1671  0.0881 -0.4170
 5717SOL    HW127620   2.665   8.751   4.021  0.3650  0.2218  0.8981
 5717SOL    HW227621   2.524   8.770   4.101 -0.5763  0.4784 -0.8077
 5718SOL     OW27622   9.933   6.504   0.286  0.0145 -0.2717  0.0115
 5718SOL    HW127623   9.921   6.435   0.214  1.1584  0.9350 -1.3773
 5718SOL    HW227624  10.027   6.540   0.282 -0.8296  2.0297  0.0952
 5719SOL     OW27625   9.264   9.702   2.649 -0.2498 -0.0828  0.3327
 5719SOL    HW127626   9.246   9.721   2.746  1.7849  1.4780  0.4262
 5719SOL    HW227627   9.200   9.755   2.593 -0.5732  0.0229  0.7910
 5720SOL     OW27628   2.884   3.369   3.525 -0.3005 -0.4235  0.3647
 5720SOL    HW127629   2.829   3.395   3.446 -0.7074 -1.7948  0.1867
 5720SOL    HW227630   2.972   3.415   3.521 -1.1469  1.2100  0.2543
 5721SOL     OW27631   5.662   9.696   2.916  0.5072  0.6303 -0.2217
 5721SOL    HW127632   5.645   9.794   2.900  0.4013  0.3009 -2.2596
 5721SOL    HW227633   5.750   9.670   2.877 -0.3635 -0.5075 -1.4736
 5722SOL     OW27634   8.408   9.945   4.466 -0.5376 -0.3127 -0.4426
 5722SOL    HW127635   8.414  10.038   4.428  0.2656 -0.7113 -1.3004
 5722SOL    HW227636   8.452   9.881   4.404 -0.2909 -1.1505  0.5880
 5723SOL     OW27637   3.258   1.985   3.332 -0.6865  0.0726 -0.4122
 5723SOL    HW127638   3.205   1.997   3.248  1.2944  0.7813 -1.5822
 5723SOL    HW227639   3.311   1.901   3.326 -0.0202  0.4745 -0.1439
 5724SOL     OW27640   9.651   7.420   0.450 -0.0674  1.2356  0.0832
 5724SOL    HW127641   9.579   7.453   0.388 -0.8194 -0.3346  0.1053
 5724SOL    HW227642   9.718   7.367   0.398  0.3321  1.5158  0.3072
 5725SOL     OW27643   9.388   6.820   0.468  0.4383 -0.3601  0.0481
 5725SOL    HW127644   9.313   6.850   0.410  1.9400  0.6191 -1.4401
 5725SOL    HW227645   9.390   6.720   0.471  0.8018 -0.4557 -2.2519
 5726SOL     OW27646   7.143   6.928   2.891 -0.1240 -0.2543 -0.1937
 5726SOL    HW127647   7.054   6.963   2.861  0.6134  0.2110 -1.9124
 5726SOL    HW227648   7.175   6.858   2.828  1.4956  0.7695 -0.5539
 5727SOL     OW27649   1.318   0.577   4.751 -0.5121  0.5509 -0.2269
 5727SOL    HW127650   1.268   0.491   4.745 -2.0648  1.2985  1.1981
 5727SOL    HW227651   1.355   0.588   4.844  1.7573  0.3291 -1.0753
 5728SOL     OW27652   0.724   0.254   0.931  0.0514 -0.4395 -0.4028
 5728SOL    HW127653   0.634   0.211   0.937  0.0479 -0.7611 -2.2832
 5728SOL    HW227654   0.784   0.197   0.874  0.9286  0.6082 -0.5393
 5729SOL     OW27655   0.775   9.767   3.563 -0.5447  0.3112  0.3117
 5729SOL    HW127656   0.720   9.714   3.627 -0.9421  2.1082  1.5091
 5729SOL    HW227657   0.715   9.805   3.492 -0.2743 -0.7615 -0.4970
 5730SOL     OW27658   4.182   2.084   3.091  0.0469 -0.1023 -0.1079
 5730SOL    HW127659   4.197   2.183   3.095  2.2559 -0.3149 -2.1059
 5730SOL    HW227660   4.261   2.040   3.048 -1.7497 -2.5296 -1.0417
 5731SOL     OW27661   9.280   7.398   0.568  0.2598  0.5011  0.2520
 5731SOL    HW127662   9.363   7.359   0.607  0.8768  0.0344 -1.4907
 5731SOL    HW227663   9.277   7.496   0.587 -0.3274  0.0177  2.9499
 5732SOL     OW27664   0.828   8.084   1.525 -0.4634  0.0538  0.1652
 5732SOL    HW127665   0.737   8.044   1.538 -0.0742 -0.4459  1.4205
 5732SOL    HW227666   0.898   8.013   1.538  0.0787  0.1903 -1.8376
 5733SOL     OW27667   4.514   0.422   2.135 -0.5442  0.4891 -0.3449
 5733SOL    HW127668   4.460   0.380   2.208 -0.6402 -0.0396 -0.7158
 5733SOL    HW227669   4.522   0.358   2.059  0.2919  0.7137 -0.4435
 5734SOL     OW27670   1.655   1.188   2.845  0.3175 -0.3442 -0.4533
 5734SOL    HW127671   1.569   1.216   2.887 -0.3107 -1.0237 -1.2673
 5734SOL    HW227672   1.658   1.089   2.838  1.1492 -0.3233 -0.4867
 5735SOL     OW27673   1.909   9.903   3.828  0.1030  0.0458 -0.1396
 5735SOL    HW127674   1.929   9.832   3.761  0.1961  0.0402 -0.1067
 5735SOL    HW227675   1.822   9.946   3.806 -0.6025 -0.9809  0.6170
 5736SOL     OW27676   6.508   9.264   3.662  0.0709 -0.3075 -0.6112
 5736SOL    HW127677   6.470   9.185   3.709  1.1877 -1.3743 -1.4716
 5736SOL    HW227678   6.474   9.267   3.568 -1.9858  1.6925  0.1503
 5737SOL     OW27679   1.352   6.544   2.346  0.1131 -0.5968  0.1580
 5737SOL    HW127680   1.310   6.632   2.327 -1.0821 -0.9499  1.0687
 5737SOL    HW227681   1.331   6.480   2.272  2.2435  0.2908 -1.2411
 5738SOL     OW27682   3.409   5.216   4.213 -0.0407 -0.2976 -0.0063
 5738SOL    HW127683   3.474   5.143   4.192  0.3388 -0.1464  0.6174
 5738SOL    HW227684   3.351   5.234   4.134 -0.0033 -1.1403 -0.2263
 5739SOL     OW27685   9.169   7.750   0.351  0.0055 -0.3343 -0.6520
 5739SOL    HW127686   9.083   7.797   0.330  0.7636  0.8808 -1.0649
 5739SOL    HW227687   9.242   7.788   0.295  1.1706 -0.1743  0.9560
 5740SOL     OW27688   0.778   1.681   2.444  0.1386  0.1018 -0.0501
 5740SOL    HW127689   0.751   1.621   2.519 -1.6766 -1.0350 -1.5734
 5740SOL    HW227690   0.755   1.775   2.467 -1.5393 -0.3813  0.3297
 5741SOL     OW27691   7.644   9.420   1.343 -0.0923 -0.4662 -0.4908
 5741SOL    HW127692   7.674   9.332   1.378  0.3939  0.4746  1.5764
 5741SOL    HW227693   7.548   9.415   1.316 -0.5505 -1.1956  1.2328
 5742SOL     OW27694   2.730   5.013   1.672 -0.2141  0.3120 -0.4429
 5742SOL    HW127695   2.681   4.936   1.713  1.0545 -0.7898 -0.9203
 5742SOL    HW227696   2.771   5.069   1.744 -1.2793  0.6262 -0.0863
 5743SOL     OW27697   2.681   9.198   1.251 -0.5121 -0.0521  0.1925
 5743SOL    HW127698   2.618   9.130   1.289 -0.7792  0.5530  0.8528
 5743SOL    HW227699   2.631   9.282   1.231  0.0797  0.4315  0.7238
 5744SOL     OW27700   2.648   9.253   0.846 -0.4172 -0.0892  0.1537
 5744SOL    HW127701   2.667   9.313   0.769  1.7947 -0.0264  0.7005
 5744SOL    HW227702   2.551   9.255   0.868 -0.7599  1.3054 -1.4504
 5745SOL     OW27703   8.798   6.894   3.232  0.0073 -0.3268 -0.3911
 5745SOL    HW127704   8.800   6.823   3.302  0.5235 -0.6567 -0.7378
 5745SOL    HW227705   8.703   6.917   3.210 -0.1577 -0.8214 -0.1903
 5746SOL     OW27706   0.541   7.540   1.876 -0.3644 -0.3756 -0.6500
 5746SOL    HW127707   0.537   7.597   1.958  0.3192 -0.5043 -0.5244
 5746SOL    HW227708   0.504   7.450   1.896  0.2958 -0.5793 -0.3352
 5747SOL     OW27709   5.028   9.290   1.184  0.2087 -0.6040  0.1005
 5747SOL    HW127710   4.962   9.246   1.246  0.4598 -1.0267  0.0704
 5747SOL    HW227711   5.113   9.237   1.183 -0.4154 -1.6141 -1.9813
 5748SOL     OW27712   2.255   9.186   0.597  0.3654 -0.4544 -0.5794
 5748SOL    HW127713   2.184   9.116   0.610 -0.0693 -0.1024 -1.0820
 5748SOL    HW227714   2.306   9.166   0.514  0.6033 -0.4765 -0.4305
 5749SOL     OW27715   2.314   3.792   3.694  0.3275 -0.2315 -0.0271
 5749SOL    HW127716   2.316   3.890   3.673  0.0139 -0.1896  0.1373
 5749SOL    HW227717   2.304   3.740   3.609  1.2778 -0.1516 -0.1868
 5750SOL     OW27718   2.521   5.022   0.742 -0.5320 -0.3643 -0.4579
 5750SOL    HW127719   2.609   4.979   0.756  0.0792  0.6756 -0.9880
 5750SOL    HW227720   2.462   4.961   0.688  0.4751 -0.3557 -1.5955
 5751SOL     OW27721   0.486   6.837   4.209  1.0374  0.2335 -0.4126
 5751SOL    HW127722   0.432   6.873   4.285 -0.3517 -1.3312 -0.6331
 5751SOL    HW227723   0.569   6.892   4.199  1.5598  0.1193  2.6237
 5752SOL     OW27724   6.230   8.998   3.183 -0.4042  0.1859 -0.3381
 5752SOL    HW127725   6.325   9.017   3.208  0.0080 -0.0129 -1.7251
 5752SOL    HW227726   6.175   9.080   3.196  0.5157  1.1132 -2.2137
 5753SOL     OW27727   0.608   5.187   1.253 -0.2977  0.1103 -1.3054
 5753SOL    HW127728   0.638   5.262   1.312 -0.5594  0.2480 -1.3480
 5753SOL    HW227729   0.669   5.180   1.174  0.6357 -0.6935 -0.5267
 5754SOL     OW27730   0.251   2.184   2.194  0.3151  0.5525 -0.3381
 5754SOL    HW127731   0.245   2.274   2.238  1.0467  1.3186 -1.7964
 5754SOL    HW227732   0.255   2.114   2.265  0.7939  1.7303  0.8315
 5755SOL     OW27733   2.290   0.205   2.479  0.4477  0.1163  0.0163
 5755SOL    HW127734   2.202   0.164   2.503  1.4405 -1.8499  0.4723
 5755SOL    HW227735   2.332   0.246   2.560 -0.5565  2.1119 -0.4452
 5756SOL     OW27736   0.185   3.115   3.435  0.1121  0.3734  0.1791
 5756SOL    HW127737   0.162   3.045   3.368  2.6953 -1.4807  1.1232
 5756SOL    HW227738   0.204   3.202   3.388 -0.6615 -0.1981 -1.2204
 5757SOL     OW27739   4.253   4.390   1.657  0.6390  0.4740 -0.6963
 5757SOL    HW127740   4.194   4.316   1.624 -1.5133  1.9136 -0.1017
 5757SOL    HW227741   4.304   4.358   1.737 -1.8688  0.2771  0.8642
 5758SOL     OW27742   9.844   0.290   3.799  0.5991  0.1498 -0.0050
 5758SOL    HW127743   9.930   0.301   3.849  0.8904  0.4126 -0.5555
 5758SOL    HW227744   9.864   0.255   3.707 -0.0031 -1.2571  0.3868
 5759SOL     OW27745   9.608   7.163   0.100 -0.0385 -0.1703  0.1285
 5759SOL    HW127746   9.641   7.079   0.144  0.0245  0.2697  0.9228
 5759SOL    HW227747   9.522   7.191   0.141  0.7877  1.0948  1.0477
 5760SOL     OW27748   0.272   8.462   0.860  0.4676  0.2344  0.3553
 5760SOL    HW127749   0.333   8.431   0.933  0.2463 -1.1728 -0.0283
 5760SOL    HW227750   0.307   8.547   0.821  1.0855  0.5087  1.4740
 5761SOL     OW27751   1.630   2.441   2.329 -1.3733 -0.7956  0.1787
 5761SOL    HW127752   1.730   2.434   2.335 -1.3139  0.3921  0.6184
 5761SOL    HW227753   1.594   2.356   2.290 -0.1090 -0.8109 -1.0200
 5762SOL     OW27754   2.601   6.468   1.275 -0.3474 -0.3423  0.4483
 5762SOL    HW127755   2.659   6.387   1.273  0.2891  0.1307 -0.5025
 5762SOL    HW227756   2.505   6.441   1.266 -0.2715 -1.1046  1.7515
 5763SOL     OW27757   3.175   1.843   2.404 -0.2509  0.7025 -0.3679
 5763SOL    HW127758   3.163   1.866   2.501  1.3145  1.9057 -0.4476
 5763SOL    HW227759   3.155   1.746   2.391 -1.5888  0.7773  0.9512
 5764SOL     OW27760   1.310   5.005   3.313 -0.3555 -0.3053 -0.2906
 5764SOL    HW127761   1.310   4.921   3.367  0.7364  0.9864  1.8157
 5764SOL    HW227762   1.222   5.052   3.325 -0.1046 -0.0084  0.3822
 5765SOL     OW27763   2.380   4.768   4.671  0.3045 -0.3181 -0.4757
 5765SOL    HW127764   2.360   4.675   4.639  0.8781 -0.8594  0.7205
 5765SOL    HW227765   2.446   4.764   4.746 -1.3680  0.8955  1.0938
 5766SOL     OW27766   3.054   5.186   2.884 -0.2856 -0.2714 -0.2465
 5766SOL    HW127767   3.120   5.133   2.937  1.1913  2.7423  1.0303
 5766SOL    HW227768   3.015   5.128   2.812  0.0524 -3.5188  2.0703
 5767SOL     OW27769   3.974   1.355   2.191  0.1209  0.5050 -0.4233
 5767SOL    HW127770   3.949   1.320   2.101  0.1543 -0.0320 -0.2239
 5767SOL    HW227771   4.070   1.383   2.190  0.7420 -1.5400  0.0595
 5768SOL     OW27772   3.469   3.202   2.802 -0.6200  0.1297  0.8169
 5768SOL    HW127773   3.565   3.228   2.791 -1.1669  1.7337 -0.3716
 5768SOL    HW227774   3.411   3.281   2.780 -2.1368  0.3115  5.0159
 5769SOL     OW27775   7.145   0.035   0.157 -0.0792  0.4806 -0.0338
 5769SOL    HW127776   7.161   0.014   0.060  1.0384 -0.7980  0.4102
 5769SOL    HW227777   7.047   0.030   0.176 -0.4093  1.7087 -1.3073
 5770SOL     OW27778   0.161   8.904   0.141  0.0071 -0.0769 -0.1927
 5770SOL    HW127779   0.230   8.948   0.199 -0.8589 -1.2832  1.8316
 5770SOL    HW227780   0.083   8.877   0.198 -0.9176 -1.2095 -1.9666
 5771SOL     OW27781   7.623   8.304   1.814  0.6395  0.4138 -0.1387
 5771SOL    HW127782   7.672   8.317   1.728 -0.5910  0.2610 -0.8817
 5771SOL    HW227783   7.680   8.253   1.878  1.3124 -0.0661 -1.1159
 5772SOL     OW27784   8.319   8.210   4.143 -0.0614  0.4040  0.1374
 5772SOL    HW127785   8.258   8.175   4.214 -1.3414  2.7313  0.2361
 5772SOL    HW227786   8.375   8.284   4.180  0.4966  0.4659 -0.8087
 5773SOL     OW27787   0.432   1.314   1.973 -0.3854 -0.0654 -0.2884
 5773SOL    HW127788   0.404   1.406   1.947 -0.2381  0.3437  0.9691
 5773SOL    HW227789   0.482   1.271   1.898  0.2061  1.1626 -0.5988
 5774SOL     OW27790   5.331   8.220   2.195  0.3087  0.1032  0.1086
 5774SOL    HW127791   5.404   8.220   2.127  0.6311  2.1956  0.4377
 5774SOL    HW227792   5.327   8.308   2.241 -2.7088  0.1808 -0.1926
 5775SOL     OW27793   7.088   8.407   1.447  0.4047  0.3989 -0.2515
 5775SOL    HW127794   7.055   8.495   1.483  2.5343  0.3096  2.0427
 5775SOL    HW227795   7.186   8.413   1.431  0.2931 -1.0989 -1.5624
 5776SOL     OW27796   2.062   2.051   3.304 -0.1249 -0.0394 -0.5544
 5776SOL    HW127797   1.985   2.114   3.290 -1.3010 -1.0135  1.3159
 5776SOL    HW227798   2.121   2.086   3.376  0.4064 -0.0355 -0.9838
 5777SOL     OW27799   3.606   3.778   2.334 -0.1394 -0.1292  0.1407
 5777SOL    HW127800   3.699   3.740   2.332 -0.1356 -0.1117 -0.0106
 5777SOL    HW227801   3.608   3.873   2.305 -0.1709 -0.0574  0.3775
 5778SOL     OW27802   1.648   3.967   1.995 -0.1154 -0.2212  0.1501
 5778SOL    HW127803   1.668   4.040   1.930  0.0837  0.5095  1.0215
 5778SOL    HW227804   1.691   3.988   2.083 -0.5021 -1.1240  0.5592
 5779SOL     OW27805   2.746   4.884   3.432  0.1079 -0.0062  0.1387
 5779SOL    HW127806   2.703   4.972   3.414 -1.7784 -0.3847  2.5203
 5779SOL    HW227807   2.771   4.878   3.529 -0.3423 -2.2923  0.1469
 5780SOL     OW27808   2.125   4.432   2.239 -0.1358  0.0813 -0.5256
 5780SOL    HW127809   2.105   4.445   2.336  0.5056 -1.7331 -0.1275
 5780SOL    HW227810   2.188   4.504   2.207  0.5825  0.0007  0.6955
 5781SOL     OW27811   9.753   1.121   1.628  0.6338  0.0729  0.1450
 5781SOL    HW127812   9.656   1.099   1.623  0.8325 -0.6301 -0.7064
 5781SOL    HW227813   9.799   1.090   1.544  1.3761  1.4879  0.0112
 5782SOL     OW27814   9.527   7.232   0.679 -0.0661 -0.2042 -0.3813
 5782SOL    HW127815   9.623   7.260   0.678  0.2515 -1.2502  0.1684
 5782SOL    HW227816   9.519   7.142   0.721 -1.4930  0.6413  1.2497
 5783SOL     OW27817   9.531   6.725   1.862  0.4261 -0.0796  0.2545
 5783SOL    HW127818   9.624   6.687   1.862 -0.6025 -2.7293  0.6987
 5783SOL    HW227819   9.490   6.715   1.771 -0.5237 -1.8301  0.8508
 5784SOL     OW27820   5.078   8.051   2.448  0.4512  0.6539  0.4839
 5784SOL    HW127821   5.008   8.046   2.519 -0.4903  0.4314 -0.4392
 5784SOL    HW227822   5.078   7.965   2.396  0.8868  0.9506 -0.0105
 5785SOL     OW27823   0.240   1.676   3.269  0.4901 -0.1387 -0.2986
 5785SOL    HW127824   0.281   1.751   3.320  3.2937 -0.9008 -1.3626
 5785SOL    HW227825   0.296   1.655   3.189 -3.2644  0.3849 -3.2329
 5786SOL     OW27826   2.175   0.272   1.525  0.2581  0.2783 -0.2008
 5786SOL    HW127827   2.201   0.186   1.568 -1.7306 -0.3076 -0.1200
 5786SOL    HW227828   2.077   0.288   1.538  0.3208  1.8425 -1.4456
 5787SOL     OW27829   3.612   3.417   3.013  0.2135 -0.1138  0.1232
 5787SOL    HW127830   3.534   3.478   2.999  0.3750  0.0605 -0.0212
 5787SOL    HW227831   3.603   3.372   3.102 -0.2516 -0.3955 -0.0625
 5788SOL     OW27832   4.813   0.236   0.953 -0.0050 -0.1376 -0.2054
 5788SOL    HW127833   4.853   0.146   0.970  0.6389  0.3091  0.6197
 5788SOL    HW227834   4.726   0.224   0.904 -0.9712 -1.3249  1.7520
 5789SOL     OW27835   3.913   3.950   1.263  0.0085  0.6036  0.6157
 5789SOL    HW127836   3.952   3.888   1.330  1.0175  1.2582  0.6482
 5789SOL    HW227837   3.820   3.974   1.289  0.6200  1.3618  2.1370
 5790SOL     OW27838   3.898   8.523   1.307 -0.2944  0.5732  0.4532
 5790SOL    HW127839   3.939   8.533   1.216 -1.7331  1.8631 -0.0792
 5790SOL    HW227840   3.884   8.614   1.347 -1.1954  0.0746  1.2733
 5791SOL     OW27841   3.792   2.304   3.130 -0.5673 -0.1362 -0.3143
 5791SOL    HW127842   3.744   2.392   3.125 -0.0431  0.1980  0.4281
 5791SOL    HW227843   3.759   2.253   3.209 -0.3308 -0.2857 -0.3113
 5792SOL     OW27844   0.039   5.293   1.050  0.4983 -0.4992  0.4752
 5792SOL    HW127845   0.021   5.333   0.960 -0.0643  0.5788  1.0432
 5792SOL    HW227846   0.135   5.265   1.056  1.1647  1.6505  0.3614
 5793SOL     OW27847   0.273   4.811   0.697 -0.2155 -0.6388 -0.1125
 5793SOL    HW127848   0.203   4.882   0.710  1.5256  0.8903  1.3400
 5793SOL    HW227849   0.247   4.729   0.748 -0.5941  0.1722  1.0240
 5794SOL     OW27850   2.365   7.462   0.483 -0.1091 -0.3062 -0.2002
 5794SOL    HW127851   2.286   7.482   0.541 -0.5080 -0.3669 -0.7233
 5794SOL    HW227852   2.444   7.443   0.541 -0.7180 -1.2439  0.3570
 5795SOL     OW27853   2.019   3.731   3.359  0.2127 -0.5908 -0.0772
 5795SOL    HW127854   2.116   3.720   3.379  0.0862 -1.0713  0.2645
 5795SOL    HW227855   1.966   3.665   3.412 -0.5066  1.3211  1.6729
 5796SOL     OW27856   3.207   3.989   1.018 -0.0713  0.3100 -0.2551
 5796SOL    HW127857   3.167   4.044   0.945 -0.9999  0.3156  0.2595
 5796SOL    HW227858   3.150   3.909   1.036  0.1477  0.3111  0.4622
 5797SOL     OW27859   0.028   6.344   2.168 -0.0642 -0.7351 -0.3992
 5797SOL    HW127860   0.009   6.314   2.261  2.3039  0.5034  0.5015
 5797SOL    HW227861  -0.025   6.288   2.104  0.5799 -3.6319  1.5107
 5798SOL     OW27862   8.429   5.496   2.683 -0.8448  0.7969  0.7082
 5798SOL    HW127863   8.423   5.553   2.601  0.5844  0.3272  0.2464
 5798SOL    HW227864   8.414   5.552   2.764 -4.0598  0.9439  0.0800
 5799SOL     OW27865   1.303   1.381   4.506  0.1460  0.0345  0.0069
 5799SOL    HW127866   1.260   1.293   4.527 -1.3370  0.9799  1.0316
 5799SOL    HW227867   1.233   1.446   4.477  1.2716  0.7999 -1.0064
 5800SOL     OW27868   2.032   7.416   2.161  0.0967  0.5542  0.3912
 5800SOL    HW127869   2.098   7.447   2.093  0.3874  0.8112  0.7891
 5800SOL    HW227870   1.974   7.344   2.122 -0.1301  1.1214 -0.3104
 5801SOL     OW27871   0.975   8.098   2.699 -0.1104  0.0984 -0.1322
 5801SOL    HW127872   0.962   8.140   2.609  1.0904 -0.0615 -0.3979
 5801SOL    HW227873   1.039   8.022   2.691 -1.0001 -0.7459  0.6383
 5802SOL     OW27874   1.310   6.498   1.925 -0.5579  0.1133 -0.7358
 5802SOL    HW127875   1.314   6.449   2.011  0.1896  1.6534  0.1280
 5802SOL    HW227876   1.329   6.595   1.940 -1.4438  0.5917 -2.4788
 5803SOL     OW27877   9.747   9.533   1.657  0.0196 -0.5653 -0.1700
 5803SOL    HW127878   9.684   9.595   1.610  0.3564 -0.7065 -0.8101
 5803SOL    HW227879   9.824   9.513   1.597  1.6872  1.1753  1.3547
 5804SOL     OW27880   6.398   9.306   2.063  0.4089 -0.1414  0.3433
 5804SOL    HW127881   6.474   9.304   2.129  1.4008  0.5189 -0.7442
 5804SOL    HW227882   6.357   9.216   2.057  2.9477 -1.2762 -1.0991
 5805SOL     OW27883   1.580   6.561   2.878  0.2881 -0.1524 -0.3172
 5805SOL    HW127884   1.628   6.590   2.961  0.5153  0.2725 -0.5973
 5805SOL    HW227885   1.554   6.641   2.824  2.8166 -0.5165 -2.1548
 5806SOL     OW27886   5.997   7.422   2.106  0.1850 -0.4200 -0.1390
 5806SOL    HW127887   6.004   7.454   2.201  0.3705 -2.2030  0.4732
 5806SOL    HW227888   6.069   7.465   2.052 -1.0544  2.0338  0.0858
 5807SOL     OW27889   1.277   2.876   1.287  0.0723 -0.0982  0.7108
 5807SOL    HW127890   1.179   2.894   1.282  0.1616  0.5864  1.3607
 5807SOL    HW227891   1.327   2.948   1.238  0.3229  0.3556  1.6145
 5808SOL     OW27892   0.108   8.360   1.278  0.8514  0.1023  0.3323
 5808SOL    HW127893   0.160   8.284   1.239  0.0376 -0.4285  0.2680
 5808SOL    HW227894   0.081   8.337   1.372  0.6953  0.3591  0.3494
 5809SOL     OW27895   3.870   8.634   4.186  0.0656 -0.0291 -0.5556
 5809SOL    HW127896   3.970   8.626   4.182  0.3811  2.7839  0.1387
 5809SOL    HW227897   3.838   8.602   4.275  0.5977  0.8484 -0.0325
 5810SOL     OW27898   0.883   9.203   1.131  0.3071  0.3830  0.4396
 5810SOL    HW127899   0.797   9.249   1.154  0.2413  0.4320  0.0975
 5810SOL    HW227900   0.866   9.136   1.059  0.2396 -0.8042  1.5565
 5811SOL     OW27901   2.385   6.832   3.834  0.0968 -0.6173  0.0754
 5811SOL    HW127902   2.299   6.878   3.817  0.0802 -0.4971  0.4793
 5811SOL    HW227903   2.367   6.738   3.865  0.0295  0.2000  2.6517
 5812SOL     OW27904   7.468   9.449   1.887  0.4781  0.4213  0.1095
 5812SOL    HW127905   7.385   9.422   1.838 -0.1569  2.3111  0.1171
 5812SOL    HW227906   7.533   9.373   1.885 -1.4390 -1.2988  0.5540
 5813SOL     OW27907   3.311   1.211   0.208 -0.0911 -0.8902 -0.1742
 5813SOL    HW127908   3.397   1.207   0.155 -0.1130  0.7648 -0.3344
 5813SOL    HW227909   3.234   1.211   0.145 -0.1161  1.1365 -0.1515
 5814SOL     OW27910   0.788   1.039   2.392  0.4585 -0.2672  0.0604
 5814SOL    HW127911   0.768   1.005   2.300 -0.7009 -0.4286  0.3709
 5814SOL    HW227912   0.807   0.962   2.453  0.8508 -0.1800  0.0527
 5815SOL     OW27913   0.063   8.681   3.109  0.3021  0.6656  0.0090
 5815SOL    HW127914   0.117   8.653   3.189  0.1600 -0.1982 -0.1837
 5815SOL    HW227915   0.042   8.600   3.054 -0.2917  1.1445 -0.4744
 5816SOL     OW27916   2.787   0.958   1.703  0.4379  0.0221  0.0022
 5816SOL    HW127917   2.767   0.873   1.751  0.5903 -0.9097 -1.5248
 5816SOL    HW227918   2.851   0.940   1.628  0.0151  1.3699 -0.7117
 5817SOL     OW27919   2.232   8.349   2.960  0.5602 -0.2424 -0.1426
 5817SOL    HW127920   2.202   8.378   3.051  0.8827  1.5971 -0.5935
 5817SOL    HW227921   2.156   8.360   2.895  0.0010 -2.5655  0.0910
 5818SOL     OW27922   7.762   9.659   0.525 -0.3194  0.3063 -0.6667
 5818SOL    HW127923   7.714   9.605   0.593  0.8174  0.5817  0.3643
 5818SOL    HW227924   7.730   9.754   0.529 -0.1782  0.3421 -0.4615
 5819SOL     OW27925   3.119   0.479   2.807  1.1339 -0.6061  0.0602
 5819SOL    HW127926   3.162   0.485   2.897  0.2003 -3.1057  0.7218
 5819SOL    HW227927   3.142   0.391   2.766  0.5146 -0.0024 -1.6130
 5820SOL     OW27928   2.369   2.104   1.271  0.3159 -0.1990  0.1626
 5820SOL    HW127929   2.311   2.087   1.351 -0.2319 -1.7830 -0.5539
 5820SOL    HW227930   2.461   2.129   1.302 -0.0327 -0.2495  1.2893
 5821SOL     OW27931   1.780   9.298   4.392  0.5104 -0.0431 -0.3420
 5821SOL    HW127932   1.761   9.272   4.487  1.3644 -0.6890 -0.3382
 5821SOL    HW227933   1.778   9.397   4.384 -2.3037 -0.0365 -0.2463
 5822SOL     OW27934   2.150   1.251   2.364 -0.5000 -0.0869  0.0181
 5822SOL    HW127935   2.087   1.328   2.376  1.3770  1.1051  2.6653
 5822SOL    HW227936   2.148   1.194   2.446  1.9694  0.0792  0.2267
 5823SOL     OW27937   3.928   4.176   1.730 -0.1073  0.1510  0.3637
 5823SOL    HW127938   3.980   4.207   1.651  0.4210  1.0328  1.0480
 5823SOL    HW227939   3.844   4.132   1.699 -0.2518  1.1297 -0.6695
 5824SOL     OW27940   0.315   8.138   1.391  0.1538 -0.1091 -0.2856
 5824SOL    HW127941   0.245   8.192   1.437 -0.9991 -0.5672 -1.4571
 5824SOL    HW227942   0.387   8.115   1.456 -1.6422 -1.1222  1.4309
 5825SOL     OW27943   1.604   2.726   3.316 -0.1235  0.2522  0.3473
 5825SOL    HW127944   1.597   2.823   3.337 -0.9749 -0.1391  2.0218
 5825SOL    HW227945   1.693   2.706   3.277  0.6792  1.4507  1.5421
 5826SOL     OW27946   1.281   9.058   4.497  0.2317  0.1202  0.2516
 5826SOL    HW127947   1.242   8.966   4.496  0.3078  0.0810  0.6819
 5826SOL    HW227948   1.376   9.054   4.468 -0.0813  0.2163 -0.7966
 5827SOL     OW27949   3.223   2.650   3.986  0.6069 -0.1295 -0.0299
 5827SOL    HW127950   3.288   2.590   3.939 -0.3200 -0.6245 -0.6781
 5827SOL    HW227951   3.195   2.724   3.925  0.6015  0.1231  0.2752
 5828SOL     OW27952   3.149   5.684   2.890  0.3699 -0.1083 -0.2004
 5828SOL    HW127953   3.163   5.585   2.896  0.9504  0.0362  1.0146
 5828SOL    HW227954   3.168   5.726   2.979 -1.3412  0.9314 -0.3066
 5829SOL     OW27955   4.713   8.724   2.946 -0.8084 -0.2963 -0.0006
 5829SOL    HW127956   4.649   8.699   2.874 -0.6840  0.0265 -0.2274
 5829SOL    HW227957   4.715   8.824   2.956  0.1754 -0.2597 -0.4843
 5830SOL     OW27958   0.383   9.735   1.967  0.7151  0.2184 -0.1234
 5830SOL    HW127959   0.313   9.763   2.033  1.1133 -0.2632  0.5250
 5830SOL    HW227960   0.376   9.636   1.952 -0.3359  0.5640 -1.9643
 5831SOL     OW27961   4.713   8.748   3.688 -0.0926 -0.2911 -0.0364
 5831SOL    HW127962   4.617   8.768   3.710  0.2410  0.5491  0.7025
 5831SOL    HW227963   4.719   8.658   3.645 -1.8012  1.5100 -4.3772
 5832SOL     OW27964   3.186   9.380   2.103 -0.2441  0.5017  0.2209
 5832SOL    HW127965   3.147   9.380   2.011  0.9502  1.0563 -0.2991
 5832SOL    HW227966   3.165   9.468   2.147  1.2655  1.2067 -0.4391
 5833SOL     OW27967   2.142   1.601   2.083  0.0444 -0.4251 -0.2967
 5833SOL    HW127968   2.135   1.569   2.177 -1.4352 -1.3269 -0.7079
 5833SOL    HW227969   2.065   1.661   2.062  0.8195  0.4622 -0.6928
 5834SOL     OW27970   1.448   6.162   1.882  0.1194 -0.3210  0.6130
 5834SOL    HW127971   1.429   6.074   1.837  0.9039 -0.5316  0.6901
 5834SOL    HW227972   1.420   6.157   1.978 -0.6778 -0.1834  0.3906
 5835SOL     OW27973   7.505   8.905   0.752 -0.0115 -0.8158  0.5004
 5835SOL    HW127974   7.424   8.876   0.701  1.1197  0.3745 -2.0413
 5835SOL    HW227975   7.559   8.824   0.777  0.4515 -1.3217 -1.9758
 5836SOL     OW27976   0.656   4.096   2.894 -0.1707  0.4163 -0.0686
 5836SOL    HW127977   0.735   4.036   2.887 -0.4377  0.0474  0.0919
 5836SOL    HW227978   0.686   4.189   2.917  0.2498  0.3744 -0.4569
 5837SOL     OW27979   7.196   8.601   2.469  0.2279 -0.4079 -0.5203
 5837SOL    HW127980   7.100   8.599   2.494 -0.0453 -2.6646 -1.6027
 5837SOL    HW227981   7.219   8.518   2.417  2.4165  0.7471 -1.4908
 5838SOL     OW27982   1.373   7.227   0.322 -0.2514 -0.3024  0.3942
 5838SOL    HW127983   1.279   7.245   0.352 -0.4594 -0.0808 -0.3611
 5838SOL    HW227984   1.417   7.164   0.386 -0.5599  0.4386  1.3397
 5839SOL     OW27985   3.752   4.519   1.545  0.0478  0.4255  0.1911
 5839SOL    HW127986   3.688   4.552   1.476  0.9608  0.7276 -0.5263
 5839SOL    HW227987   3.829   4.473   1.499 -0.0156 -0.5702  1.0679
 5840SOL     OW27988   2.518   9.456   3.275  0.2752  0.1188  0.2911
 5840SOL    HW127989   2.444   9.420   3.332 -1.9095  0.0336 -2.4605
 5840SOL    HW227990   2.483   9.529   3.217  2.2903 -0.1013 -1.2836
 5841SOL     OW27991   0.134   3.988   3.535  0.3927 -0.3753  0.4198
 5841SOL    HW127992   0.102   4.080   3.511 -1.0008 -0.7902  0.7022
 5841SOL    HW227993   0.231   3.993   3.561 -0.1507  1.3060  2.2132
 5842SOL     OW27994   0.837   1.616   3.324 -0.2363 -0.2231  0.3849
 5842SOL    HW127995   0.837   1.598   3.226 -1.7949 -3.5898  0.9356
 5842SOL    HW227996   0.930   1.635   3.354  0.7074 -2.0535 -1.2763
 5843SOL     OW27997   6.503   8.931   4.108 -0.1370  0.4189  0.1896
 5843SOL    HW127998   6.453   8.864   4.053  0.2499  1.0777 -0.9743
 5843SOL    HW227999   6.591   8.951   4.065  0.5285  0.3248  1.4910
 5844SOL     OW28000   2.879   0.877   2.382  0.0052  0.0519  0.2346
 5844SOL    HW128001   2.783   0.862   2.407 -0.0872  0.7101  0.3049
 5844SOL    HW228002   2.907   0.968   2.413 -0.0724  0.8334 -1.9187
 5845SOL     OW28003   2.926   9.888   3.215 -0.2717 -0.1659  0.0126
 5845SOL    HW128004   2.928   9.932   3.305  1.5894 -0.2827  0.0466
 5845SOL    HW228005   2.858   9.814   3.216  0.3207 -0.7141  1.5763
 5846SOL     OW28006   1.751   8.545   0.093  0.4823  0.1963 -0.1396
 5846SOL    HW128007   1.678   8.520   0.029  0.1314  0.8982 -0.0213
 5846SOL    HW228008   1.715   8.609   0.161  1.7128  2.2405 -1.3392
 5847SOL     OW28009   1.813   8.992   3.624  0.2558 -0.3929  0.5278
 5847SOL    HW128010   1.817   8.894   3.603 -1.1979 -0.7850  1.8913
 5847SOL    HW228011   1.744   9.035   3.566  0.9005 -0.1685 -0.0765
 5848SOL     OW28012   1.478   3.656   0.412 -0.4475 -0.6664 -0.4630
 5848SOL    HW128013   1.484   3.742   0.362 -1.0256 -1.1809 -1.4301
 5848SOL    HW228014   1.412   3.665   0.487  1.7480  0.6532  1.3456
 5849SOL     OW28015   4.185   6.782   3.720  0.2647 -0.1295  0.2475
 5849SOL    HW128016   4.087   6.793   3.703  0.1133 -2.3653 -0.4511
 5849SOL    HW228017   4.199   6.749   3.814  0.5059  2.2461  1.0866
 5850SOL     OW28018   9.566   7.893   2.691 -0.0144  0.4329 -0.3608
 5850SOL    HW128019   9.638   7.826   2.678  0.4914  1.0758 -0.9498
 5850SOL    HW228020   9.574   7.936   2.781 -0.5119 -0.4926  0.1284
 5851SOL     OW28021   9.913   9.014   0.947  0.3234  0.5234 -0.7696
 5851SOL    HW128022   9.987   8.950   0.970  1.2065  2.2178  1.2609
 5851SOL    HW228023   9.835   8.998   1.008 -0.0050  0.4449 -1.2076
 5852SOL     OW28024   7.108   7.546   1.748  0.8365  0.2233  0.4783
 5852SOL    HW128025   7.085   7.448   1.743  1.0027  0.1804  0.5595
 5852SOL    HW228026   7.181   7.566   1.682 -0.7723  0.7507 -1.1862
 5853SOL     OW28027   8.438   7.540   2.917 -0.1261 -0.1149 -0.1842
 5853SOL    HW128028   8.518   7.482   2.904 -0.7008 -1.0376  0.2954
 5853SOL    HW228029   8.425   7.599   2.838  0.1773 -1.0037 -0.8982
 5854SOL     OW28030   2.933   8.644   1.281 -0.2226  0.0825  0.2183
 5854SOL    HW128031   2.870   8.677   1.211  0.2657  1.6106  0.4655
 5854SOL    HW228032   2.968   8.554   1.256 -3.5829 -1.4524  0.7658
 5855SOL     OW28033   8.304   8.930   2.422 -0.7304 -0.2036  0.5610
 5855SOL    HW128034   8.355   8.956   2.340 -1.3490 -0.7976 -0.0226
 5855SOL    HW228035   8.366   8.930   2.501  0.2209 -1.0837 -0.1645
 5856SOL     OW28036   1.458   9.696   3.143  0.2355 -0.0306  0.4354
 5856SOL    HW128037   1.394   9.661   3.074  0.4896 -0.7058  0.5389
 5856SOL    HW228038   1.528   9.752   3.098 -0.1773  0.3521  0.2694
 5857SOL     OW28039   1.776   2.577   4.391  0.9895  0.0156 -0.6123
 5857SOL    HW128040   1.822   2.517   4.457  0.7147  0.1502 -0.2941
 5857SOL    HW228041   1.722   2.645   4.440  0.9813  0.2754 -0.9773
 5858SOL     OW28042   9.233   7.461   2.872  0.0056 -0.3071 -0.2535
 5858SOL    HW128043   9.330   7.484   2.886 -0.0838 -0.4801  0.6453
 5858SOL    HW228044   9.226   7.372   2.827  0.3102  0.5832 -2.1201
 5859SOL     OW28045   0.736   9.155   0.848 -0.4037 -0.2092 -0.0259
 5859SOL    HW128046   0.787   9.165   0.763  1.8253 -1.8676  1.0549
 5859SOL    HW228047   0.757   9.066   0.889 -0.7848  0.9139  2.6791
 5860SOL     OW28048   0.198   8.469   3.781 -0.3201 -0.6724 -0.0824
 5860SOL    HW128049   0.124   8.444   3.843 -0.6198  1.3334  0.3858
 5860SOL    HW228050   0.168   8.457   3.686 -0.6369 -1.5557  0.1260
 5861SOL     OW28051   3.644   6.008   2.279  0.0437 -0.1587 -0.1514
 5861SOL    HW128052   3.565   5.949   2.290  0.9688 -1.3257  0.4408
 5861SOL    HW228053   3.617   6.103   2.293 -1.3317 -0.4957 -0.4460
 5862SOL     OW28054   9.406   6.260   3.927 -0.6222 -0.2433  0.1361
 5862SOL    HW128055   9.423   6.328   3.998 -0.7311 -0.0577 -0.0165
 5862SOL    HW228056   9.491   6.240   3.878 -0.4768 -0.6097  0.5297
 5863SOL     OW28057   1.444   9.508   3.785  0.6226 -0.1252 -0.2293
 5863SOL    HW128058   1.388   9.488   3.705  0.6781  0.2861 -0.3738
 5863SOL    HW228059   1.516   9.573   3.760 -0.9782  2.0787  0.7440
 5864SOL     OW28060   4.056   2.562   2.921 -0.8252  0.4660  0.2741
 5864SOL    HW128061   4.074   2.478   2.971  0.1177  0.6595  0.2655
 5864SOL    HW228062   4.052   2.542   2.823 -0.2185  0.4910  0.2428
 5865SOL     OW28063   8.599   6.399   2.486 -0.2676 -0.0385  0.4437
 5865SOL    HW128064   8.516   6.350   2.513 -0.1727 -0.1083  0.6056
 5865SOL    HW228065   8.677   6.365   2.538  0.2125 -1.2848 -1.0310
 5866SOL     OW28066   2.031   1.254   4.656  0.3771 -0.0520 -0.7630
 5866SOL    HW128067   2.094   1.230   4.583 -2.2510  0.4266 -3.2470
 5866SOL    HW228068   2.033   1.183   4.726  3.0837 -0.3969 -1.1276
 5867SOL     OW28069   0.019   8.711   1.475 -0.8195 -0.4230  0.1394
 5867SOL    HW128070   0.118   8.702   1.466 -0.6303 -1.1466  2.6724
 5867SOL    HW228071  -0.025   8.675   1.392  0.9988 -0.2460 -0.9404
 5868SOL     OW28072   3.391   2.674   4.677  0.2213  0.1179 -0.0220
 5868SOL    HW128073   3.430   2.758   4.640  2.8269  0.1256  2.5521
 5868SOL    HW228074   3.425   2.595   4.625  2.3013  0.2679  1.0605
 5869SOL     OW28075   8.588   6.296   0.913 -0.0730 -0.1012  0.8080
 5869SOL    HW128076   8.608   6.326   0.819 -1.0266 -0.2519  0.5523
 5869SOL    HW228077   8.659   6.233   0.944  1.5425  1.7950  1.0594
 5870SOL     OW28078   1.656   2.796   1.306  0.5821  0.3489  0.2418
 5870SOL    HW128079   1.659   2.713   1.362  0.5706  1.2235  1.5699
 5870SOL    HW228080   1.737   2.799   1.247  0.9984 -0.2019  0.7743
 5871SOL     OW28081   1.992   1.601   1.577  0.1201  0.7549 -0.0922
 5871SOL    HW128082   1.923   1.565   1.640 -0.4161 -0.5867 -1.4095
 5871SOL    HW228083   1.947   1.637   1.496  1.0449 -2.3264 -2.0536
 5872SOL     OW28084   3.562   3.536   3.501 -0.2902 -0.1525 -0.1374
 5872SOL    HW128085   3.544   3.614   3.561  1.3218 -0.3779  0.6788
 5872SOL    HW228086   3.501   3.539   3.422  0.6411  2.7070 -0.8146
 5873SOL     OW28087   4.783   2.159   2.694  0.6218 -0.2236  0.1051
 5873SOL    HW128088   4.727   2.127   2.771  0.1062  0.6138  0.0879
 5873SOL    HW228089   4.860   2.097   2.681  0.1157 -0.9760  0.6091
 5874SOL     OW28090   9.505   8.353   1.697 -1.1578  0.2187 -0.0195
 5874SOL    HW128091   9.529   8.258   1.719 -1.0675  0.4267  0.7913
 5874SOL    HW228092   9.521   8.411   1.777  0.5293  1.2354 -1.0562
 5875SOL     OW28093   1.282   9.358   3.042  0.6224  0.0909 -0.1611
 5875SOL    HW128094   1.298   9.268   3.001 -0.6933 -0.5099  0.6250
 5875SOL    HW228095   1.186   9.368   3.065  1.0066  1.1397  1.0846
 5876SOL     OW28096   6.919   8.766   4.427  0.4255 -0.0875  0.2645
 5876SOL    HW128097   6.950   8.842   4.369 -0.8000  0.7582  0.6822
 5876SOL    HW228098   6.863   8.704   4.372  1.3509 -0.6435 -0.0560
 5877SOL     OW28099   4.254   8.739   1.839  0.6408  0.3796  1.1646
 5877SOL    HW128100   4.261   8.778   1.931  0.0426  1.5801  0.7178
 5877SOL    HW228101   4.165   8.694   1.829  0.7044  0.2510  1.1771
 5878SOL     OW28102   7.216   9.000   4.086  0.0909 -0.5455  0.0271
 5878SOL    HW128103   7.216   9.083   4.142  1.3706 -0.5072 -0.0334
 5878SOL    HW228104   7.122   8.966   4.078 -0.7040  1.9033 -1.4548
 5879SOL     OW28105   6.765   8.751   1.468  0.0602  0.0768  0.5202
 5879SOL    HW128106   6.736   8.755   1.372 -1.8562  2.6987  1.1558
 5879SOL    HW228107   6.689   8.716   1.523  0.1647  1.3051  1.4486
 5880SOL     OW28108   1.441   8.989   1.901 -0.7847 -0.1594 -0.3294
 5880SOL    HW128109   1.433   9.059   1.829  1.1156 -1.2552 -1.6353
 5880SOL    HW228110   1.404   8.903   1.866  0.4067 -0.7653 -0.0868
 5881SOL     OW28111   3.323   9.471   1.319 -0.0142 -0.1253 -0.4902
 5881SOL    HW128112   3.327   9.465   1.219 -2.4946  0.8376 -0.6949
 5881SOL    HW228113   3.253   9.407   1.353 -0.4654  0.8529  0.4498
 5882SOL     OW28114   2.086   2.709   2.210  0.3879 -0.2782 -0.6619
 5882SOL    HW128115   2.128   2.695   2.300 -0.5129 -1.5733 -0.4327
 5882SOL    HW228116   1.988   2.688   2.215 -0.0958  1.6691 -1.4525
 5883SOL     OW28117   1.076   0.364   4.090 -0.0839 -0.7117  0.2527
 5883SOL    HW128118   1.114   0.319   4.170  1.1565 -0.3489 -0.1247
 5883SOL    HW228119   1.086   0.463   4.098 -0.6278 -0.6303 -0.0112
 5884SOL     OW28120   3.721   9.752   1.580  0.2110  0.0505  0.0316
 5884SOL    HW128121   3.758   9.660   1.591 -1.4223 -0.4988  1.1272
 5884SOL    HW228122   3.726   9.801   1.666 -1.4649 -0.0032  0.1814
 5885SOL     OW28123   9.330   0.151   1.724  0.4258 -0.2185 -0.4319
 5885SOL    HW128124   9.281   0.068   1.747  0.7082  0.0303  1.0997
 5885SOL    HW228125   9.300   0.226   1.783  2.4798 -0.0202  0.4128
 5886SOL     OW28126   4.543   9.265   3.956 -0.3544 -0.2201 -0.3226
 5886SOL    HW128127   4.604   9.187   3.940 -0.0328 -0.6126  2.4784
 5886SOL    HW228128   4.512   9.263   4.051 -1.4408  2.3214 -0.5963
 5887SOL     OW28129   9.674   9.100   2.115 -0.5296  0.5190 -0.2403
 5887SOL    HW128130   9.716   9.098   2.024  0.3494  2.8022  0.0835
 5887SOL    HW228131   9.692   9.013   2.161 -0.4136 -0.4068 -1.9937
 5888SOL     OW28132   4.298   8.751   3.952  0.3071 -0.3041 -0.5265
 5888SOL    HW128133   4.281   8.811   3.874 -1.6964 -0.8099 -0.5067
 5888SOL    HW228134   4.378   8.695   3.934  0.5791  0.4486 -1.7057
 5889SOL     OW28135   7.155   8.549   4.218 -0.2375 -0.8881  0.3819
 5889SOL    HW128136   7.123   8.580   4.307 -0.3445 -0.9803  0.3760
 5889SOL    HW228137   7.244   8.590   4.198 -0.0068 -1.2138  0.7265
 5890SOL     OW28138   2.348   0.707   2.468 -0.1330 -0.2802 -0.4538
 5890SOL    HW128139   2.396   0.656   2.539  0.7995 -0.1786 -0.9973
 5890SOL    HW228140   2.276   0.651   2.428 -1.2223 -0.0386  1.1546
 5891SOL     OW28141   1.883   6.937   4.477 -0.3070  0.5308 -0.2431
 5891SOL    HW128142   1.961   6.998   4.467 -0.1819  0.1455 -1.8483
 5891SOL    HW228143   1.804   6.978   4.431 -0.5448  0.0398 -0.2697
 5892SOL     OW28144   8.428   8.597   3.557 -0.1759  0.0713 -0.0537
 5892SOL    HW128145   8.477   8.553   3.632 -0.9096 -0.3829  0.1657
 5892SOL    HW228146   8.406   8.528   3.487 -1.1258  0.1283  0.1854
 5893SOL     OW28147   2.323   8.173   0.787 -0.4284 -0.0074  0.2608
 5893SOL    HW128148   2.305   8.098   0.850 -1.7954 -1.4087 -1.7482
 5893SOL    HW228149   2.276   8.256   0.820  0.3095 -0.2461  1.9729
 5894SOL     OW28150   2.482   2.033   3.637 -0.0454 -0.7433  0.4196
 5894SOL    HW128151   2.530   1.963   3.584 -0.3135 -1.3551  0.9845
 5894SOL    HW228152   2.537   2.117   3.638 -0.9215 -0.0676 -2.4858
 5895SOL     OW28153   2.343   4.298   0.025 -0.0144 -0.2125 -0.3260
 5895SOL    HW128154   2.388   4.374   0.072  0.0825  1.5800 -3.2068
 5895SOL    HW228155   2.408   4.225   0.009  0.3651 -0.1303  0.7917
 5896SOL     OW28156   7.688   9.638   2.179  0.0891 -0.4452 -0.2888
 5896SOL    HW128157   7.654   9.668   2.090 -0.2094  0.1860  0.0376
 5896SOL    HW228158   7.695   9.716   2.240 -0.6541 -1.0242  0.5477
 5897SOL     OW28159   1.889   3.861   0.013 -0.1003 -0.1290 -0.5227
 5897SOL    HW128160   1.878   3.940   0.073 -1.1149 -0.5006 -0.2089
 5897SOL    HW228161   1.886   3.891  -0.083  1.3437  0.4406 -0.3995
 5898SOL     OW28162   2.242   5.696   3.484  0.1365 -0.1654 -0.2797
 5898SOL    HW128163   2.299   5.632   3.432 -1.6690 -1.5766 -0.5902
 5898SOL    HW228164   2.220   5.775   3.427 -0.3891 -0.8723 -1.0690
 5899SOL     OW28165   2.063   9.063   2.852 -0.0628  0.2064 -0.0710
 5899SOL    HW128166   2.086   9.152   2.891  0.7131  0.4082 -0.9584
 5899SOL    HW228167   2.070   9.067   2.752  0.4496 -0.9839 -0.0972
 5900SOL     OW28168   0.727   1.933   2.505 -0.1395  0.4342 -0.4568
 5900SOL    HW128169   0.785   1.909   2.583  0.1029  1.3931 -0.3350
 5900SOL    HW228170   0.633   1.944   2.536 -0.2590 -0.3584 -0.5182
 5901SOL     OW28171   4.579   8.670   4.037  0.0090 -0.3778  0.5255
 5901SOL    HW128172   4.548   8.652   4.130  0.0735  0.4043  0.7049
 5901SOL    HW228173   4.645   8.600   4.009 -2.6240 -2.6356 -0.2230
 5902SOL     OW28174   3.127   5.288   2.163  0.0877 -0.3868  0.2248
 5902SOL    HW128175   3.101   5.360   2.098 -0.4916 -2.6001 -2.0559
 5902SOL    HW228176   3.226   5.291   2.177 -0.1358  2.0112  1.6129
 5903SOL     OW28177   9.859   8.665   1.699  0.3288  0.3101  0.0853
 5903SOL    HW128178   9.914   8.696   1.622 -3.9929  4.6734 -1.4901
 5903SOL    HW228179   9.822   8.574   1.678 -0.2376  1.1301 -2.7897
 5904SOL     OW28180   3.630   8.876   2.535  0.1839  0.4792 -0.2928
 5904SOL    HW128181   3.583   8.910   2.454 -0.1613 -1.6724 -1.0435
 5904SOL    HW228182   3.714   8.829   2.507 -0.9592 -2.0692  0.3552
 5905SOL     OW28183   6.758   9.116   2.817  0.7610 -0.2646 -0.1791
 5905SOL    HW128184   6.746   9.163   2.905 -0.1624 -0.6957 -0.0671
 5905SOL    HW228185   6.732   9.178   2.743 -0.6956 -0.6662 -0.0181
 5906SOL     OW28186   2.237   9.861   3.009 -0.5622 -0.0956  0.0043
 5906SOL    HW128187   2.172   9.884   3.082 -0.5234 -1.2794  0.4232
 5906SOL    HW228188   2.205   9.781   2.960  0.0299 -0.0220 -0.5040
 5907SOL     OW28189   2.842   5.575   4.671 -0.1442  0.5826  0.0378
 5907SOL    HW128190   2.748   5.543   4.685  0.7367 -2.5853 -0.9517
 5907SOL    HW228191   2.851   5.611   4.578 -0.0787 -0.1424 -0.2320
 5908SOL     OW28192   6.159   0.081   1.984  0.1346 -0.3135 -0.0861
 5908SOL    HW128193   6.219   0.118   2.055 -1.2306 -0.2468  1.0542
 5908SOL    HW228194   6.079   0.140   1.974  1.0361  0.5152 -2.7642
 5909SOL     OW28195   8.691   8.398   3.527  0.0261  0.2236 -0.2233
 5909SOL    HW128196   8.731   8.306   3.530  1.1338  0.6670 -1.1889
 5909SOL    HW228197   8.718   8.449   3.609 -0.9012 -0.4314  0.4988
 5910SOL     OW28198   2.886   9.962   1.735  0.2864 -0.3950  0.0961
 5910SOL    HW128199   2.892  10.047   1.683 -0.2147 -0.0892  0.5376
 5910SOL    HW228200   2.966   9.905   1.714  1.2634  0.7147  0.7469
 5911SOL     OW28201   2.434   0.859   2.172 -0.3055  0.3367  0.1573
 5911SOL    HW128202   2.478   0.853   2.261 -1.5993 -1.4187  0.7146
 5911SOL    HW228203   2.505   0.865   2.100  0.8058 -0.7969  1.1320
 5912SOL     OW28204   1.034   9.141   2.245 -0.1051  0.0890 -0.7194
 5912SOL    HW128205   0.957   9.089   2.209 -0.1961 -0.4335  0.2209
 5912SOL    HW228206   1.060   9.212   2.179 -2.2958  1.2088 -0.3885
 5913SOL     OW28207   1.442   4.581   1.977  0.1623  0.0031  0.4701
 5913SOL    HW128208   1.371   4.650   1.990  0.8224  0.6260  0.7663
 5913SOL    HW228209   1.508   4.587   2.051 -0.0698 -1.3107  0.7924
 5914SOL     OW28210   0.408   0.183   4.107 -0.7180  0.2271  0.3514
 5914SOL    HW128211   0.493   0.221   4.145 -0.3339 -1.4705  1.2677
 5914SOL    HW228212   0.346   0.162   4.182 -0.5976 -1.6761 -0.0628
 5915SOL     OW28213   3.925   8.266   2.848 -0.2747 -0.2345  0.0725
 5915SOL    HW128214   4.014   8.307   2.832 -0.2986 -0.1868  0.0599
 5915SOL    HW228215   3.934   8.166   2.852 -0.0950 -0.1892  0.8974
 5916SOL     OW28216   2.214   0.206   2.055  0.0549  0.4627  0.2454
 5916SOL    HW128217   2.224   0.148   2.136  0.3725 -0.3492 -0.3629
 5916SOL    HW228218   2.266   0.166   1.979 -0.8787  0.7997 -0.5827
 5917SOL     OW28219   3.287   7.655   3.532 -0.1749  0.4649  0.5846
 5917SOL    HW128220   3.292   7.685   3.437  0.1544  0.9902  0.7656
 5917SOL    HW228221   3.373   7.675   3.579  0.2910 -1.3373  0.5510
 5918SOL     OW28222   9.075   6.227   2.075 -0.4485  0.0668 -0.3174
 5918SOL    HW128223   9.003   6.188   2.132 -0.5468  1.2491  0.3950
 5918SOL    HW228224   9.155   6.248   2.131 -0.8836  2.1014 -0.3909
 5919SOL     OW28225   9.842   0.135   0.936  0.2780 -0.3698 -0.0284
 5919SOL    HW128226   9.815   0.053   0.987  1.2714  0.0540  1.2180
 5919SOL    HW228227   9.855   0.211   1.001  0.2266  0.5370 -1.0750
 5920SOL     OW28228   5.020   0.478   2.973 -0.0252 -0.0458 -0.3576
 5920SOL    HW128229   4.964   0.454   3.053 -0.9368 -2.0980 -1.5902
 5920SOL    HW228230   4.960   0.506   2.898  0.7108 -0.3281 -1.0482
 5921SOL     OW28231   2.113   2.270   2.840  0.1063 -0.3168 -0.4957
 5921SOL    HW128232   2.029   2.243   2.888 -0.5468 -0.6548 -1.8043
 5921SOL    HW228233   2.128   2.209   2.762  1.4533 -0.1163 -0.4125
 5922SOL     OW28234   9.919   7.702   2.412 -0.2357  0.2569 -0.3282
 5922SOL    HW128235   9.974   7.737   2.337  0.3789  0.8977  0.4195
 5922SOL    HW228236   9.918   7.602   2.409  1.7636  0.2131  0.2222
 5923SOL     OW28237   7.363   9.868   1.095  0.7706  0.3266  0.1341
 5923SOL    HW128238   7.323   9.793   1.149  0.0269 -1.9263 -3.3545
 5923SOL    HW228239   7.449   9.897   1.137  1.8789 -3.5933  0.7691
 5924SOL     OW28240   1.398   1.087   3.772 -0.2321 -0.0220  0.2652
 5924SOL    HW128241   1.416   1.108   3.868  3.1902  0.7123 -0.4957
 5924SOL    HW228242   1.392   0.988   3.761 -0.0780 -0.1398  1.1424
 5925SOL     OW28243   3.575   1.574   1.586  0.1907  0.3976  0.0105
 5925SOL    HW128244   3.557   1.491   1.638  0.0917  0.5028  0.1448
 5925SOL    HW228245   3.489   1.622   1.569  0.2989  0.6978  0.3140
 5926SOL     OW28246   1.031   0.064   3.752  0.3334  0.4123  0.1174
 5926SOL    HW128247   1.040   0.027   3.660 -1.9868  1.8445 -0.7336
 5926SOL    HW228248   1.034   0.164   3.749  0.5346  0.4742  1.6348
 5927SOL     OW28249   2.961   6.332   1.362  0.2589  0.6110 -0.3806
 5927SOL    HW128250   2.869   6.292   1.359 -0.5572  2.1629  2.2223
 5927SOL    HW228251   3.005   6.308   1.449  1.7558  1.1011 -0.9921
 5928SOL     OW28252   3.511   9.593   0.064  0.0058  0.0880  0.2947
 5928SOL    HW128253   3.574   9.630   0.132 -0.4813  0.7055  0.4141
 5928SOL    HW228254   3.417   9.601   0.097 -0.2535  0.6445 -0.5590
 5929SOL     OW28255   2.229   4.916   0.198  0.3676 -0.3407 -0.7408
 5929SOL    HW128256   2.323   4.945   0.212  0.4145 -0.5444 -0.6374
 5929SOL    HW228257   2.170   4.997   0.188  0.2017 -0.1677  1.4661
 5930SOL     OW28258   2.291   3.781   0.908  0.1703 -0.3474 -0.2566
 5930SOL    HW128259   2.314   3.793   0.811 -0.0119  0.6125 -0.1843
 5930SOL    HW228260   2.272   3.870   0.949 -0.3432 -0.8072  0.5186
 5931SOL     OW28261   3.723   1.668   2.889 -0.3363  0.3565  0.2295
 5931SOL    HW128262   3.679   1.623   2.812 -0.7167 -0.3761  0.8605
 5931SOL    HW228263   3.804   1.616   2.916  0.2539  1.0515 -0.1782
 5932SOL     OW28264   3.935   3.616   1.934  0.0109 -0.3391  0.8581
 5932SOL    HW128265   3.841   3.640   1.958  0.0851  0.8718 -0.0566
 5932SOL    HW228266   3.934   3.541   1.867 -0.4209  1.9888 -1.8227
 5933SOL     OW28267   2.402   7.891   3.018  0.0160 -0.0578  0.3362
 5933SOL    HW128268   2.332   7.962   3.013 -1.5228 -1.5072  0.7134
 5933SOL    HW228269   2.428   7.865   2.925 -0.6221 -0.1440  0.1750
 5934SOL     OW28270   4.255   2.739   2.458 -0.2933 -0.5957  0.1249
 5934SOL    HW128271   4.196   2.701   2.386 -1.9575 -1.1370  1.7331
 5934SOL    HW228272   4.282   2.832   2.433 -1.7054 -0.3957 -0.7317
 5935SOL     OW28273   1.459   0.501   2.977  0.0182  0.4691  0.0318
 5935SOL    HW128274   1.376   0.463   3.017  0.1036 -0.5327 -0.7134
 5935SOL    HW228275   1.480   0.452   2.892  0.1939  2.1136 -0.8982
 5936SOL     OW28276   0.164   9.064   3.466  0.2519 -0.0515  0.1330
 5936SOL    HW128277   0.234   9.128   3.497 -2.9353  2.2262  2.9756
 5936SOL    HW228278   0.133   9.090   3.374  1.4962  0.2323 -0.2235
 5937SOL     OW28279   3.216   3.736   1.782  0.2167  0.6792 -0.5135
 5937SOL    HW128280   3.130   3.738   1.729 -0.4883  1.7567  0.6486
 5937SOL    HW228281   3.207   3.670   1.857  1.3345 -1.0926 -1.8901
 5938SOL     OW28282   0.699   8.150   1.000  0.5043  0.0988 -0.0892
 5938SOL    HW128283   0.778   8.090   1.009 -0.0702 -0.5115  1.0995
 5938SOL    HW228284   0.664   8.146   0.907 -0.3827 -2.5526  0.3083
 5939SOL     OW28285   1.127   8.654   2.275  0.3307  0.0120  0.4432
 5939SOL    HW128286   1.095   8.586   2.341  1.5684 -1.6184 -0.5969
 5939SOL    HW228287   1.124   8.745   2.316 -0.8656 -0.7289  2.0285
 5940SOL     OW28288   3.001   7.145   4.177 -0.2745 -0.0849  0.4698
 5940SOL    HW128289   2.965   7.188   4.259  2.0362 -1.2345  2.1814
 5940SOL    HW228290   3.098   7.168   4.167 -0.1153 -1.2853 -1.0244
 5941SOL     OW28291   8.221   8.691   0.856  0.2550 -0.3174  0.0714
 5941SOL    HW128292   8.165   8.765   0.821  1.0813  0.3390  0.1298
 5941SOL    HW228293   8.203   8.678   0.954 -0.6707 -0.9060 -0.1730
 5942SOL     OW28294   1.587   0.832   0.798  0.8434  0.2716 -0.6447
 5942SOL    HW128295   1.519   0.903   0.779  1.7701  1.1892 -0.6080
 5942SOL    HW228296   1.671   0.875   0.831  1.5562 -0.8183 -1.0085
 5943SOL     OW28297   3.583   9.016   3.518 -0.1121 -0.0172 -0.5093
 5943SOL    HW128298   3.562   9.061   3.605  1.2962 -0.7261  0.2075
 5943SOL    HW228299   3.548   8.923   3.520 -0.7634  0.2152 -1.0057
 5944SOL     OW28300   8.369   0.622   0.521 -0.1806 -0.2910  0.4014
 5944SOL    HW128301   8.399   0.567   0.444  1.0112  0.1161  0.5634
 5944SOL    HW228302   8.359   0.717   0.493  0.9661 -0.0132  0.9242
 5945SOL     OW28303   1.345   4.875   2.181  0.1487 -0.7111 -0.0490
 5945SOL    HW128304   1.364   4.794   2.238  0.3261 -0.7521 -0.1693
 5945SOL    HW228305   1.390   4.955   2.221 -1.1852 -0.3889  0.8693
 5946SOL     OW28306   1.730   2.931   4.250 -0.2008 -0.1824  0.4774
 5946SOL    HW128307   1.777   2.861   4.196  2.5052  2.7082 -1.0484
 5946SOL    HW228308   1.651   2.966   4.200 -0.5471 -0.9090  0.5113
 5947SOL     OW28309   1.092   7.389   0.611 -0.1470 -0.2548  0.6982
 5947SOL    HW128310   1.014   7.360   0.556  0.6708 -1.7491  0.2891
 5947SOL    HW228311   1.071   7.377   0.708 -1.0527  0.9997  0.6664
 5948SOL     OW28312   0.042   0.136   2.058 -0.0376 -0.1177 -0.3752
 5948SOL    HW128313   0.106   0.212   2.052  2.3436 -1.8639  1.6729
 5948SOL    HW228314   0.061   0.070   1.985 -0.5376  0.1038 -0.7081
 5949SOL     OW28315   5.232   7.901   2.732 -0.4973  0.1490  0.4293
 5949SOL    HW128316   5.171   7.962   2.783  0.0226  1.1580 -0.1564
 5949SOL    HW228317   5.177   7.828   2.690 -1.1698  0.4215  0.8186
 5950SOL     OW28318   8.889   7.832   1.476 -0.3022  0.1169  0.2982
 5950SOL    HW128319   8.980   7.796   1.496 -0.5029  0.4258  1.7897
 5950SOL    HW228320   8.890   7.875   1.386  1.3171  1.0312  0.7330
 5951SOL     OW28321   9.045   5.961   4.646  0.2716 -0.3484  0.0858
 5951SOL    HW128322   8.978   5.942   4.574 -0.4111  0.0344  0.6016
 5951SOL    HW228323   9.097   5.878   4.667  1.3005 -0.1568 -1.6661
 5952SOL     OW28324   2.803   9.737   0.461  0.5051 -0.5061 -0.0951
 5952SOL    HW128325   2.733   9.775   0.400  1.8288  3.1003  0.4953
 5952SOL    HW228326   2.768   9.736   0.555  0.9718  0.6466  0.0985
 5953SOL     OW28327   9.822   7.082   1.532  0.4327 -0.2040 -0.2105
 5953SOL    HW128328   9.824   7.140   1.613  3.0642 -0.8400  0.2107
 5953SOL    HW228329   9.772   7.129   1.459  0.9830  1.8264  0.6836
 5954SOL     OW28330   1.321   1.735   4.735 -0.5455 -0.2353 -0.0202
 5954SOL    HW128331   1.330   1.742   4.635 -1.6761 -0.1947 -0.1345
 5954SOL    HW228332   1.371   1.655   4.768  0.5902  0.2731 -0.5095
 5955SOL     OW28333   7.557   6.820   3.250 -0.7358 -0.5999 -0.6684
 5955SOL    HW128334   7.493   6.775   3.188  1.6932 -4.8761 -0.2290
 5955SOL    HW228335   7.650   6.789   3.231  0.3580 -0.2335  3.5176
 5956SOL     OW28336   1.433   4.338   3.318  0.3566 -0.8118  0.4734
 5956SOL    HW128337   1.344   4.378   3.341  0.9388  0.5147  0.4863
 5956SOL    HW228338   1.434   4.311   3.222  1.0814  2.3730 -0.4614
 5957SOL     OW28339   1.297   1.692   1.062  0.7399 -0.4136 -0.0969
 5957SOL    HW128340   1.219   1.631   1.045  1.6084 -1.5649 -0.0749
 5957SOL    HW228341   1.379   1.650   1.023  0.8917  2.0596 -2.5539
 5958SOL     OW28342   0.937   6.276   0.863  0.8045  0.6134 -0.2677
 5958SOL    HW128343   0.890   6.353   0.819  0.1677  0.7079  0.5564
 5958SOL    HW228344   0.974   6.215   0.793  2.0082  2.0812 -0.9280
 5959SOL     OW28345   1.735   3.112   1.182 -0.4340  0.2130 -0.4268
 5959SOL    HW128346   1.678   3.068   1.252  0.8074  0.1276  0.5328
 5959SOL    HW228347   1.831   3.088   1.196 -0.4217 -2.0574 -3.8101
 5960SOL     OW28348   2.713   4.118   0.522 -0.2411  0.3734  0.3434
 5960SOL    HW128349   2.675   4.147   0.610  0.1097  0.0761  0.5937
 5960SOL    HW228350   2.741   4.022   0.527 -1.0955  0.0790 -0.3806
 5961SOL     OW28351   0.138   4.021   1.140 -0.4403  0.3350 -0.4504
 5961SOL    HW128352   0.182   4.106   1.168 -1.6447  0.3674  1.4465
 5961SOL    HW228353   0.093   3.979   1.219 -2.0025 -0.7683 -1.8878
 5962SOL     OW28354   4.975   7.927   2.186  0.2496  0.5745 -0.6670
 5962SOL    HW128355   5.032   8.004   2.159  0.4019 -0.0706 -2.2125
 5962SOL    HW228356   4.896   7.921   2.126 -0.4186  0.2653  0.2283
 5963SOL     OW28357   2.552   5.569   2.853 -0.3956 -0.1910  0.0330
 5963SOL    HW128358   2.502   5.539   2.771  0.1624 -1.4050  0.1212
 5963SOL    HW228359   2.505   5.533   2.934  1.9128 -3.4286  0.0350
 5964SOL     OW28360   4.102   0.532   4.061 -0.8115 -0.3206  0.3358
 5964SOL    HW128361   4.191   0.499   4.091 -0.8922 -1.7438 -0.9076
 5964SOL    HW228362   4.115   0.612   4.002 -0.3161 -0.7956 -0.2097
 5965SOL     OW28363   1.479   8.231   2.746 -0.8995 -0.8615 -0.1275
 5965SOL    HW128364   1.484   8.134   2.724  0.9005 -0.9252  0.4873
 5965SOL    HW228365   1.560   8.278   2.711 -0.8166  0.0647  1.2413
 5966SOL     OW28366   2.998   6.136   2.686  0.3497 -0.2757  0.7327
 5966SOL    HW128367   3.022   6.073   2.760  1.0685 -1.7137 -0.6964
 5966SOL    HW228368   3.034   6.101   2.599 -1.0817  1.0230 -0.4129
 5967SOL     OW28369   0.476   6.712   4.757  0.5157  0.3803  0.1184
 5967SOL    HW128370   0.502   6.617   4.777 -1.4183  0.4308  3.1068
 5967SOL    HW228371   0.548   6.774   4.789  0.8691  0.0431 -0.0141
 5968SOL     OW28372   0.305   6.283   4.290  0.2146  0.1701  0.0668
 5968SOL    HW128373   0.263   6.195   4.271 -0.0852  0.2857  0.1830
 5968SOL    HW228374   0.238   6.356   4.276 -0.6051  0.1361  3.3015
 5969SOL     OW28375   2.176   3.555   4.356 -0.1055  0.3234 -0.0415
 5969SOL    HW128376   2.252   3.493   4.376  1.6108  2.4507  0.1356
 5969SOL    HW228377   2.093   3.522   4.402  1.4027 -0.4101  2.2305
 5970SOL     OW28378   4.527   1.231   1.358 -0.3832 -0.4665  0.3410
 5970SOL    HW128379   4.439   1.224   1.405 -0.7046 -1.1872 -0.3726
 5970SOL    HW228380   4.515   1.217   1.260  0.5303 -0.5969  0.2391
 5971SOL     OW28381   7.634   8.493   3.387 -0.2259  0.2776 -0.1211
 5971SOL    HW128382   7.629   8.512   3.289  0.9876 -0.1531 -0.2707
 5971SOL    HW228383   7.705   8.425   3.405 -2.3062 -1.7400  0.7528
 5972SOL     OW28384   2.326   3.816   2.327  0.9047 -0.2276  0.2169
 5972SOL    HW128385   2.398   3.873   2.287 -0.2324  2.0155  1.2334
 5972SOL    HW228386   2.271   3.774   2.255  0.5563  1.5678 -0.5800
 5973SOL     OW28387   2.582   0.873   1.081  0.2007  0.2496 -0.2354
 5973SOL    HW128388   2.527   0.950   1.048  0.2226  0.0752 -0.6872
 5973SOL    HW228389   2.521   0.804   1.120 -0.1293 -0.9294 -2.7172
 5974SOL     OW28390   5.492   6.463   3.090 -0.1296  0.2463 -0.2345
 5974SOL    HW128391   5.590   6.471   3.106 -0.1980 -3.2785  2.8308
 5974SOL    HW228392   5.473   6.379   3.039 -1.4679  1.7250 -2.2462
 5975SOL     OW28393   0.069   5.827   1.222  0.4367  0.0856  0.2669
 5975SOL    HW128394   0.112   5.810   1.134 -0.3199  0.1634 -0.1235
 5975SOL    HW228395   0.102   5.761   1.289  1.5224  0.4541  0.0921
 5976SOL     OW28396   9.023   9.010   3.786 -0.0850 -0.1576 -0.2841
 5976SOL    HW128397   9.097   8.944   3.793 -1.0970 -1.4342 -1.2567
 5976SOL    HW228398   9.012   9.038   3.690 -1.4337 -0.6824 -0.2979
 5977SOL     OW28399   0.143   6.509   0.735 -0.8489  0.2813 -0.3014
 5977SOL    HW128400   0.078   6.442   0.770 -0.1613 -0.3846 -0.2993
 5977SOL    HW228401   0.179   6.564   0.810 -1.6313  0.8632 -0.3377
 5978SOL     OW28402   2.433   8.270   1.647 -0.0447 -0.3494  0.3627
 5978SOL    HW128403   2.498   8.286   1.721 -0.3981  1.1366  0.3543
 5978SOL    HW228404   2.353   8.223   1.683  0.6484 -1.4218  0.5348
 5979SOL     OW28405   1.697   8.503   1.307 -0.1793  0.6570 -0.2998
 5979SOL    HW128406   1.787   8.462   1.318 -0.8667 -1.0703 -0.8094
 5979SOL    HW228407   1.706   8.597   1.274  1.4078  0.1556 -1.3695
 5980SOL     OW28408   0.085   0.531   4.233  0.1301 -0.3294  0.4109
 5980SOL    HW128409   0.009   0.594   4.247  0.7332 -0.0110  2.3000
 5980SOL    HW228410   0.105   0.482   4.318  1.6603 -0.8306 -0.2174
 5981SOL     OW28411   3.112   4.873   2.178  0.2277  0.0147  0.1527
 5981SOL    HW128412   3.209   4.845   2.176 -0.0480 -0.9164 -1.0355
 5981SOL    HW228413   3.101   4.956   2.124  0.2412 -0.2947 -0.3285
 5982SOL     OW28414   9.792   0.613   4.235  0.0874  0.6972 -0.9278
 5982SOL    HW128415   9.743   0.599   4.149 -1.1472  0.4212 -0.1946
 5982SOL    HW228416   9.795   0.527   4.286  0.0334  1.0556 -0.3046
 5983SOL     OW28417   0.243   8.658   0.231 -0.2970  0.1710 -0.0039
 5983SOL    HW128418   0.337   8.633   0.208 -0.4224 -0.1405 -0.1817
 5983SOL    HW228419   0.216   8.739   0.178 -0.5931 -0.5633 -0.9844
 5984SOL     OW28420   8.219   6.010   2.595  0.2738 -0.2302 -0.6198
 5984SOL    HW128421   8.154   6.031   2.522  1.0174  0.8082 -1.0028
 5984SOL    HW228422   8.250   6.095   2.637  1.0489 -0.7374 -0.1489
 5985SOL     OW28423   1.527   5.121   1.193  0.1732  0.1986  0.0258
 5985SOL    HW128424   1.541   5.032   1.235 -0.2120 -0.3351 -0.9697
 5985SOL    HW228425   1.467   5.112   1.113 -1.8902  1.7385  1.3649
 5986SOL     OW28426   1.829   6.599   1.946 -0.0910 -0.0042  0.0607
 5986SOL    HW128427   1.917   6.618   1.903  0.3226  1.4893  1.5146
 5986SOL    HW228428   1.842   6.530   2.018  0.0851  0.8937  0.9049
 5987SOL     OW28429   1.299   9.601   2.934 -0.1818  0.0934  0.5388
 5987SOL    HW128430   1.313   9.509   2.972 -0.8052  0.1332  0.8740
 5987SOL    HW228431   1.307   9.598   2.835  0.6443 -0.1670  0.6092
 5988SOL     OW28432   1.833   5.099   3.665  0.2212  0.3150  0.3052
 5988SOL    HW128433   1.734   5.096   3.654 -0.0213  1.6816  1.8913
 5988SOL    HW228434   1.873   5.013   3.633 -1.6421 -0.9269  1.2470
 5989SOL     OW28435   3.952   8.251   3.895  0.0555 -0.4871 -0.6923
 5989SOL    HW128436   3.971   8.155   3.875 -0.6199 -0.7462 -0.1012
 5989SOL    HW228437   3.915   8.259   3.987 -0.6068  0.2508 -1.0192
 5990SOL     OW28438   0.377   5.424   0.298  0.6682 -0.0371 -0.3512
 5990SOL    HW128439   0.323   5.386   0.374  0.5120 -0.8084 -0.8426
 5990SOL    HW228440   0.439   5.494   0.333  0.3479 -0.1388  0.4361
 5991SOL     OW28441   3.442   3.034   3.676 -0.0011 -0.3854  0.0564
 5991SOL    HW128442   3.490   3.118   3.700  0.1810 -0.2734 -0.7037
 5991SOL    HW228443   3.467   3.006   3.584 -2.9946  0.8552 -1.2168
 5992SOL     OW28444   1.594   0.706   0.394  0.4103  0.4470 -0.3668
 5992SOL    HW128445   1.525   0.685   0.324  0.5732  0.0410 -0.4063
 5992SOL    HW228446   1.597   0.805   0.409  0.8818  0.6153 -1.4657
 5993SOL     OW28447   2.425   6.650   0.549  0.1640  0.0740  0.4523
 5993SOL    HW128448   2.524   6.640   0.541  0.3389  1.3293  0.9828
 5993SOL    HW228449   2.402   6.747   0.562 -1.1944 -0.0839 -0.6484
 5994SOL     OW28450   0.369   6.307   0.946  0.0709  0.2430 -0.1819
 5994SOL    HW128451   0.444   6.331   1.007  1.2867  2.7390 -2.5753
 5994SOL    HW228452   0.401   6.243   0.876 -1.5474 -3.3760  2.1979
 5995SOL     OW28453   5.517   9.041   2.165 -0.2740  0.3276 -0.0372
 5995SOL    HW128454   5.445   9.096   2.121 -1.2386 -1.7551 -1.1184
 5995SOL    HW228455   5.483   8.949   2.182  1.9366 -0.4846  0.1247
 5996SOL     OW28456   9.885   5.554   2.225  0.8532  0.0027  0.1949
 5996SOL    HW128457   9.792   5.523   2.240  0.2401  1.2760 -0.8692
 5996SOL    HW228458   9.938   5.481   2.182 -0.3135  0.0685 -1.4085
 5997SOL     OW28459   4.312   8.094   3.078  0.8732 -0.2375  0.1411
 5997SOL    HW128460   4.320   8.172   3.140 -0.0847  0.5658 -0.7325
 5997SOL    HW228461   4.401   8.076   3.036  0.6982  1.5363 -1.0248
 5998SOL     OW28462   0.584   9.892   3.781  0.2354 -0.5158 -0.6138
 5998SOL    HW128463   0.553   9.911   3.875  0.8067  2.6741 -1.0074
 5998SOL    HW228464   0.504   9.878   3.722 -0.3507  2.0405 -0.5036
 5999SOL     OW28465   5.045   8.414   3.171 -0.5174  0.3171 -0.3187
 5999SOL    HW128466   5.000   8.369   3.248 -2.9585  1.2640 -1.1494
 5999SOL    HW228467   5.143   8.391   3.172 -0.8609 -1.2628  1.8975
 6000SOL     OW28468   2.605   4.434   1.022 -0.0028  0.2841 -0.8284
 6000SOL    HW128469   2.609   4.371   1.100  0.9116  0.5102 -0.6833
 6000SOL    HW228470   2.522   4.489   1.028  0.3518  0.7087  0.3064
 6001SOL     OW28471   5.554   0.071   2.189  0.6162 -1.0019  0.6448
 6001SOL    HW128472   5.549   0.006   2.264 -2.7147 -1.5033  0.0896
 6001SOL    HW228473   5.538   0.023   2.102 -2.2087  0.5189  0.2598
 6002SOL     OW28474   4.473   7.404   1.516  0.3742 -0.0641 -0.8076
 6002SOL    HW128475   4.414   7.370   1.443 -0.8584  0.4106 -0.0393
 6002SOL    HW228476   4.468   7.344   1.595  1.4259 -0.3764 -0.9674
 6003SOL     OW28477   7.588   8.799   0.107 -0.2103  0.4552 -0.1139
 6003SOL    HW128478   7.652   8.758   0.042 -0.7896  0.5326 -0.7386
 6003SOL    HW228479   7.521   8.730   0.135  0.2048  0.3453  0.6159
 6004SOL     OW28480   2.018   5.741   0.327 -0.0704  0.3369  0.5454
 6004SOL    HW128481   2.079   5.799   0.381  2.7668 -1.0009 -1.0974
 6004SOL    HW228482   2.018   5.772   0.232 -0.1865 -1.0783  0.0794
 6005SOL     OW28483   2.034   6.597   4.490  0.3264  0.0971 -0.0803
 6005SOL    HW128484   1.988   6.685   4.498 -0.6207 -0.4904  1.0911
 6005SOL    HW228485   2.049   6.559   4.581 -0.8211 -1.7284 -0.6199
 6006SOL     OW28486   0.140   1.371   1.847  0.4434  0.2883  0.2264
 6006SOL    HW128487   0.110   1.294   1.791  1.3199 -0.0446  0.2094
 6006SOL    HW228488   0.118   1.353   1.943  1.1429 -0.2278  0.2899
 6007SOL     OW28489   0.529   5.962   2.015  0.1264  0.6074  0.1627
 6007SOL    HW128490   0.621   5.969   1.976  0.2094  0.6398  0.3621
 6007SOL    HW228491   0.500   6.051   2.049 -0.5110  0.8842 -1.0848
 6008SOL     OW28492   6.587   8.916   1.946  0.0221 -0.1214 -0.0397
 6008SOL    HW128493   6.615   8.971   1.867  0.4216  0.1192  0.2721
 6008SOL    HW228494   6.600   8.819   1.925 -0.4322 -0.0864 -0.4898
 6009SOL     OW28495   3.524   9.573   2.126 -0.0665  0.4682 -0.5763
 6009SOL    HW128496   3.501   9.599   2.032  0.1733  1.7607 -0.2821
 6009SOL    HW228497   3.487   9.482   2.145 -1.5395  0.8786 -1.3860
 6010SOL     OW28498   1.276   4.779   3.491 -0.1241  0.3021  0.3356
 6010SOL    HW128499   1.324   4.731   3.418  0.1630 -2.3941  2.1836
 6010SOL    HW228500   1.178   4.757   3.487  0.0740 -0.8689  1.4552
 6011SOL     OW28501   9.714   7.586   4.646  0.2180  0.2009  0.5098
 6011SOL    HW128502   9.755   7.676   4.659  0.5976  0.3745 -1.7243
 6011SOL    HW228503   9.744   7.547   4.559 -0.6529 -1.7055  1.0253
 6012SOL     OW28504   8.698   8.406   1.559  0.2586  0.5474  0.3068
 6012SOL    HW128505   8.677   8.495   1.520 -0.0710  0.6468  0.7025
 6012SOL    HW228506   8.649   8.335   1.509 -0.6664  0.7345  0.9314
 6013SOL     OW28507   0.995   6.362   2.471  0.2344 -0.5742  0.3676
 6013SOL    HW128508   1.006   6.419   2.390 -0.3203 -1.5138 -0.3826
 6013SOL    HW228509   1.085   6.344   2.512  0.7249 -1.6070 -1.1057
 6014SOL     OW28510   2.801   1.598   1.245  0.2567  0.6702  0.4781
 6014SOL    HW128511   2.750   1.682   1.226  1.4318  1.5352  1.0337
 6014SOL    HW228512   2.842   1.564   1.161  0.8127  1.3528  0.4704
 6015SOL     OW28513   8.167   8.050   1.128  0.2584  0.3692 -0.2813
 6015SOL    HW128514   8.212   8.054   1.039 -0.2519 -0.3022 -0.5761
 6015SOL    HW228515   8.186   7.962   1.171 -0.1205  0.3932 -0.0629
 6016SOL     OW28516   9.372   6.136   3.109  0.2590 -0.2759 -0.1187
 6016SOL    HW128517   9.322   6.192   3.176  1.5771  0.9913 -0.1688
 6016SOL    HW228518   9.340   6.160   3.017  1.4886  1.1234 -0.2054
 6017SOL     OW28519   1.890   3.141   4.473  0.0805 -0.1489 -0.0093
 6017SOL    HW128520   1.841   3.158   4.387  0.5116  1.3097  0.0245
 6017SOL    HW228521   1.830   3.160   4.550 -0.0226 -0.6042  0.0270
 6018SOL     OW28522   9.357   5.737   0.277 -0.5723 -0.1502 -0.2896
 6018SOL    HW128523   9.284   5.716   0.342  0.1099  0.1781  0.5973
 6018SOL    HW228524   9.323   5.799   0.207 -0.9869  0.4632  0.4540
 6019SOL     OW28525   1.871   5.946   3.080 -0.2424 -0.5304 -0.6190
 6019SOL    HW128526   1.803   6.019   3.075  1.0653  0.7855  0.5180
 6019SOL    HW228527   1.879   5.901   2.991 -3.0607 -1.1383 -0.6033
 6020SOL     OW28528   4.690   1.827   1.598  0.6348  0.5286  0.2345
 6020SOL    HW128529   4.630   1.781   1.664  0.8949  0.1728  0.2204
 6020SOL    HW228530   4.667   1.797   1.505  2.5706 -1.6144  0.4047
 6021SOL     OW28531   1.766   1.163   0.217  0.6900  0.4999  0.0122
 6021SOL    HW128532   1.780   1.076   0.265  0.9274  0.5209 -0.0197
 6021SOL    HW228533   1.815   1.236   0.265  4.0232 -0.1020 -2.2717
 6022SOL     OW28534   1.747   4.899   1.399 -0.2246  0.7358 -0.4651
 6022SOL    HW128535   1.810   4.900   1.476 -2.5041  2.5387  1.4702
 6022SOL    HW228536   1.797   4.914   1.314  2.4796 -2.2910  0.4797
 6023SOL     OW28537   0.774   8.770   2.889  0.5904  0.2250 -0.2812
 6023SOL    HW128538   0.869   8.781   2.863  0.2098  3.3828 -0.6146
 6023SOL    HW228539   0.764   8.785   2.988  0.1330  2.4662 -0.6415
 6024SOL     OW28540   3.671   3.374   3.886  0.2204  0.4979 -0.2275
 6024SOL    HW128541   3.621   3.460   3.888  1.2240  1.0752  0.2560
 6024SOL    HW228542   3.752   3.380   3.945 -0.9519 -1.5546  1.7182
 6025SOL     OW28543   0.439   8.862   2.195 -0.2155 -0.4459  0.8096
 6025SOL    HW128544   0.520   8.829   2.148 -0.7728  0.0780 -0.5290
 6025SOL    HW228545   0.429   8.961   2.180 -2.3327 -0.8836 -0.9366
 6026SOL     OW28546   4.847   1.484   0.983 -0.3960  0.3036  0.7280
 6026SOL    HW128547   4.865   1.575   0.947  2.1342  0.0476  1.2703
 6026SOL    HW228548   4.834   1.490   1.082  0.3411  0.0135  0.8455
 6027SOL     OW28549   1.532   0.667   4.577  0.5397  0.0281  0.4937
 6027SOL    HW128550   1.515   0.587   4.520  1.1460 -0.2809  0.7443
 6027SOL    HW228551   1.479   0.661   4.661  0.8660 -0.2939  0.6788
 6028SOL     OW28552   8.637   6.192   0.394 -0.6001 -0.4237 -0.5543
 6028SOL    HW128553   8.565   6.169   0.328 -0.2340 -3.2437 -0.0100
 6028SOL    HW228554   8.599   6.192   0.486 -0.5302  0.9387 -0.5203
 6029SOL     OW28555   0.370   3.226   2.788 -0.1731 -0.6518 -0.0718
 6029SOL    HW128556   0.292   3.167   2.765 -0.7265 -0.4236  1.1708
 6029SOL    HW228557   0.394   3.213   2.884  2.3359 -1.8642 -0.8140
 6030SOL     OW28558   9.315   5.231   3.742 -0.1299 -0.1186  0.1703
 6030SOL    HW128559   9.311   5.277   3.831  0.0129 -0.1909  0.2142
 6030SOL    HW228560   9.246   5.270   3.682  0.0596  0.2234  0.1743
 6031SOL     OW28561   2.703   7.987   3.406  0.5590 -0.1578  0.1764
 6031SOL    HW128562   2.676   8.051   3.478  0.0951 -0.1861  0.0285
 6031SOL    HW228563   2.660   8.014   3.320  0.8163 -0.3407 -0.0092
 6032SOL     OW28564   0.598   3.011   2.281  0.1353  0.4504 -0.5686
 6032SOL    HW128565   0.604   3.102   2.321  0.6912  0.6653 -1.1296
 6032SOL    HW228566   0.686   2.965   2.289 -1.0711 -1.4383  2.9254
 6033SOL     OW28567   1.198   0.137   0.356 -0.1698  0.8525  0.5718
 6033SOL    HW128568   1.294   0.161   0.373 -0.2846  1.1269  0.8384
 6033SOL    HW228569   1.172   0.168   0.265  0.5193 -0.8430 -0.2255
 6034SOL     OW28570   9.361   5.748   3.367 -0.4836  0.5412 -0.6844
 6034SOL    HW128571   9.264   5.773   3.367 -0.4325  0.7316 -1.2658
 6034SOL    HW228572   9.370   5.651   3.388 -0.7028  0.9048  1.1693
 6035SOL     OW28573   3.919   0.499   3.249  0.4017  0.6004  0.4463
 6035SOL    HW128574   3.867   0.527   3.330 -0.7276  0.3824 -0.2033
 6035SOL    HW228575   3.902   0.403   3.230  0.8119  0.6065  0.0535
 6036SOL     OW28576   1.240   2.227   2.182  0.0233  0.3949  0.1356
 6036SOL    HW128577   1.197   2.273   2.104  1.1193  1.4418  0.1293
 6036SOL    HW228578   1.170   2.193   2.244 -0.8521 -0.0716 -1.1024
 6037SOL     OW28579   3.795   0.327   0.092  0.2027 -0.4248 -0.1551
 6037SOL    HW128580   3.872   0.265   0.098 -0.4391 -1.0640  2.6196
 6037SOL    HW228581   3.825   0.420   0.116  0.1919 -0.6307  0.6933
 6038SOL     OW28582   1.262   5.416   1.790 -0.0358  0.0968 -0.1730
 6038SOL    HW128583   1.249   5.350   1.715  1.8277  1.2560 -1.5370
 6038SOL    HW228584   1.172   5.444   1.824 -0.9024 -3.4845  0.7678
 6039SOL     OW28585   7.666   6.562   1.141  0.6218 -0.7687 -0.0659
 6039SOL    HW128586   7.736   6.634   1.135  0.2804 -0.3784  0.5537
 6039SOL    HW228587   7.606   6.567   1.061  0.7680 -0.5375 -0.1615
 6040SOL     OW28588   9.621   8.177   0.879 -0.2079  0.3656  0.4695
 6040SOL    HW128589   9.572   8.261   0.899 -1.5129 -0.2251 -0.1765
 6040SOL    HW228590   9.605   8.111   0.952  1.1776  0.8245  1.1980
 6041SOL     OW28591   2.082   3.330   3.397 -0.1165 -0.2988 -0.0799
 6041SOL    HW128592   2.084   3.248   3.455  0.7472  0.7787  1.4810
 6041SOL    HW228593   2.173   3.346   3.359 -0.2907 -0.0924 -0.4126
 6042SOL     OW28594   2.182   1.904   2.219  0.2307  0.2748  0.1200
 6042SOL    HW128595   2.265   1.863   2.183  1.4428  1.3988  1.5573
 6042SOL    HW228596   2.110   1.901   2.150  2.0691  1.1542 -1.8803
 6043SOL     OW28597   4.304   3.186   3.461  0.6430 -0.4088  0.1625
 6043SOL    HW128598   4.208   3.212   3.447  0.1666 -2.0961  0.3050
 6043SOL    HW228599   4.340   3.145   3.377  0.8681 -0.9463  0.5197
 6044SOL     OW28600   1.232   4.508   4.771 -0.4904 -0.2111  0.4445
 6044SOL    HW128601   1.179   4.433   4.731 -1.3251 -0.6788  2.3243
 6044SOL    HW228602   1.318   4.519   4.722 -2.2678  0.4915 -2.6182
 6045SOL     OW28603   2.301   0.835   3.468  0.6803  0.1300  0.1669
 6045SOL    HW128604   2.243   0.868   3.543 -1.2231  0.3856 -1.4038
 6045SOL    HW228605   2.248   0.776   3.408  2.3665 -0.5676 -0.6617
 6046SOL     OW28606   4.568   9.448   3.709  0.1031 -0.4794 -0.2032
 6046SOL    HW128607   4.594   9.542   3.732 -0.4168 -0.0446 -1.4038
 6046SOL    HW228608   4.545   9.399   3.793 -1.1560  0.9278  0.2963
 6047SOL     OW28609   2.769   8.787   2.634  0.0959  0.8658 -0.0851
 6047SOL    HW128610   2.714   8.705   2.650  0.8639  0.3252 -0.1998
 6047SOL    HW228611   2.858   8.777   2.679  0.5339  1.2585 -0.8563
 6048SOL     OW28612   9.612   6.877   0.164  0.3500  0.1708 -0.3469
 6048SOL    HW128613   9.648   6.838   0.249 -3.0140 -1.4850  0.4061
 6048SOL    HW228614   9.679   6.863   0.090  1.6072 -2.0396  1.1295
 6049SOL     OW28615   4.619   8.326   2.992 -0.7708  0.3121 -0.7865
 6049SOL    HW128616   4.613   8.324   3.091 -1.8211 -0.4197 -0.8515
 6049SOL    HW228617   4.708   8.362   2.964 -0.4760  0.5195  0.4154
 6050SOL     OW28618   7.780   8.615   2.070  0.1476 -0.1344  0.2982
 6050SOL    HW128619   7.730   8.536   2.035  0.9715 -0.1860 -0.8032
 6050SOL    HW228620   7.722   8.696   2.068 -1.4839 -1.1330  3.6129
 6051SOL     OW28621   2.670   8.736   0.734  0.5210  0.1784  0.8505
 6051SOL    HW128622   2.610   8.746   0.813 -0.6821  0.5065 -0.0789
 6051SOL    HW228623   2.615   8.708   0.655  1.4666  1.3237 -0.2280
 6052SOL     OW28624   1.038   3.673   2.516 -0.3647 -0.3803 -0.1627
 6052SOL    HW128625   1.030   3.590   2.571 -0.4061 -0.7845 -0.7748
 6052SOL    HW228626   1.102   3.736   2.560 -1.0694 -0.3205  0.8139
 6053SOL     OW28627   3.247   2.924   0.167  0.4505 -0.8257  0.2143
 6053SOL    HW128628   3.298   2.941   0.082  0.3178  1.0812  0.4997
 6053SOL    HW228629   3.238   3.009   0.218 -1.5658 -1.4798  1.0000
 6054SOL     OW28630   2.966   4.734   0.183 -0.2854  0.3285  0.1377
 6054SOL    HW128631   3.003   4.818   0.222  2.3517 -1.4440  1.5803
 6054SOL    HW228632   2.884   4.707   0.233 -0.7081  1.6148  0.1539
 6055SOL     OW28633   3.820   3.533   3.366  0.0854 -0.3706 -0.1675
 6055SOL    HW128634   3.727   3.517   3.399  0.5760  0.4524  1.6713
 6055SOL    HW228635   3.883   3.473   3.415  0.2142 -3.2475 -3.6236
 6056SOL     OW28636   9.312   9.373   3.486  0.2658  0.3310 -0.2351
 6056SOL    HW128637   9.380   9.446   3.490  1.4970 -0.7741 -0.3631
 6056SOL    HW228638   9.320   9.326   3.398 -0.5800  0.1150 -0.1955
 6057SOL     OW28639   0.754   7.322   0.693 -0.4999  0.2328 -0.1863
 6057SOL    HW128640   0.809   7.324   0.610  0.2580  1.7843  0.3322
 6057SOL    HW228641   0.657   7.313   0.669 -0.2437  0.1422 -1.2013
 6058SOL     OW28642   3.165   3.008   1.556  0.5096 -0.4585  0.0227
 6058SOL    HW128643   3.123   3.061   1.630 -0.3570 -0.6564 -0.3277
 6058SOL    HW228644   3.256   2.977   1.585  0.6182  0.3816  0.5976
 6059SOL     OW28645   4.553   0.193   1.295  0.2230 -0.1252 -0.5718
 6059SOL    HW128646   4.526   0.143   1.213  1.5216 -1.9432  0.0636
 6059SOL    HW228647   4.503   0.158   1.374  1.4577 -0.7400 -0.0470
 6060SOL     OW28648   9.795   8.132   3.911 -0.0624 -0.3501 -0.7345
 6060SOL    HW128649   9.822   8.102   3.820  0.6575  0.8434 -0.9244
 6060SOL    HW228650   9.828   8.225   3.927 -1.8016  0.1531  0.0392
 6061SOL     OW28651   3.314   6.968   4.582  0.4741 -0.4434 -0.6698
 6061SOL    HW128652   3.270   6.940   4.497  2.4487  2.6876 -2.8437
 6061SOL    HW228653   3.257   7.038   4.627 -0.9403 -2.6315  1.0526
 6062SOL     OW28654   1.509   0.439   4.430 -0.0252  0.2727 -0.2576
 6062SOL    HW128655   1.443   0.434   4.355  0.8413 -1.1447 -0.9552
 6062SOL    HW228656   1.501   0.357   4.487  2.2779 -0.7628 -1.3574
 6063SOL     OW28657   3.033   0.245   0.392  0.4076 -0.0298  0.1219
 6063SOL    HW128658   2.973   0.165   0.396 -0.3853  0.5637  0.3475
 6063SOL    HW228659   3.044   0.274   0.297  1.4272 -0.9459 -0.0423
 6064SOL     OW28660   9.699   6.916   2.776 -0.6107  0.2809 -0.5251
 6064SOL    HW128661   9.638   6.993   2.793 -0.3689  0.1015  1.1989
 6064SOL    HW228662   9.794   6.947   2.783 -0.5107  0.0284 -0.7553
 6065SOL     OW28663   2.911   2.742   1.370 -0.3770 -0.1456 -0.1344
 6065SOL    HW128664   2.960   2.825   1.342 -1.3652  1.8055  3.4945
 6065SOL    HW228665   2.973   2.664   1.371  1.5879  1.3920  0.2118
 6066SOL     OW28666   0.403   5.016   1.298  0.0703  0.6634  0.4126
 6066SOL    HW128667   0.319   5.071   1.307 -0.4788  0.0789 -0.9525
 6066SOL    HW228668   0.481   5.076   1.283 -0.3311  1.1422  0.2312
 6067SOL     OW28669   9.665   9.281   4.235  0.1850  0.1047  0.2987
 6067SOL    HW128670   9.672   9.268   4.334 -1.1689 -0.3903  0.3389
 6067SOL    HW228671   9.573   9.312   4.212  0.3799 -0.1593 -0.8480
 6068SOL     OW28672   9.386   8.247   4.099  0.0261  0.5978  0.3553
 6068SOL    HW128673   9.343   8.325   4.146  1.3229  2.2934 -1.1762
 6068SOL    HW228674   9.343   8.235   4.009 -0.1727 -0.4529  0.5933
 6069SOL     OW28675   2.953   4.855   3.066  0.3468 -0.5704 -0.8977
 6069SOL    HW128676   3.051   4.866   3.047  0.3526  0.4805 -0.2728
 6069SOL    HW228677   2.909   4.945   3.067  0.0591 -0.6842  2.6102
 6070SOL     OW28678   1.346   3.057   2.424  0.6423 -0.7586 -0.6670
 6070SOL    HW128679   1.371   3.134   2.365  4.2553 -1.3494 -0.0208
 6070SOL    HW228680   1.269   3.007   2.383 -0.8829  2.3393 -1.7671
 6071SOL     OW28681   0.966   3.133   4.716 -0.1974  0.3177  0.1442
 6071SOL    HW128682   1.044   3.184   4.679  0.0232  0.5062  0.8484
 6071SOL    HW228683   0.928   3.183   4.794 -1.6572  0.7371 -0.8027
 6072SOL     OW28684   1.252   0.386   3.127  0.1214  0.1400 -0.5801
 6072SOL    HW128685   1.214   0.339   3.206  0.2184  1.1547  0.0749
 6072SOL    HW228686   1.205   0.356   3.044 -0.7692 -0.0651 -0.0020
 6073SOL     OW28687   4.563   9.271   2.026 -0.3227 -0.4593 -0.0198
 6073SOL    HW128688   4.625   9.193   2.026  0.0629 -0.1690  2.1841
 6073SOL    HW228689   4.522   9.281   1.935  1.0256 -2.0933 -0.8213
 6074SOL     OW28690   9.732   8.684   3.755 -0.2063  0.0448  0.0963
 6074SOL    HW128691   9.722   8.621   3.831  0.2968  0.9385  0.9144
 6074SOL    HW228692   9.749   8.776   3.790  0.4011  0.3982 -1.0934
 6075SOL     OW28693   4.133   7.206   2.824 -0.1468 -0.2545 -0.0055
 6075SOL    HW128694   4.133   7.289   2.769  1.0312 -0.3653 -0.1867
 6075SOL    HW228695   4.150   7.228   2.920  1.1536 -0.3612 -0.1986
 6076SOL     OW28696   5.769   7.842   2.825 -0.0227  0.0505 -0.1579
 6076SOL    HW128697   5.676   7.851   2.861  0.3944 -0.5893  1.1090
 6076SOL    HW228698   5.822   7.924   2.849 -0.9359  1.5694 -3.0466
 6077SOL     OW28699   6.565   8.547   2.630 -0.3615 -0.1805  0.2587
 6077SOL    HW128700   6.502   8.616   2.596  0.3786 -0.3792 -1.5304
 6077SOL    HW228701   6.649   8.591   2.662 -0.6862 -0.0874  1.0147
 6078SOL     OW28702   8.558   9.647   2.399  0.5812  0.1137  0.2627
 6078SOL    HW128703   8.528   9.551   2.397 -0.6182  0.4455  1.1908
 6078SOL    HW228704   8.654   9.652   2.427  1.0677 -0.8979 -1.2060
 6079SOL     OW28705   1.951   7.216   4.088 -0.1466 -0.2889  0.0409
 6079SOL    HW128706   1.997   7.240   4.174 -1.7420 -0.3190  0.9195
 6079SOL    HW228707   2.019   7.204   4.016  1.1392  0.7059  1.0710
 6080SOL     OW28708   0.464   0.465   1.652 -0.6721  0.0185  0.6332
 6080SOL    HW128709   0.427   0.375   1.629  0.0042  0.0282 -0.5374
 6080SOL    HW228710   0.432   0.532   1.584 -1.8176  0.8262  1.9406
 6081SOL     OW28711   3.101   1.607   3.692  0.1087  0.2604  0.3342
 6081SOL    HW128712   3.193   1.612   3.653  0.3658  0.4353  0.9491
 6081SOL    HW228713   3.065   1.699   3.703 -0.3320  0.1723 -0.3413
 6082SOL     OW28714   9.916   6.628   3.673  0.2909  0.3899  0.2916
 6082SOL    HW128715   9.894   6.541   3.717 -0.2962  0.4000  0.0191
 6082SOL    HW228716   9.833   6.669   3.636  0.6018  0.9551  0.2081
 6083SOL     OW28717   0.881   7.609   2.066  0.8911  0.2175 -0.0849
 6083SOL    HW128718   0.806   7.675   2.070  2.0671  1.4912  1.9892
 6083SOL    HW228719   0.914   7.592   2.159  1.0339 -2.8320 -0.6544
 6084SOL     OW28720   1.282   6.140   4.204 -0.2936  0.7149 -0.1980
 6084SOL    HW128721   1.221   6.188   4.268 -1.1463 -0.7951  0.1555
 6084SOL    HW228722   1.252   6.157   4.110 -0.4840  1.0070 -0.0853
 6085SOL     OW28723   2.237   2.163   3.513 -0.1461 -0.6135  0.4298
 6085SOL    HW128724   2.325   2.119   3.532  0.1461 -1.2861 -2.1935
 6085SOL    HW228725   2.253   2.252   3.471 -0.6480 -1.6307 -2.0163
 6086SOL     OW28726   3.376   3.095   4.731 -1.0293  0.2773  0.0353
 6086SOL    HW128727   3.329   3.182   4.714 -1.1314 -0.0176 -1.2887
 6086SOL    HW228728   3.387   3.046   4.644  0.6992 -0.1912  0.4994
 6087SOL     OW28729   0.007   6.991   2.847  0.2905 -0.4634  0.3567
 6087SOL    HW128730   0.032   6.986   2.750 -1.1731 -1.1317  0.0130
 6087SOL    HW228731   0.036   7.080   2.884 -0.0565  0.2034 -0.9419
 6088SOL     OW28732   5.841   9.773   1.494  0.3120  0.1578  0.3032
 6088SOL    HW128733   5.832   9.706   1.567  1.6272  0.1036  0.4326
 6088SOL    HW228734   5.807   9.734   1.408 -0.4912 -0.0648  0.7225
 6089SOL     OW28735   2.877   1.468   1.015 -0.1125 -0.4768 -0.2332
 6089SOL    HW128736   2.971   1.444   1.041 -0.6697 -0.1354  2.1805
 6089SOL    HW228737   2.817   1.390   1.030 -0.3533 -0.4654 -1.1044
 6090SOL     OW28738   7.953   0.007   2.298 -0.4131  0.0552 -0.4806
 6090SOL    HW128739   7.996  -0.007   2.209  0.0151 -2.1399  0.0504
 6090SOL    HW228740   8.017  -0.019   2.371 -1.4975 -0.1653  0.4066
 6091SOL     OW28741   7.490   9.660   3.468 -0.4063  0.1847 -0.8214
 6091SOL    HW128742   7.551   9.678   3.391  0.1821  0.3001 -0.3340
 6091SOL    HW228743   7.398   9.640   3.434 -0.3437  1.0462 -1.5063
 6092SOL     OW28744   2.572   3.458   0.830  0.6482  0.7899 -0.1437
 6092SOL    HW128745   2.536   3.477   0.739 -0.0904  1.4201  0.2749
 6092SOL    HW228746   2.570   3.360   0.847  3.2362  0.4100 -1.8066
 6093SOL     OW28747   3.114   9.804   3.027 -0.3517  0.5129  0.0767
 6093SOL    HW128748   3.035   9.786   2.970 -0.4093 -0.8473  0.5685
 6093SOL    HW228749   3.086   9.859   3.106 -1.0151 -0.8136  0.7815
 6094SOL     OW28750   1.367   4.352   0.442  0.7083 -0.0314 -0.1361
 6094SOL    HW128751   1.318   4.266   0.428  0.7625  0.1500 -1.5101
 6094SOL    HW228752   1.320   4.426   0.394 -0.1873  1.0392  2.2630
 6095SOL     OW28753   3.779   8.404   3.298  0.0671  0.5189 -0.4217
 6095SOL    HW128754   3.746   8.372   3.210  0.3360  1.0876 -0.7333
 6095SOL    HW228755   3.747   8.497   3.314  1.5297  1.1030 -0.7574
 6096SOL     OW28756   7.901   8.571   4.618  0.0568 -1.0082  0.2509
 6096SOL    HW128757   7.861   8.663   4.618 -0.0416 -1.0276  2.0641
 6096SOL    HW228758   7.967   8.564   4.544 -1.4480 -0.1497 -1.2125
 6097SOL     OW28759   1.164   0.487   1.766 -0.2744  0.2604 -0.0626
 6097SOL    HW128760   1.121   0.415   1.712 -1.6356  0.5925  0.5486
 6097SOL    HW228761   1.166   0.460   1.863  0.2498  0.5563  0.0110
 6098SOL     OW28762   1.644   4.518   3.443  0.0765  0.2724  0.1202
 6098SOL    HW128763   1.593   4.601   3.466  0.0041 -0.1741  1.6489
 6098SOL    HW228764   1.581   4.440   3.443  0.3150  0.0763 -0.4327
 6099SOL     OW28765   4.265   9.233   3.925  0.2899  0.2204  0.3136
 6099SOL    HW128766   4.345   9.243   3.866 -0.5346 -0.6624 -0.9945
 6099SOL    HW228767   4.193   9.296   3.895 -1.1796 -2.2258 -1.4954
 6100SOL     OW28768   9.461   9.241   0.937 -0.3650  0.5295 -0.0955
 6100SOL    HW128769   9.475   9.340   0.932 -1.7652  0.6929 -1.1595
 6100SOL    HW228770   9.541   9.193   0.900  1.0987  1.2065  2.1072
 6101SOL     OW28771   4.439   2.257   2.181  0.3002  0.0388  0.2488
 6101SOL    HW128772   4.448   2.230   2.277  2.5275 -1.1538 -0.2600
 6101SOL    HW228773   4.343   2.273   2.160 -0.3809 -1.2275  2.2616
 6102SOL     OW28774   2.137   9.270   2.306 -0.4938 -0.0246 -0.2139
 6102SOL    HW128775   2.151   9.356   2.353  1.0084  1.6772 -3.6317
 6102SOL    HW228776   2.058   9.278   2.244  1.0101 -0.3507 -2.2100
 6103SOL     OW28777   6.224   6.814   3.013 -0.2832 -0.4123  0.5618
 6103SOL    HW128778   6.139   6.767   3.037 -1.3168  0.5910 -0.9875
 6103SOL    HW228779   6.299   6.749   3.009 -1.2033 -1.5050  0.8339
 6104SOL     OW28780   1.897   2.737   1.154 -0.0284 -0.2217  0.0476
 6104SOL    HW128781   1.851   2.743   1.065  0.7391 -0.4967 -0.3758
 6104SOL    HW228782   1.932   2.644   1.166  0.3600 -0.0298  0.3870
 6105SOL     OW28783   8.766   8.099   3.633 -0.3503  0.4115 -0.1921
 6105SOL    HW128784   8.793   8.003   3.622  0.7978  0.6353  0.5600
 6105SOL    HW228785   8.690   8.106   3.697  1.8113  0.2771  2.4710
 6106SOL     OW28786   4.044   1.997   0.644 -0.6551  0.6743 -0.7577
 6106SOL    HW128787   3.971   2.042   0.696 -0.3405  0.3814 -0.0503
 6106SOL    HW228788   4.060   1.906   0.681 -1.9314 -0.4107 -2.7780
 6107SOL     OW28789   5.666   9.159   3.556 -0.5950  0.2334  0.8003
 6107SOL    HW128790   5.570   9.151   3.579 -0.4202 -0.7607  1.1992
 6107SOL    HW228791   5.687   9.254   3.533 -1.5169  0.5767  1.3593
 6108SOL     OW28792   8.314   8.496   2.971 -0.6463  0.4818 -0.1233
 6108SOL    HW128793   8.215   8.510   2.969 -0.5530  1.0708 -0.7436
 6108SOL    HW228794   8.334   8.407   3.012 -1.4632  0.1102 -0.5137
 6109SOL     OW28795   1.231   8.203   0.883  0.4670 -0.3016 -0.3765
 6109SOL    HW128796   1.250   8.106   0.872  1.1389 -0.2261  0.1141
 6109SOL    HW228797   1.281   8.255   0.814 -0.5130 -0.3603 -1.1466
 6110SOL     OW28798   3.637   4.538   0.030  0.2742 -0.0262  0.3708
 6110SOL    HW128799   3.571   4.505   0.098 -0.0089  1.5947  0.8937
 6110SOL    HW228800   3.730   4.520   0.063  0.1157 -2.4678 -0.4420
 6111SOL     OW28801   2.837   5.002   0.896 -0.2176 -0.3016  0.7972
 6111SOL    HW128802   2.850   4.973   0.801  1.4870  1.5679  0.4209
 6111SOL    HW228803   2.787   5.089   0.897 -0.4819 -0.4651  1.6296
 6112SOL     OW28804   3.761   1.835   3.846  0.1033 -0.1443 -0.6861
 6112SOL    HW128805   3.673   1.830   3.895  3.0804 -0.8779  5.1069
 6112SOL    HW228806   3.769   1.923   3.800 -2.7761  0.7977  0.5032
 6113SOL     OW28807   8.724   5.697   2.505 -0.5990  0.1853  0.0502
 6113SOL    HW128808   8.753   5.693   2.410 -0.3337  0.0465  0.1382
 6113SOL    HW228809   8.791   5.748   2.559  0.0395 -1.0898  0.4668
 6114SOL     OW28810   1.765   8.098   1.300  0.5891 -0.1844 -0.0262
 6114SOL    HW128811   1.828   8.050   1.239  0.6559  0.2781 -0.3232
 6114SOL    HW228812   1.680   8.117   1.252  0.9212  0.8507 -0.2239
 6115SOL     OW28813   8.737   9.399   0.793  0.6166  0.1181  0.0750
 6115SOL    HW128814   8.686   9.384   0.709  0.1655  1.6077  0.0577
 6115SOL    HW228815   8.688   9.359   0.871  0.7955 -0.8360 -0.2976
 6116SOL     OW28816   1.604   5.593   1.892 -0.1161  0.5301  0.3454
 6116SOL    HW128817   1.663   5.621   1.816 -1.1305  2.5885  0.2662
 6116SOL    HW228818   1.512   5.629   1.878 -0.9866 -1.2771  1.2677
 6117SOL     OW28819   1.658   4.283   0.106 -0.1626  0.6762  0.1332
 6117SOL    HW128820   1.707   4.370   0.112 -0.1690  0.6425  0.7425
 6117SOL    HW228821   1.638   4.250   0.199  1.0253 -0.6367 -0.0471
 6118SOL     OW28822   3.675   2.777   0.252 -0.1584 -0.7417 -0.0307
 6118SOL    HW128823   3.726   2.815   0.175  0.6357 -2.1934 -0.2430
 6118SOL    HW228824   3.608   2.711   0.218 -1.2464  0.1709  0.3548
 6119SOL     OW28825   5.985   9.800   3.211  0.2947  0.0704 -0.1958
 6119SOL    HW128826   5.930   9.816   3.129  1.9364 -2.3844 -1.8504
 6119SOL    HW228827   6.064   9.860   3.211  0.4585 -0.1407 -0.5919
 6120SOL     OW28828   0.902   4.163   4.572 -0.4516 -0.1015  0.3490
 6120SOL    HW128829   0.815   4.197   4.537 -1.0213 -0.6248  1.2447
 6120SOL    HW228830   0.896   4.064   4.588  0.5926 -0.3034 -0.4417
 6121SOL     OW28831   0.098   6.304   3.458 -0.6432  0.1662 -0.1691
 6121SOL    HW128832   0.105   6.401   3.434  1.9948 -0.2494 -1.2206
 6121SOL    HW228833   0.110   6.293   3.557  0.9146  0.7530 -0.2877
 6122SOL     OW28834   8.266   8.512   4.697  0.2002 -0.3125  0.2630
 6122SOL    HW128835   8.323   8.592   4.719 -0.0759 -0.3664  1.1933
 6122SOL    HW228836   8.179   8.542   4.658  0.1239 -0.1569  0.5501
 6123SOL     OW28837   9.262   9.131   1.072  0.5422  0.2763  0.1508
 6123SOL    HW128838   9.328   9.166   1.006 -0.6059  1.3910 -0.4279
 6123SOL    HW228839   9.308   9.067   1.134  1.4589 -1.3794 -2.1681
 6124SOL     OW28840   3.641   2.582   4.378 -0.5114 -0.1661 -0.1835
 6124SOL    HW128841   3.621   2.674   4.345  0.0576 -0.3034 -0.9182
 6124SOL    HW228842   3.648   2.583   4.478 -1.2295  0.4437 -0.1418
 6125SOL     OW28843   1.433   8.542   4.408  0.0434 -0.5416  0.1129
 6125SOL    HW128844   1.478   8.534   4.320 -1.1883 -1.2053 -0.4744
 6125SOL    HW228845   1.340   8.506   4.401 -0.5011  0.5708  1.3514
 6126SOL     OW28846   2.475   5.935   3.395 -0.8927  0.5829  0.0315
 6126SOL    HW128847   2.401   5.887   3.349 -1.4368  1.2093  0.2580
 6126SOL    HW228848   2.462   6.033   3.387 -0.3297  0.6986  0.4644
 6127SOL     OW28849   8.654   6.763   1.696  0.4906  0.3262  0.2703
 6127SOL    HW128850   8.629   6.736   1.604 -1.6561  1.9347  0.3643
 6127SOL    HW228851   8.742   6.811   1.694  0.5459  0.1849 -0.8847
 6128SOL     OW28852   9.385   4.735   2.080 -0.3487 -0.5671 -0.4016
 6128SOL    HW128853   9.409   4.748   1.984 -1.9046  0.3422 -0.6762
 6128SOL    HW228854   9.420   4.646   2.111  1.6763 -0.1179 -1.3060
 6129SOL     OW28855   9.019   0.029   2.237 -0.3761 -0.1547 -0.1755
 6129SOL    HW128856   9.019  -0.055   2.182 -0.8432 -0.9905  1.0943
 6129SOL    HW228857   8.926   0.063   2.247 -0.1070  1.0605 -1.4573
 6130SOL     OW28858   1.899   9.715   3.023  0.2902 -0.4353 -0.3470
 6130SOL    HW128859   1.850   9.790   2.979 -0.4863 -0.5487  0.3157
 6130SOL    HW228860   1.957   9.752   3.096  0.4158 -0.4093 -0.4611
 6131SOL     OW28861   0.920   8.128   3.393  0.2530  0.4131 -0.4880
 6131SOL    HW128862   0.894   8.032   3.405 -1.1554  0.5372 -2.2920
 6131SOL    HW228863   1.010   8.144   3.434  0.5348 -1.6944 -0.2417
 6132SOL     OW28864   6.699   0.113   4.178  0.8238  0.0716  0.2064
 6132SOL    HW128865   6.603   0.112   4.150  0.2540  0.6007  2.1088
 6132SOL    HW228866   6.755   0.146   4.101 -0.3516 -1.3992 -1.3243
 6133SOL     OW28867   3.789   8.453   0.438  0.4017  0.4429 -0.3720
 6133SOL    HW128868   3.761   8.535   0.388  1.6899  0.7786 -0.5720
 6133SOL    HW228869   3.889   8.448   0.439  0.3285 -1.3210 -0.6790
 6134SOL     OW28870   0.391   1.332   0.262 -0.5075 -0.1086  0.4072
 6134SOL    HW128871   0.403   1.243   0.217 -0.5267  0.5962 -1.0328
 6134SOL    HW228872   0.448   1.336   0.344  1.2347 -0.6339 -0.7456
 6135SOL     OW28873   2.729   6.818   0.507  0.1764 -0.4832  0.0503
 6135SOL    HW128874   2.783   6.902   0.506  0.9633 -0.9893 -0.9296
 6135SOL    HW228875   2.769   6.753   0.572  2.4035 -1.8974 -2.6381
 6136SOL     OW28876   1.190   0.539   3.837 -0.0984  0.3971  0.0670
 6136SOL    HW128877   1.193   0.575   3.930 -0.2037 -0.5002  0.4239
 6136SOL    HW228878   1.284   0.529   3.802 -0.0923  1.9540 -0.4156
 6137SOL     OW28879   2.233   5.879   3.252  0.6535  0.7077  0.2486
 6137SOL    HW128880   2.228   5.800   3.191  1.6130  0.9390 -0.1377
 6137SOL    HW228881   2.236   5.963   3.198 -1.0055  1.0655  0.6649
 6138SOL     OW28882   1.578   3.720   4.353  0.4214  0.6256  0.5922
 6138SOL    HW128883   1.579   3.733   4.452 -0.5134  0.5241  0.6185
 6138SOL    HW228884   1.654   3.660   4.327  1.5909  1.8623  1.0604
 6139SOL     OW28885   8.547   9.964   0.191 -0.1702  0.0093 -0.0837
 6139SOL    HW128886   8.543  10.043   0.252  0.6324  0.1252 -0.1785
 6139SOL    HW228887   8.495   9.984   0.107 -0.1031  0.3719 -0.0385
 6140SOL     OW28888   5.782   8.747   2.817 -0.2348 -0.0349 -0.1273
 6140SOL    HW128889   5.846   8.673   2.835  1.4237  0.9537 -1.7471
 6140SOL    HW228890   5.756   8.791   2.903 -0.1147 -1.5438  0.7040
 6141SOL     OW28891   7.540   8.114   1.363  0.2091 -0.3965  0.0362
 6141SOL    HW128892   7.594   8.102   1.279 -0.9290  0.1194 -0.7828
 6141SOL    HW228893   7.564   8.043   1.429  0.8935 -0.9982 -0.8529
 6142SOL     OW28894   7.212   7.217   2.990  0.0228 -0.0721 -0.0070
 6142SOL    HW128895   7.270   7.241   2.913  0.2884 -1.6360 -0.3067
 6142SOL    HW228896   7.237   7.126   3.025 -2.2640 -0.8413 -0.2150
 6143SOL     OW28897   9.533   9.426   0.637 -0.1509  0.9394 -0.0230
 6143SOL    HW128898   9.565   9.494   0.572  1.2116 -0.1633 -0.5379
 6143SOL    HW228899   9.479   9.357   0.589  1.2728 -0.1478 -0.0995
 6144SOL     OW28900   6.981   0.102   3.165  0.1816  0.1427  0.5924
 6144SOL    HW128901   6.937   0.014   3.181  1.2562 -0.8952 -1.8165
 6144SOL    HW228902   7.080   0.091   3.170  0.4238  0.6517 -2.0111
 6145SOL     OW28903   2.211   6.661   0.803 -0.4862  0.3837  0.0843
 6145SOL    HW128904   2.248   6.591   0.742 -0.4454 -0.3863  0.9887
 6145SOL    HW228905   2.158   6.727   0.749  0.1789  0.1404 -0.8841
 6146SOL     OW28906   9.763   0.219   2.141 -0.0077 -0.2981 -0.3147
 6146SOL    HW128907   9.743   0.316   2.161 -1.4812 -1.0222  1.9627
 6146SOL    HW228908   9.859   0.209   2.117  0.6636  1.4666  1.4773
 6147SOL     OW28909   0.953   8.656   4.489 -0.0166 -0.1299  0.5826
 6147SOL    HW128910   0.886   8.584   4.473  0.1870 -0.0118 -0.8538
 6147SOL    HW228911   0.907   8.742   4.506 -0.2499  0.2044 -1.5936
 6148SOL     OW28912   4.293   1.189   1.632  0.1789  0.1442 -0.0101
 6148SOL    HW128913   4.349   1.106   1.637  1.2269  0.7891 -1.0709
 6148SOL    HW228914   4.200   1.167   1.663  0.2142 -1.6273 -1.0931
 6149SOL     OW28915   1.116   7.971   3.536  0.0373  0.2585 -0.4731
 6149SOL    HW128916   1.149   8.025   3.613  0.2179 -0.8951  0.2568
 6149SOL    HW228917   1.034   7.920   3.563 -0.1279  0.1507 -1.1632
 6150SOL     OW28918   2.397   6.757   4.747 -0.1697 -0.4689 -0.6595
 6150SOL    HW128919   2.455   6.775   4.667  0.6612 -2.1435 -0.4660
 6150SOL    HW228920   2.427   6.814   4.824  1.1688 -1.2069 -0.6108
 6151SOL     OW28921   3.478   6.866   2.874  0.3984 -0.3624  0.0706
 6151SOL    HW128922   3.529   6.952   2.879 -0.8676  0.3231  1.3355
 6151SOL    HW228923   3.460   6.833   2.966 -1.3614 -0.6549 -0.3656
 6152SOL     OW28924   9.648   5.200   0.118 -0.6200  0.1683  0.1103
 6152SOL    HW128925   9.742   5.234   0.116 -0.7928  0.7267  1.1323
 6152SOL    HW228926   9.646   5.108   0.157 -0.4279 -0.1018 -0.5055
 6153SOL     OW28927   1.372   2.772   0.814  0.0918  0.3562  0.2722
 6153SOL    HW128928   1.427   2.753   0.896 -1.1216 -1.1580  0.7590
 6153SOL    HW228929   1.304   2.700   0.802  1.0253 -0.0763 -2.7696
 6154SOL     OW28930   1.430   4.527   1.575 -0.0636  0.8105 -0.0525
 6154SOL    HW128931   1.360   4.548   1.507 -0.9234  0.6839  0.7739
 6154SOL    HW228932   1.446   4.607   1.632  0.5040  0.8521 -0.2689
 6155SOL     OW28933   0.827   6.506   3.269  0.1556  0.0060 -0.0592
 6155SOL    HW128934   0.925   6.504   3.248  0.0434 -1.4025 -0.5242
 6155SOL    HW228935   0.781   6.433   3.219 -1.1229  0.5720  0.2614
 6156SOL     OW28936   0.790   0.489   0.686 -0.0955  1.0329  0.4012
 6156SOL    HW128937   0.789   0.394   0.718  0.1436  1.0380  0.4295
 6156SOL    HW228938   0.715   0.540   0.728 -0.7022  0.6584 -0.2157
 6157SOL     OW28939   9.206   9.472   4.171  0.0172 -0.6616 -0.5726
 6157SOL    HW128940   9.176   9.470   4.267 -0.5104  0.0324 -0.7221
 6157SOL    HW228941   9.129   9.449   4.112 -0.2294  1.0669 -0.9508
 6158SOL     OW28942   4.992   0.186   1.683  0.0863 -0.0138 -0.0151
 6158SOL    HW128943   5.071   0.190   1.745 -1.8460 -0.5482  2.5806
 6158SOL    HW228944   4.956   0.278   1.669 -0.4943 -0.0707  1.0516
 6159SOL     OW28945   0.593   2.712   4.112  0.1465  0.5941 -0.5618
 6159SOL    HW128946   0.635   2.685   4.199  0.8528 -1.1012 -1.4096
 6159SOL    HW228947   0.620   2.805   4.090 -1.0591  1.5062  1.6479
 6160SOL     OW28948   0.697   7.128   3.434  0.0060  0.3787  0.5117
 6160SOL    HW128949   0.654   7.217   3.448  2.6228  1.6245  0.7800
 6160SOL    HW228950   0.649   7.059   3.489 -1.5298  1.7311  0.9185
 6161SOL     OW28951   2.917   3.645   0.439  0.2107 -0.0722  0.2369
 6161SOL    HW128952   2.968   3.565   0.471  0.0541 -0.2146  0.1314
 6161SOL    HW228953   2.981   3.718   0.417  0.2333  0.6219  2.4721
 6162SOL     OW28954   2.481   5.141   3.799  0.1463  0.4967  0.2201
 6162SOL    HW128955   2.443   5.220   3.847  0.7195  0.7716  0.2283
 6162SOL    HW228956   2.456   5.145   3.702  0.7477  1.0577  0.0809
 6163SOL     OW28957   2.363   9.190   4.177 -0.3084  0.2479 -0.1850
 6163SOL    HW128958   2.427   9.146   4.115  1.2767  0.9021  0.9524
 6163SOL    HW228959   2.352   9.134   4.259 -0.9654  0.2879 -0.2422
 6164SOL     OW28960   2.921   6.028   1.090  0.3558 -0.1406 -0.0222
 6164SOL    HW128961   2.825   6.000   1.093 -0.0383  1.2477  1.0416
 6164SOL    HW228962   2.971   5.970   1.026 -0.8695 -1.8544  0.5300
 6165SOL     OW28963   7.890   0.049   2.888 -0.0892  0.6355 -0.2022
 6165SOL    HW128964   7.910   0.139   2.848  0.2817 -0.0457 -1.5989
 6165SOL    HW228965   7.963  -0.015   2.864 -1.2096 -0.4747 -0.7089
 6166SOL     OW28966   2.147   0.408   2.387  0.3989 -0.0038 -0.4399
 6166SOL    HW128967   2.211   0.333   2.404  1.7898  1.1573 -0.4070
 6166SOL    HW228968   2.133   0.460   2.471 -0.5444 -0.2061 -0.4649
 6167SOL     OW28969   8.499   8.904   3.259  0.0006  0.4728  0.6921
 6167SOL    HW128970   8.540   8.992   3.283  0.2669  1.3955 -2.7740
 6167SOL    HW228971   8.547   8.830   3.306  1.1541  2.0425  2.0234
 6168SOL     OW28972   3.124   7.515   4.196 -0.3378 -0.7694  0.1951
 6168SOL    HW128973   3.123   7.580   4.272 -1.3142 -0.1197 -0.3665
 6168SOL    HW228974   3.193   7.444   4.214  1.9027  1.3118  0.0550
 6169SOL     OW28975   1.294   7.804   4.509 -0.1191 -0.5161 -0.7885
 6169SOL    HW128976   1.342   7.768   4.590  1.3805  1.4806 -0.7526
 6169SOL    HW228977   1.209   7.754   4.496  0.5278 -2.1350  0.9257
 6170SOL     OW28978   1.599   6.526   4.291  0.6041 -0.0511 -0.4753
 6170SOL    HW128979   1.520   6.465   4.288  1.2004 -0.8698  0.2442
 6170SOL    HW228980   1.683   6.472   4.299  1.0424  0.8993  1.6094
 6171SOL     OW28981   8.772   8.305   2.279 -0.4309  0.0371 -0.4520
 6171SOL    HW128982   8.707   8.231   2.264  0.0534 -0.4520 -0.1606
 6171SOL    HW228983   8.789   8.316   2.377  0.7634 -0.5801 -0.5751
 6172SOL     OW28984   3.938   9.677   1.990  0.0630  0.6557  0.2968
 6172SOL    HW128985   3.917   9.593   2.042 -0.3737  0.7834  0.3276
 6172SOL    HW228986   3.948   9.753   2.054  1.8279  0.3650  0.3886
 6173SOL     OW28987   5.227   0.006   4.006 -0.0050 -0.3476  0.4778
 6173SOL    HW128988   5.140  -0.035   4.031  0.1309 -0.5876  0.5561
 6173SOL    HW228989   5.301  -0.059   4.024 -0.1234 -1.5170 -2.8864
 6174SOL     OW28990   1.145   7.048   0.692 -0.6281  0.4478  0.1403
 6174SOL    HW128991   1.054   7.076   0.725 -1.0445  0.3486 -0.9070
 6174SOL    HW228992   1.135   6.995   0.608  0.2689 -1.4961  1.2308
 6175SOL     OW28993   1.260   3.411   3.917 -0.1152  0.3289  0.1884
 6175SOL    HW128994   1.203   3.487   3.888 -0.8552  0.3590  1.6664
 6175SOL    HW228995   1.211   3.325   3.904  0.0410  0.2435  0.1581
 6176SOL     OW28996   0.815   9.864   2.815  0.3259 -0.1075 -0.0215
 6176SOL    HW128997   0.885   9.793   2.806  1.1943  0.1720  3.7470
 6176SOL    HW228998   0.770   9.855   2.904 -0.6836  3.0308 -0.1617
 6177SOL     OW28999   3.560   0.296   0.398 -0.0667  0.1283 -0.1481
 6177SOL    HW129000   3.526   0.249   0.480 -0.9461 -1.2269 -1.2629
 6177SOL    HW229001   3.488   0.298   0.329  1.5636 -1.3660 -1.9620
 6178SOL     OW29002   1.625   3.714   2.686  0.2903 -0.4896  0.1910
 6178SOL    HW129003   1.583   3.787   2.633  1.3833  1.2103  1.6192
 6178SOL    HW229004   1.685   3.660   2.627 -2.5500 -1.9333 -1.4869
 6179SOL     OW29005   0.638   7.314   2.941  0.3522 -0.1684  0.1521
 6179SOL    HW129006   0.597   7.399   2.909 -0.0894 -0.0915  0.9266
 6179SOL    HW229007   0.567   7.253   2.976  0.4821 -1.4477 -1.7200
 6180SOL     OW29008   3.807   0.943   2.275 -0.5184 -0.4454  0.0150
 6180SOL    HW129009   3.891   0.956   2.223 -0.7199 -0.9881 -0.4585
 6180SOL    HW229010   3.756   1.030   2.279 -1.0014 -0.6425 -1.5887
 6181SOL     OW29011   0.236   4.094   1.564 -0.0344  0.4522  0.2102
 6181SOL    HW129012   0.297   4.058   1.634  1.6150  1.7997 -0.4895
 6181SOL    HW229013   0.185   4.172   1.602  0.3140  0.7166  0.1395
 6182SOL     OW29014   1.926   9.056   4.336  0.3758  0.3307 -0.4756
 6182SOL    HW129015   1.860   9.129   4.319  1.4128  1.0264 -1.6127
 6182SOL    HW229016   1.960   9.062   4.430  1.1927  1.9186 -0.8643
 6183SOL     OW29017   6.581   8.057   3.307 -0.1630  0.2966 -0.7065
 6183SOL    HW129018   6.497   8.014   3.339  0.5309 -0.0657  0.6959
 6183SOL    HW229019   6.566   8.155   3.295 -0.6445  0.3184  0.0399
 6184SOL     OW29020   2.964   3.182   3.149 -0.6406 -0.6316  0.4515
 6184SOL    HW129021   2.923   3.140   3.067 -0.8138  1.5812 -0.6344
 6184SOL    HW229022   3.055   3.144   3.163  0.0264  0.0678 -1.7223
 6185SOL     OW29023   1.338   8.203   0.060  0.5369 -0.1110  0.7173
 6185SOL    HW129024   1.265   8.155   0.012  0.0109 -0.0620  1.4631
 6185SOL    HW229025   1.414   8.139   0.076  0.6261 -0.1812  0.0144
 6186SOL     OW29026   8.432   9.636   2.110  0.8845  0.1939 -0.3151
 6186SOL    HW129027   8.476   9.718   2.146  1.6652  0.3952 -1.6973
 6186SOL    HW229028   8.460   9.557   2.164  4.0352  0.1094 -1.9588
 6187SOL     OW29029   7.417   9.783   2.401 -0.3326  0.4638 -0.2484
 6187SOL    HW129030   7.435   9.879   2.422  2.6615 -0.1003  0.0427
 6187SOL    HW229031   7.385   9.775   2.307  1.2061  1.5981 -0.8866
 6188SOL     OW29032   0.304   6.561   3.040 -0.2110 -0.0203  0.1721
 6188SOL    HW129033   0.399   6.553   3.071 -0.4882 -0.3163  0.9661
 6188SOL    HW229034   0.281   6.657   3.027 -0.2717  0.1504  1.4866
 6189SOL     OW29035   7.713   0.188   4.129 -0.2059 -0.3050  0.2474
 6189SOL    HW129036   7.642   0.215   4.194 -0.1402 -0.1364  0.2494
 6189SOL    HW229037   7.702   0.091   4.106 -1.1608  0.0143 -0.6754
 6190SOL     OW29038   1.331   6.636   0.411 -0.5866 -0.4205 -0.1890
 6190SOL    HW129039   1.296   6.542   0.410 -0.5426 -0.4360 -0.2428
 6190SOL    HW229040   1.430   6.634   0.423 -1.0830 -0.2164  4.6483
 6191SOL     OW29041   3.887   0.983   1.833 -0.2546  0.0743 -0.1880
 6191SOL    HW129042   3.874   0.933   1.747 -1.3187  0.0956 -0.0531
 6191SOL    HW229043   3.800   0.986   1.882  0.0875  1.0373  0.3613
 6192SOL     OW29044   0.502   2.744   0.684 -0.1022 -0.1027  0.0110
 6192SOL    HW129045   0.436   2.818   0.684 -0.6919 -0.6236  0.8089
 6192SOL    HW229046   0.483   2.682   0.608 -1.5824 -1.1749  1.2363
 6193SOL     OW29047   2.736   4.458   0.530  0.2778  0.0547 -0.0789
 6193SOL    HW129048   2.782   4.387   0.584 -0.9415 -0.5001  0.2463
 6193SOL    HW229049   2.690   4.521   0.592  1.5590  1.2848 -0.3572
 6194SOL     OW29050   2.714   9.751   4.775  0.4368 -0.0641 -0.4597
 6194SOL    HW129051   2.750   9.714   4.861 -0.8964 -1.0708 -0.3156
 6194SOL    HW229052   2.762   9.836   4.753  2.5362 -1.0923 -0.0291
 6195SOL     OW29053   3.240   3.913   2.130  0.8082 -0.1905 -0.2756
 6195SOL    HW129054   3.212   3.965   2.050 -0.1829 -0.3956 -0.0643
 6195SOL    HW229055   3.331   3.873   2.114  0.1138 -1.2179 -1.7648
 6196SOL     OW29056   0.517   8.109   3.298  0.6538 -0.3133 -0.2139
 6196SOL    HW129057   0.511   8.033   3.363 -0.3369  2.2207  2.8272
 6196SOL    HW229058   0.607   8.152   3.304  0.2016  0.5861  0.3002
 6197SOL     OW29059   1.443   2.952   3.069 -0.0381  0.2791 -0.4223
 6197SOL    HW129060   1.536   2.976   3.098 -0.2813 -0.6735  1.1928
 6197SOL    HW229061   1.381   3.026   3.094 -0.1229 -0.2060  0.8046
 6198SOL     OW29062   0.951   2.368   0.731  0.3814  0.3839 -0.5761
 6198SOL    HW129063   0.869   2.376   0.674 -0.4799  0.6901  0.7023
 6198SOL    HW229064   0.945   2.433   0.807  1.9048  0.5501 -0.5910
 6199SOL     OW29065   1.118   7.941   1.294  0.0454 -0.3350  0.2264
 6199SOL    HW129066   1.117   7.990   1.381 -1.2325 -0.7221  0.4456
 6199SOL    HW229067   1.084   8.001   1.222  0.6154 -0.1788  0.0868
 6200SOL     OW29068   4.156   0.199   1.582 -0.3529 -1.0630  0.3358
 6200SOL    HW129069   4.164   0.205   1.482 -0.6791 -0.5675  0.3354
 6200SOL    HW229070   4.169   0.289   1.622  0.7466 -1.4340  0.8206
 6201SOL     OW29071   9.801   9.369   0.403 -0.2061  0.5622 -0.0283
 6201SOL    HW129072   9.826   9.378   0.500 -0.0385  0.8941 -0.1029
 6201SOL    HW229073   9.856   9.432   0.349 -0.7290  0.8080 -0.2738
 6202SOL     OW29074   2.055   9.129   1.917 -0.2930 -0.5634  0.1023
 6202SOL    HW129075   2.063   9.208   1.978 -2.8543  0.6512 -1.0496
 6202SOL    HW229076   1.963   9.089   1.926  0.7690 -3.0854  0.2348
 6203SOL     OW29077   2.499   1.836   4.773  0.3419 -0.0401  0.0678
 6203SOL    HW129078   2.552   1.768   4.823 -0.9181 -1.2399 -0.1747
 6203SOL    HW229079   2.441   1.790   4.705 -1.1686  1.1964  0.4807
 6204SOL     OW29080   2.838   7.908   1.814 -0.1833  0.5494  0.5832
 6204SOL    HW129081   2.854   7.989   1.759  1.8907 -1.2502 -1.5841
 6204SOL    HW229082   2.741   7.883   1.809 -0.3290  1.3597 -0.9327
 6205SOL     OW29083   2.896   4.060   2.265  0.3895  0.5386  0.0943
 6205SOL    HW129084   2.909   3.970   2.224 -0.6184 -0.6782  2.3666
 6205SOL    HW229085   2.880   4.127   2.193  0.1811 -1.2638 -1.5816
 6206SOL     OW29086   0.085   4.579   2.017  0.2319 -0.3250  0.3075
 6206SOL    HW129087   0.170   4.550   2.059 -0.0838 -1.8955 -0.1142
 6206SOL    HW229088   0.087   4.678   2.002  3.5450 -0.8013 -3.1804
 6207SOL     OW29089   2.724   6.089   2.830 -0.3453 -0.1111  0.6873
 6207SOL    HW129090   2.817   6.090   2.793  0.1613  0.5890  1.9545
 6207SOL    HW229091   2.702   5.996   2.861  0.1739 -0.1385  0.9837
 6208SOL     OW29092   2.492   1.025   2.981 -0.5567  0.3513 -0.2390
 6208SOL    HW129093   2.547   1.061   2.906  1.6295  0.5536  1.4250
 6208SOL    HW229094   2.407   1.077   2.989  0.1018  1.5953 -1.3145
 6209SOL     OW29095   3.421   2.935   2.758 -0.2122 -0.3686 -0.5322
 6209SOL    HW129096   3.428   3.033   2.773  0.3914 -0.3957 -0.6216
 6209SOL    HW229097   3.333   2.902   2.791  0.3271 -0.1116  1.1937
 6210SOL     OW29098   9.828   3.495   2.979  0.2070  0.5241 -0.3393
 6210SOL    HW129099   9.845   3.402   3.013 -0.5696  0.4203 -0.2208
 6210SOL    HW229100   9.912   3.549   2.987  0.3957  0.1145  0.5022
 6211SOL     OW29101   6.749   9.505   4.289 -0.1465  0.6081 -0.4619
 6211SOL    HW129102   6.809   9.578   4.258  0.2801  0.5297  0.1834
 6211SOL    HW229103   6.689   9.539   4.361  1.6034 -0.2633  1.4465
 6212SOL     OW29104   1.792   6.826   0.329 -0.2392  0.0939 -0.1297
 6212SOL    HW129105   1.762   6.921   0.320 -1.7133 -0.3775 -0.2988
 6212SOL    HW229106   1.760   6.789   0.416 -2.8268 -1.3507 -1.6478
 6213SOL     OW29107   9.018   7.558   0.069 -0.3147  0.0344  0.0510
 6213SOL    HW129108   9.056   7.511   0.148 -0.3163 -2.5628 -1.4144
 6213SOL    HW229109   9.075   7.636   0.045  1.2455 -0.8043  0.9617
 6214SOL     OW29110   2.618   2.444   3.923  0.6190  0.0214  0.3528
 6214SOL    HW129111   2.661   2.356   3.906  1.7777  0.6119  0.2227
 6214SOL    HW229112   2.687   2.517   3.922 -0.0752  0.7381  2.0946
 6215SOL     OW29113   4.740   0.522   3.548  0.3063 -0.5087 -0.5367
 6215SOL    HW129114   4.782   0.446   3.499  1.2213  0.0131 -0.5805
 6215SOL    HW229115   4.810   0.572   3.598 -0.5816 -0.8607  1.0862
 6216SOL     OW29116   3.378   4.914   3.235 -0.7402 -0.3345 -0.3162
 6216SOL    HW129117   3.450   4.869   3.288 -1.1441 -0.5350  0.0655
 6216SOL    HW229118   3.328   4.978   3.294 -1.5446 -0.9582 -0.3178
 6217SOL     OW29119   3.564   4.198   2.990 -0.3086  0.3755  0.3029
 6217SOL    HW129120   3.601   4.273   3.044  0.5565 -1.4072  2.2407
 6217SOL    HW229121   3.484   4.159   3.036 -0.1353 -0.5482 -0.1645
 6218SOL     OW29122   1.794   7.213   3.282  0.7984 -0.3943  0.0017
 6218SOL    HW129123   1.751   7.281   3.341  2.0518 -0.3589  0.8995
 6218SOL    HW229124   1.815   7.254   3.193  3.5524  1.0817  1.2731
 6219SOL     OW29125   4.976   9.948   2.755  0.2025 -0.4850 -0.0382
 6219SOL    HW129126   4.880   9.938   2.730  0.2821 -1.3647 -0.0003
 6219SOL    HW229127   5.011  10.034   2.719 -0.8350  0.2504  0.7041
 6220SOL     OW29128   1.080   9.806   2.557 -0.7467 -0.5566 -0.4603
 6220SOL    HW129129   1.019   9.884   2.568  1.0113  0.9505 -1.2266
 6220SOL    HW229130   1.057   9.756   2.474 -2.3781 -1.3438  0.4381
 6221SOL     OW29131   2.414   0.089   3.040  0.2495  0.6794 -0.0365
 6221SOL    HW129132   2.381   0.117   3.130  0.7602  1.8953 -0.2106
 6221SOL    HW229133   2.369   0.004   3.013  0.7773 -0.1863  1.7549
 6222SOL     OW29134   4.193   8.814   4.381  0.3538  0.0969  0.3016
 6222SOL    HW129135   4.283   8.857   4.374  0.2528  0.3285  0.4305
 6222SOL    HW229136   4.176   8.758   4.300  1.2459 -1.1534  0.9693
 6223SOL     OW29137   5.905   0.157   2.415 -0.3501 -0.2935  0.0645
 6223SOL    HW129138   5.904   0.228   2.485  1.2016 -1.9108  1.7873
 6223SOL    HW229139   5.868   0.072   2.452  1.7149 -1.5524 -0.6125
 6224SOL     OW29140   5.766   7.830   1.916 -0.1398  0.3897 -0.1516
 6224SOL    HW129141   5.838   7.793   1.975 -1.6901 -0.3341  1.3037
 6224SOL    HW229142   5.805   7.903   1.859  1.7377  0.0396  0.6330
 6225SOL     OW29143   9.006   5.861   1.138 -0.6201 -0.0269  0.2951
 6225SOL    HW129144   9.095   5.905   1.142 -0.2426 -0.8425  1.0626
 6225SOL    HW229145   8.956   5.878   1.223 -0.2081 -1.5908  0.8759
 6226SOL     OW29146   1.036   5.614   3.825 -0.1529  0.6338 -0.0619
 6226SOL    HW129147   0.971   5.562   3.880  0.4240 -0.2360 -0.1815
 6226SOL    HW229148   0.990   5.691   3.782 -1.3562 -0.5734 -0.9970
 6227SOL     OW29149   1.765   4.585   0.146 -0.5605 -0.2266 -0.4228
 6227SOL    HW129150   1.846   4.547   0.189  0.4667  3.1412  0.8023
 6227SOL    HW229151   1.777   4.684   0.134 -3.9021  0.1141 -1.5315
 6228SOL     OW29152   1.485   4.547   4.000 -1.0696  0.0074 -0.4355
 6228SOL    HW129153   1.478   4.644   4.022 -0.6717 -0.1475  0.4226
 6228SOL    HW229154   1.573   4.512   4.032 -0.4545 -0.2421 -2.3383
 6229SOL     OW29155   6.529   8.160   2.128 -0.6510  0.0541  0.4426
 6229SOL    HW129156   6.530   8.247   2.078  1.0846 -0.8857 -1.2284
 6229SOL    HW229157   6.623   8.132   2.147 -1.0360 -3.0312 -1.8648
 6230SOL     OW29158   2.944   1.273   2.992 -0.1839 -0.2213  0.2129
 6230SOL    HW129159   2.945   1.185   3.040  2.3434 -0.7111 -0.6590
 6230SOL    HW229160   2.867   1.328   3.025 -3.0686 -3.5466 -0.7001
 6231SOL     OW29161   1.967   2.980   1.266 -0.5070 -0.5245  0.3159
 6231SOL    HW129162   1.934   2.979   1.361 -0.8550  0.1004  0.2073
 6231SOL    HW229163   1.942   2.895   1.221 -1.0898 -0.4740  0.5410
 6232SOL     OW29164   0.151   4.923   4.466 -0.0903 -0.1075 -1.0353
 6232SOL    HW129165   0.112   4.952   4.379 -0.5143  0.0325 -0.7990
 6232SOL    HW229166   0.108   4.973   4.541  0.5208  0.0241 -0.7706
 6233SOL     OW29167   1.708   5.795   3.663 -0.9630  0.0249 -0.1064
 6233SOL    HW129168   1.755   5.780   3.576  0.4975  2.7483  0.1765
 6233SOL    HW229169   1.628   5.735   3.668  0.1392 -1.7045 -2.3807
 6234SOL     OW29170   4.592   0.794   4.543  0.4319  0.2897 -0.1382
 6234SOL    HW129171   4.649   0.729   4.592 -1.8224 -2.2430 -0.7234
 6234SOL    HW229172   4.637   0.820   4.457  1.8280  0.3421  0.5969
 6235SOL     OW29173   0.520   8.116   1.600 -0.3367  0.5510 -0.3319
 6235SOL    HW129174   0.514   8.156   1.691  0.6595 -0.3018  0.1219
 6235SOL    HW229175   0.538   8.018   1.608  1.8183  0.8247 -1.4439
 6236SOL     OW29176   3.169   2.724   3.660 -0.3976 -0.7138  0.1205
 6236SOL    HW129177   3.070   2.711   3.666 -0.6718  1.0451 -0.4727
 6236SOL    HW229178   3.194   2.812   3.700  0.4334  0.7381 -3.4102
 6237SOL     OW29179   9.997   8.934   0.517 -0.1819  0.6974  0.2448
 6237SOL    HW129180  10.076   8.992   0.534 -0.3920  0.7837  0.9092
 6237SOL    HW229181   9.962   8.898   0.603 -1.0563  0.9021 -0.0209
 6238SOL     OW29182   3.749   2.811   3.437  0.1587  0.0047 -0.2009
 6238SOL    HW129183   3.767   2.901   3.479  0.8450 -0.4904  0.5885
 6238SOL    HW229184   3.740   2.743   3.510 -2.2962 -0.2404 -0.6984
 6239SOL     OW29185   3.712   4.011   2.224 -0.1800  0.0373 -0.0474
 6239SOL    HW129186   3.729   4.095   2.173  2.0624 -0.6671 -0.5283
 6239SOL    HW229187   3.770   4.009   2.305  0.7078 -1.5873 -0.6976
 6240SOL     OW29188   7.331   9.584   0.175  0.0270 -0.5047 -0.0522
 6240SOL    HW129189   7.335   9.555   0.271 -1.4218 -1.1508 -0.1762
 6240SOL    HW229190   7.330   9.684   0.171 -2.4134 -0.4486  0.7687
 6241SOL     OW29191   1.429   7.533   4.426 -0.4214 -0.2657 -0.2701
 6241SOL    HW129192   1.395   7.475   4.500  0.5676 -1.6146 -0.8518
 6241SOL    HW229193   1.469   7.616   4.464 -1.1021 -0.3480  0.6286
 6242SOL     OW29194   4.719   1.398   2.753 -0.4762 -0.2709  0.1698
 6242SOL    HW129195   4.744   1.439   2.665  0.9699  0.1512  0.7565
 6242SOL    HW229196   4.786   1.327   2.776 -0.5333 -0.0046  1.1753
 6243SOL     OW29197   5.260   9.143   1.446  0.0711 -0.2035 -0.2156
 6243SOL    HW129198   5.200   9.199   1.502 -0.4959 -0.9538 -0.0544
 6243SOL    HW229199   5.262   9.050   1.482  0.7224 -0.3739 -0.6765
 6244SOL     OW29200   6.609   9.614   4.510 -0.3050  0.1987 -0.3017
 6244SOL    HW129201   6.528   9.670   4.489 -0.9304 -0.6805 -0.2534
 6244SOL    HW229202   6.613   9.597   4.609  1.3829  2.4202  0.0427
 6245SOL     OW29203   1.691   2.989   3.774 -0.2392  0.0022  0.0856
 6245SOL    HW129204   1.594   2.993   3.754 -1.0408 -1.8726  3.2258
 6245SOL    HW229205   1.722   3.079   3.805 -0.8374  0.7116 -1.3244
 6246SOL     OW29206   1.192   1.732   3.671 -0.4587 -0.3080  0.1712
 6246SOL    HW129207   1.145   1.663   3.725 -0.6621 -0.2480  0.0711
 6246SOL    HW229208   1.189   1.820   3.718 -0.9011 -0.1879 -0.0819
 6247SOL     OW29209   2.254   7.054   4.186 -0.4994 -0.4012 -0.4468
 6247SOL    HW129210   2.230   7.098   4.273  1.2846 -1.0279  0.4001
 6247SOL    HW229211   2.207   6.967   4.179 -1.9583  0.4173 -0.8868
 6248SOL     OW29212   8.335   6.545   2.999  0.1289  0.4173  0.5537
 6248SOL    HW129213   8.294   6.565   2.910  0.5927  0.2885  0.3113
 6248SOL    HW229214   8.363   6.450   3.003 -2.1289 -0.2377  1.7396
 6249SOL     OW29215   0.813   6.511   0.780 -0.5584  0.4621  0.2071
 6249SOL    HW129216   0.843   6.605   0.762 -0.2174  0.4043  0.4777
 6249SOL    HW229217   0.714   6.505   0.768 -0.3903  0.5077 -1.3178
 6250SOL     OW29218   7.648   9.443   3.091 -0.3709  0.3540  0.1423
 6250SOL    HW129219   7.612   9.530   3.058 -1.3597  0.0014  0.2724
 6250SOL    HW229220   7.573   9.377   3.097  0.7581 -1.1889 -2.1653
 6251SOL     OW29221   0.226   9.253   1.553 -0.4430 -0.3441 -0.1845
 6251SOL    HW129222   0.306   9.313   1.553 -1.1123  0.6053  2.1928
 6251SOL    HW229223   0.165   9.278   1.478  0.6236  0.0861 -0.9156
 6252SOL     OW29224   0.638   3.168   4.173  0.2794  0.2038  0.4551
 6252SOL    HW129225   0.641   3.089   4.235  0.7954 -1.5292 -1.7285
 6252SOL    HW229226   0.727   3.215   4.175  0.1662  0.3920  1.3048
 6253SOL     OW29227   9.919   6.658   3.982  0.4932  0.0547  0.1859
 6253SOL    HW129228   9.911   6.624   3.888  0.7919 -0.8063  0.4663
 6253SOL    HW229229  10.004   6.710   3.990 -0.1072  1.1356 -0.3183
 6254SOL     OW29230   3.004   5.875   3.651  0.4793  0.2529 -0.4681
 6254SOL    HW129231   3.010   5.954   3.712  2.9083 -0.1725 -0.0947
 6254SOL    HW229232   2.980   5.794   3.704  0.7728  0.2171 -0.3926
 6255SOL     OW29233   9.708   8.564   4.459  0.3172  0.3215 -0.0407
 6255SOL    HW129234   9.766   8.561   4.377 -0.0158  0.1723 -0.2697
 6255SOL    HW229235   9.623   8.515   4.442 -0.5081  1.7888 -0.1815
 6256SOL     OW29236   1.266   6.857   2.411 -0.1650  0.0909 -0.1311
 6256SOL    HW129237   1.183   6.839   2.463  0.1548 -1.8428 -0.2755
 6256SOL    HW229238   1.335   6.897   2.471 -0.1815 -1.0916  0.6796
 6257SOL     OW29239   1.048   8.985   4.727 -0.0852 -0.3013 -0.2457
 6257SOL    HW129240   1.045   8.930   4.810 -2.4386 -0.6641 -0.5409
 6257SOL    HW229241   1.096   9.071   4.746 -2.4189  0.5421  2.0797
 6258SOL     OW29242   6.220   9.589   4.529 -0.6905 -0.4980  0.2059
 6258SOL    HW129243   6.267   9.503   4.510  0.3784 -0.2323  1.5550
 6258SOL    HW229244   6.276   9.666   4.498 -1.9280 -0.2906 -1.5824
 6259SOL     OW29245   6.352   8.040   1.745 -0.5122 -0.2695  0.2243
 6259SOL    HW129246   6.412   7.981   1.799  0.1270 -0.0188 -0.1976
 6259SOL    HW229247   6.266   7.993   1.727  0.3305 -1.4340 -0.8851
 6260SOL     OW29248   3.382   4.514   3.815  0.3617  0.4996 -0.0247
 6260SOL    HW129249   3.358   4.474   3.904  2.2241 -1.0263 -0.1505
 6260SOL    HW229250   3.412   4.441   3.754  0.6636  1.7422 -1.3748
 6261SOL     OW29251   1.288   1.429   2.830  0.1451  0.3745  0.0418
 6261SOL    HW129252   1.291   1.341   2.781 -2.0616  0.2152  0.1506
 6261SOL    HW229253   1.290   1.504   2.764  1.3864  0.2445 -0.0804
 6262SOL     OW29254   0.451   9.139   2.098 -0.1340 -0.6959 -0.5607
 6262SOL    HW129255   0.418   9.233   2.102 -0.5535 -0.8114 -1.2632
 6262SOL    HW229256   0.409   9.092   2.021 -0.5426 -1.7030  0.2572
 6263SOL     OW29257   6.370   9.624   3.348 -0.2135  0.0762  0.3564
 6263SOL    HW129258   6.350   9.629   3.446  1.4088 -1.7624  0.8437
 6263SOL    HW229259   6.297   9.574   3.301 -1.0802  1.1148  0.6083
 6264SOL     OW29260   0.936   4.020   0.736 -0.1764  0.0024 -0.3226
 6264SOL    HW129261   1.022   3.969   0.746  0.7014  1.5817  0.4102
 6264SOL    HW229262   0.908   4.019   0.640  2.0755  1.6685 -1.0387
 6265SOL     OW29263   8.569   8.470   0.603 -0.4319 -0.2176 -0.6702
 6265SOL    HW129264   8.469   8.469   0.612 -0.4913  1.5599 -0.8728
 6265SOL    HW229265   8.599   8.563   0.580  1.3432 -0.5578  0.2134
 6266SOL     OW29266   4.682   0.897   3.830 -0.2074  0.4278  0.1440
 6266SOL    HW129267   4.702   0.914   3.734 -0.0662 -1.1406 -0.1161
 6266SOL    HW229268   4.587   0.921   3.849 -0.8885 -1.3222 -0.9212
 6267SOL     OW29269   8.085   6.483   2.178 -0.5616  0.2494  0.5636
 6267SOL    HW129270   8.099   6.435   2.091  1.6444  1.1982  0.3709
 6267SOL    HW229271   7.987   6.502   2.190 -1.2541 -2.4729 -0.2927
 6268SOL     OW29272   0.220   2.808   1.138 -0.2552  0.8372 -0.3774
 6268SOL    HW129273   0.245   2.712   1.135  3.2378  1.6811  0.2333
 6268SOL    HW229274   0.156   2.828   1.063  2.6422 -0.9660 -3.4702
 6269SOL     OW29275   1.773   8.122   0.724  0.1873 -0.4026 -0.0749
 6269SOL    HW129276   1.680   8.155   0.735  0.0879 -1.1627  1.5086
 6269SOL    HW229277   1.780   8.029   0.760  1.5246 -0.4090 -0.3201
 6270SOL     OW29278   7.420   7.720   1.812 -0.4306 -0.1654  0.0080
 6270SOL    HW129279   7.380   7.714   1.903  0.7983 -0.1856  0.5508
 6270SOL    HW229280   7.393   7.806   1.769  0.1761  0.5092  0.9616
 6271SOL     OW29281   1.410   1.020   2.950 -0.0907  0.1510 -0.0891
 6271SOL    HW129282   1.384   1.102   3.001 -2.6686 -0.7978  0.1904
 6271SOL    HW229283   1.407   0.941   3.011 -0.4930 -0.5678 -1.0312
 6272SOL     OW29284   7.009   0.469   2.926  0.7455 -0.6843  0.5786
 6272SOL    HW129285   7.004   0.379   2.882  2.1210 -0.9919  1.0192
 6272SOL    HW229286   6.972   0.538   2.865  0.4112 -1.4376 -0.0872
 6273SOL     OW29287   8.884   8.205   0.043  0.1189  0.0810  0.0746
 6273SOL    HW129288   8.973   8.236   0.077  0.2431 -0.3552  0.1526
 6273SOL    HW229289   8.890   8.188  -0.056  0.7549 -2.1713  0.4779
 6274SOL     OW29290   4.598   1.421   3.016 -0.2783 -0.6789  0.0587
 6274SOL    HW129291   4.664   1.422   2.940 -2.5537 -2.0071 -2.0203
 6274SOL    HW229292   4.557   1.512   3.026 -2.1569 -1.1799 -2.3842
 6275SOL     OW29293   6.574   9.348   1.817  0.2166 -0.8243  1.0381
 6275SOL    HW129294   6.603   9.443   1.819 -1.2062 -0.3445  0.1955
 6275SOL    HW229295   6.487   9.338   1.865  0.0236 -1.5687  0.5551
 6276SOL     OW29296   5.157   0.921   3.236  0.1900 -0.4635 -0.7730
 6276SOL    HW129297   5.105   1.003   3.262 -0.7109 -1.5739  1.0169
 6276SOL    HW229298   5.253   0.934   3.261 -0.1272 -0.3259  0.4303
 6277SOL     OW29299   6.874   8.528   3.766  0.1983 -0.4018 -0.2910
 6277SOL    HW129300   6.947   8.518   3.699  0.0427 -0.6034 -0.4325
 6277SOL    HW229301   6.905   8.586   3.841  0.5086 -0.4933 -0.3469
 6278SOL     OW29302   8.870   0.940   1.872  0.0728  0.4033 -0.2314
 6278SOL    HW129303   8.850   0.873   1.944  0.4392  1.1671  0.5982
 6278SOL    HW229304   8.950   0.994   1.899  1.4799 -0.6572 -2.1491
 6279SOL     OW29305   2.613   2.605   0.377  0.1429  0.4534  0.1320
 6279SOL    HW129306   2.594   2.564   0.467 -0.0936 -1.0088 -0.5647
 6279SOL    HW229307   2.685   2.554   0.332 -0.2385  0.7348 -0.8151
 6280SOL     OW29308   9.455   6.593   0.192 -0.0682  0.4410 -0.2761
 6280SOL    HW129309   9.486   6.687   0.174 -0.8804  0.7742  0.0235
 6280SOL    HW229310   9.477   6.569   0.287  3.1341 -0.8819 -1.2882
 6281SOL     OW29311   9.132   7.087   2.352 -0.6582 -0.5099  0.5549
 6281SOL    HW129312   9.151   7.164   2.413  1.3332 -1.2425  0.9038
 6281SOL    HW229313   9.076   7.020   2.399 -1.8781  0.4234  0.4578
 6282SOL     OW29314   1.532   3.180   4.340 -0.0013 -0.0563 -0.3824
 6282SOL    HW129315   1.502   3.153   4.248  1.1026  1.6489 -1.2576
 6282SOL    HW229316   1.564   3.274   4.338  1.7584 -0.6005  1.3890
 6283SOL     OW29317   2.249   4.755   3.643 -0.0772 -0.0451 -0.0245
 6283SOL    HW129318   2.239   4.854   3.655  1.3133  0.0881  0.0922
 6283SOL    HW229319   2.260   4.734   3.546  1.5415  0.1081  0.1129
 6284SOL     OW29320   2.622   3.882   3.357  1.1747  0.0597  0.1504
 6284SOL    HW129321   2.674   3.944   3.299  2.7110  0.5294  1.9718
 6284SOL    HW229322   2.602   3.927   3.444  0.6134 -1.3014  0.7415
 6285SOL     OW29323   5.328   0.180   1.169  0.2121  0.5129  0.3478
 6285SOL    HW129324   5.360   0.157   1.077  0.8350 -0.5245  0.8085
 6285SOL    HW229325   5.228   0.175   1.171  0.2919 -1.8918  0.3190
 6286SOL     OW29326   3.471   3.761   3.219 -0.5244  0.0277  0.7033
 6286SOL    HW129327   3.536   3.746   3.145 -1.9239 -0.9088 -0.3814
 6286SOL    HW229328   3.436   3.673   3.251  0.3016  0.3968  2.7333
 6287SOL     OW29329   5.190   8.740   2.626 -0.6819  0.0816  0.2201
 6287SOL    HW129330   5.188   8.692   2.538 -2.3656  0.8389 -0.1859
 6287SOL    HW229331   5.132   8.692   2.692  0.1384 -0.1802  0.7556
 6288SOL     OW29332   9.573   6.972   0.793 -0.3354 -0.3280 -0.1075
 6288SOL    HW129333   9.645   6.924   0.743  0.0435 -0.0648  0.1828
 6288SOL    HW229334   9.536   6.911   0.864 -0.3504 -0.4374 -0.2084
 6289SOL     OW29335   2.948   6.159   4.105  0.0757 -0.0396 -0.3762
 6289SOL    HW129336   2.879   6.166   4.176 -0.2914  1.0357 -0.8281
 6289SOL    HW229337   2.908   6.121   4.022 -0.0235  0.7647 -0.6992
 6290SOL     OW29338   3.954   0.427   3.849 -0.2865 -0.1169 -0.1427
 6290SOL    HW129339   3.899   0.358   3.895 -0.8023  0.7682  0.6024
 6290SOL    HW229340   4.015   0.470   3.917 -0.7364  0.8951 -0.3699
 6291SOL     OW29341   2.444   1.216   0.696 -0.1265 -0.5554 -0.3707
 6291SOL    HW129342   2.427   1.164   0.612  0.4725 -0.1993 -0.7159
 6291SOL    HW229343   2.380   1.293   0.700 -0.9991 -1.2964  0.1307
 6292SOL     OW29344   0.216   8.348   0.099  0.1413  0.1481  0.1303
 6292SOL    HW129345   0.202   8.372   0.195  0.2359 -1.0477  0.4480
 6292SOL    HW229346   0.178   8.420   0.041  1.2397  1.5034  1.0595
 6293SOL     OW29347   0.851   9.977   0.164  0.6829 -0.8075  0.2901
 6293SOL    HW129348   0.777   9.970   0.097  0.9271  3.9927 -0.6489
 6293SOL    HW229349   0.939   9.976   0.117  0.9740 -0.2638  0.8202
 6294SOL     OW29350   2.030   0.631   1.245  0.2365 -0.1992 -0.2853
 6294SOL    HW129351   2.068   0.544   1.213  1.5714  0.0521  0.5680
 6294SOL    HW229352   2.055   0.644   1.341  1.8989  2.1366 -0.9917
 6295SOL     OW29353   2.376   1.255   2.825 -0.9510  0.2973 -0.0081
 6295SOL    HW129354   2.398   1.175   2.768 -0.4922 -0.4496  1.1910
 6295SOL    HW229355   2.424   1.335   2.789 -1.3031  0.0073 -1.1433
 6296SOL     OW29356   1.757   2.611   1.794 -0.0138 -0.6487 -0.0224
 6296SOL    HW129357   1.681   2.671   1.769 -0.3822 -1.5336 -1.0336
 6296SOL    HW229358   1.842   2.645   1.753  0.3789  0.9848  2.0239
 6297SOL     OW29359   6.615   0.177   4.590 -0.8272 -0.0428  0.0011
 6297SOL    HW129360   6.656   0.256   4.545 -0.2942 -1.0717 -1.3909
 6297SOL    HW229361   6.517   0.175   4.572 -0.9279  0.6123  0.5067
 6298SOL     OW29362   9.892   7.726   0.341  0.5717 -0.2886 -0.6979
 6298SOL    HW129363   9.867   7.650   0.282 -0.8650  0.6292 -1.2891
 6298SOL    HW229364   9.841   7.722   0.426  1.0175 -0.3797 -0.4308
 6299SOL     OW29365   5.892   0.372   3.749 -0.4955 -0.8572 -0.1177
 6299SOL    HW129366   5.952   0.334   3.680  1.9823 -0.4784  1.7791
 6299SOL    HW229367   5.905   0.324   3.836  0.5590  2.2899  1.5509
 6300SOL     OW29368   5.032   2.761   1.436  0.5806 -0.3709  0.2786
 6300SOL    HW129369   4.938   2.772   1.403 -0.0034  0.4474  2.1407
 6300SOL    HW229370   5.031   2.711   1.523  2.0172 -1.7422 -0.4610
 6301SOL     OW29371   3.381   0.019   2.674  0.0299  0.5679  0.0605
 6301SOL    HW129372   3.481   0.026   2.683 -0.0089  0.4105  0.6695
 6301SOL    HW229373   3.356   0.025   2.578  0.6733  0.1326 -0.1456
 6302SOL     OW29374   7.579   7.603   2.735 -0.4814  0.2053  0.1372
 6302SOL    HW129375   7.608   7.507   2.732 -1.3308 -0.0364 -0.4977
 6302SOL    HW229376   7.560   7.629   2.830 -0.6785 -0.3915  0.2669
 6303SOL     OW29377   1.068   0.611   2.855  0.4703 -0.2248 -0.0863
 6303SOL    HW129378   1.118   0.624   2.941  0.3901 -0.4390 -0.0088
 6303SOL    HW229379   0.993   0.677   2.850  0.1573 -0.5583  0.2403
 6304SOL     OW29380   0.800   0.947   0.760 -0.4197 -0.1775  0.5262
 6304SOL    HW129381   0.790   1.005   0.841  0.1795  0.2570  0.2998
 6304SOL    HW229382   0.763   0.856   0.778  1.0924 -0.5620  1.8000
 6305SOL     OW29383   0.880   8.875   0.544 -0.1234 -0.2959 -0.3566
 6305SOL    HW129384   0.814   8.883   0.619  0.3151 -0.2134  0.0237
 6305SOL    HW229385   0.835   8.898   0.458 -0.6793 -0.5713 -0.1441
 6306SOL     OW29386   1.444   8.458   2.328 -0.3458  0.8080  0.0454
 6306SOL    HW129387   1.488   8.370   2.308 -2.2285  0.1745 -1.4187
 6306SOL    HW229388   1.374   8.477   2.259 -1.1120  2.6696  1.3029
 6307SOL     OW29389   8.741   0.734   2.020  0.3043 -0.6803  0.0478
 6307SOL    HW129390   8.733   0.643   2.061 -0.7685  0.0082  1.4133
 6307SOL    HW229391   8.678   0.742   1.943  2.0922 -1.8729 -1.5805
 6308SOL     OW29392   9.111   5.581   4.308  0.4143 -0.6197  0.5538
 6308SOL    HW129393   9.098   5.680   4.305  2.8969 -0.2710 -0.9333
 6308SOL    HW229394   9.025   5.535   4.287  0.2317  1.3288 -3.5251
 6309SOL     OW29395   6.449   9.785   3.143  0.3639 -0.5375 -0.2970
 6309SOL    HW129396   6.419   9.732   3.222 -0.8649  0.1868 -0.2545
 6309SOL    HW229397   6.393   9.761   3.064 -1.0033  1.5078  0.0092
 6310SOL     OW29398   0.736   7.568   0.493  0.1157 -0.3773 -0.3500
 6310SOL    HW129399   0.801   7.636   0.527  0.9203 -1.1449 -0.3229
 6310SOL    HW229400   0.693   7.521   0.570 -0.9112  0.5371 -0.3628
 6311SOL     OW29401   0.697   2.371   1.702  0.2104 -0.0942 -0.2109
 6311SOL    HW129402   0.756   2.342   1.778  1.3211  0.3445 -0.8869
 6311SOL    HW229403   0.739   2.449   1.656 -0.7078 -0.0395 -0.9614
 6312SOL     OW29404   2.479   1.898   3.378 -0.6675  0.7897  0.0466
 6312SOL    HW129405   2.380   1.885   3.378 -0.6488  0.2434  2.6504
 6312SOL    HW229406   2.520   1.841   3.450  1.5121  1.1633 -0.8614
 6313SOL     OW29407   3.382   5.910   3.615 -0.4871 -0.3042  0.4432
 6313SOL    HW129408   3.392   5.957   3.702 -1.4194 -0.3181  0.5634
 6313SOL    HW229409   3.399   5.812   3.627 -0.7058 -0.3186  0.6242
 6314SOL     OW29410   1.603   5.234   1.541 -0.6259 -0.6134 -0.2808
 6314SOL    HW129411   1.571   5.146   1.505 -0.0749 -1.4229  1.1580
 6314SOL    HW229412   1.524   5.289   1.571 -0.8360 -1.6910  1.2096
 6315SOL     OW29413   4.383   9.848   1.370 -0.3293 -0.6272 -0.6022
 6315SOL    HW129414   4.366   9.756   1.406  1.6520 -0.1621  1.6984
 6315SOL    HW229415   4.345   9.915   1.433 -0.8726  0.1669 -1.7661
 6316SOL     OW29416   7.597   8.200   0.619  0.1920  0.0786 -0.0567
 6316SOL    HW129417   7.635   8.195   0.527  1.3494  1.3156  0.3376
 6316SOL    HW229418   7.668   8.176   0.685 -1.3115 -3.2979  0.4087
 6317SOL     OW29419   2.073   1.904   1.802 -0.2396 -0.4414  0.1134
 6317SOL    HW129420   2.079   1.852   1.718  2.3882  0.0333 -0.0248
 6317SOL    HW229421   2.057   1.842   1.879  0.1767 -1.1552 -0.3750
 6318SOL     OW29422   0.718   8.815   2.157  0.1579 -0.5323 -0.6737
 6318SOL    HW129423   0.739   8.912   2.154  0.6771 -0.5590  1.4745
 6318SOL    HW229424   0.792   8.763   2.112  0.8683 -0.0721 -0.0468
 6319SOL     OW29425   8.662   8.666   3.400 -0.1441 -0.3743 -0.1680
 6319SOL    HW129426   8.710   8.584   3.368 -0.2534 -1.6074  2.6720
 6319SOL    HW229427   8.571   8.640   3.433  0.2939  0.6911  1.9090
 6320SOL     OW29428   2.058   1.069   0.625  0.3349 -0.0884  0.0814
 6320SOL    HW129429   2.092   1.137   0.560  0.4063  0.5917  0.8234
 6320SOL    HW229430   2.092   0.979   0.600  2.3370  0.5153  0.5569
 6321SOL     OW29431   2.414   8.950   0.769 -0.3188  0.0468  0.1520
 6321SOL    HW129432   2.437   8.888   0.844  2.3934  0.1650 -0.5384
 6321SOL    HW229433   2.413   9.044   0.803 -0.4325 -0.0082  0.3027
 6322SOL     OW29434   1.147   4.278   3.199  0.0439 -0.5559 -0.5930
 6322SOL    HW129435   1.095   4.231   3.127 -1.3927 -0.1241  0.1405
 6322SOL    HW229436   1.106   4.368   3.215  1.0723 -0.1888 -0.0429
 6323SOL     OW29437   3.219   2.746   2.870  0.3450  0.0700  0.4300
 6323SOL    HW129438   3.185   2.776   2.781  1.9601 -1.2221 -0.6452
 6323SOL    HW229439   3.141   2.726   2.930 -0.7554  1.1893 -0.5879
 6324SOL     OW29440   9.942   0.626   3.234 -0.1934 -0.0992  0.6579
 6324SOL    HW129441   9.887   0.548   3.203 -1.0695  0.8746 -0.2676
 6324SOL    HW229442  10.037   0.597   3.246 -0.3372 -1.1081 -0.5214
 6325SOL     OW29443   1.932   5.542   1.356  0.0497  0.6597  0.4517
 6325SOL    HW129444   1.928   5.490   1.441  0.0038  0.2774  0.2170
 6325SOL    HW229445   1.980   5.489   1.286 -0.1488  0.8638  0.1578
 6326SOL     OW29446   3.801   1.393   1.764  0.1900  0.1145 -0.0904
 6326SOL    HW129447   3.741   1.351   1.696  0.5296  0.1082 -0.3841
 6326SOL    HW229448   3.885   1.425   1.720  0.2810  0.3808  0.2714
 6327SOL     OW29449   0.772   9.717   4.090 -0.8978 -0.7232 -0.0280
 6327SOL    HW129450   0.741   9.630   4.054 -1.4545 -1.0066  1.1036
 6327SOL    HW229451   0.795   9.779   4.015 -1.1806 -1.5985 -0.8351
 6328SOL     OW29452   9.942   7.011   1.831  0.1485  0.9433 -0.2955
 6328SOL    HW129453   9.847   7.039   1.839  0.2392  0.7619  1.5775
 6328SOL    HW229454   9.953   6.920   1.870  0.8308  0.3429 -1.8215
 6329SOL     OW29455   3.243   8.555   1.073 -0.3155 -0.4495 -0.5711
 6329SOL    HW129456   3.175   8.501   1.122  0.2549  0.6674  1.5415
 6329SOL    HW229457   3.228   8.548   0.975 -3.7841  0.1632 -0.1506
 6330SOL     OW29458   3.978   9.434   2.882 -0.4840  0.0102  0.3916
 6330SOL    HW129459   4.075   9.428   2.904 -0.4001  0.3184  0.1148
 6330SOL    HW229460   3.967   9.456   2.785 -0.7966  1.6521  0.7835
 6331SOL     OW29461   7.194   8.911   1.237 -0.0766 -0.7473 -0.5009
 6331SOL    HW129462   7.265   8.876   1.299 -0.2024 -1.1716 -0.5934
 6331SOL    HW229463   7.145   8.986   1.280  0.1985 -0.6833 -0.2989
 6332SOL     OW29464   2.521   0.501   4.428  0.1435 -0.7259 -0.3592
 6332SOL    HW129465   2.441   0.503   4.488 -1.6102  0.6916 -2.6826
 6332SOL    HW229466   2.575   0.420   4.448 -1.1740 -1.0462  2.1214
 6333SOL     OW29467   5.180   0.296   4.068  0.4984 -0.2622 -0.3472
 6333SOL    HW129468   5.185   0.205   4.026 -2.3203 -0.6535  0.1083
 6333SOL    HW229469   5.110   0.350   4.022  2.2990  1.8076 -0.7566
 6334SOL     OW29470   1.999   6.500   1.467 -0.1297  0.5785 -0.4121
 6334SOL    HW129471   1.982   6.523   1.371 -2.1933  0.8353 -0.0040
 6334SOL    HW229472   2.077   6.552   1.501 -2.3476  4.1332 -0.6035
 6335SOL     OW29473   0.864   2.593   1.641  0.0545 -0.5475  0.7923
 6335SOL    HW129474   0.934   2.621   1.708 -1.7006 -2.5715  3.6104
 6335SOL    HW229475   0.904   2.528   1.577  1.3780  0.1832  0.8543
 6336SOL     OW29476   2.461   9.263   0.058  0.3352 -0.0865 -0.0978
 6336SOL    HW129477   2.424   9.170   0.054 -0.5432  0.2759 -0.3814
 6336SOL    HW229478   2.450   9.307  -0.032 -0.7312  0.8592  0.4891
 6337SOL     OW29479   6.471   9.103   1.007  0.3513  0.2429  0.2691
 6337SOL    HW129480   6.520   9.129   0.924  0.0273  1.9422  0.5816
 6337SOL    HW229481   6.374   9.093   0.988  0.6545 -2.2143 -0.1501
 6338SOL     OW29482   2.408   7.630   4.559 -0.6777 -0.2415 -0.2439
 6338SOL    HW129483   2.352   7.685   4.498  0.8900  0.7049 -0.8838
 6338SOL    HW229484   2.407   7.670   4.651  1.3335  1.5976 -0.9510
 6339SOL     OW29485   6.719   9.973   2.626  0.3225 -0.4055  0.2031
 6339SOL    HW129486   6.725  10.072   2.614  0.9528 -0.7403 -2.4759
 6339SOL    HW229487   6.654   9.935   2.561  0.0667 -1.7712  1.2267
 6340SOL     OW29488   1.349   8.604   2.078 -0.2294  0.5988 -0.6261
 6340SOL    HW129489   1.395   8.691   2.060 -0.5122  0.3202 -2.8583
 6340SOL    HW229490   1.256   8.621   2.111  0.6284  1.1317  1.6484
 6341SOL     OW29491   9.664   3.971   2.234  0.0607 -0.0847 -0.2420
 6341SOL    HW129492   9.654   3.906   2.310 -2.2969  2.2040  1.5001
 6341SOL    HW229493   9.749   3.951   2.185  0.2416 -3.3956  1.2525
 6342SOL     OW29494   8.474   6.911   1.061  0.1548 -0.1369 -0.4236
 6342SOL    HW129495   8.497   6.943   0.969  0.9891  2.2193  0.5671
 6342SOL    HW229496   8.558   6.884   1.109 -0.1293 -0.0214  0.1385
 6343SOL     OW29497   3.175   9.211   1.641 -0.2274 -0.1041  0.0430
 6343SOL    HW129498   3.150   9.125   1.685 -1.5837  0.0261 -0.4335
 6343SOL    HW229499   3.145   9.210   1.546 -1.8278  1.5555  0.4925
 6344SOL     OW29500   1.645   8.830   3.447  0.1589 -0.0245 -0.5942
 6344SOL    HW129501   1.725   8.783   3.483  0.2322  1.6334  1.5207
 6344SOL    HW229502   1.673   8.894   3.375  0.6451  0.1001 -0.2901
 6345SOL     OW29503   0.433   6.539   3.360  0.3137  0.1151  0.7622
 6345SOL    HW129504   0.402   6.633   3.343 -0.9487 -0.4525 -0.1569
 6345SOL    HW229505   0.528   6.541   3.392 -0.1842  1.8120  2.2733
 6346SOL     OW29506   0.313   6.225   3.303  0.0267 -0.7304 -0.3163
 6346SOL    HW129507   0.242   6.257   3.366 -0.2598 -1.4633 -0.2583
 6346SOL    HW229508   0.384   6.295   3.294  0.2025 -0.7210  1.0194
 6347SOL     OW29509   9.949   7.225   1.080 -0.5376 -0.2535 -0.0214
 6347SOL    HW129510   9.873   7.284   1.052  0.3011  0.5005 -0.7502
 6347SOL    HW229511   9.925   7.129   1.065 -0.4638  0.0942 -2.4534
 6348SOL     OW29512   1.112   2.372   2.005  0.8168 -0.6156 -0.0762
 6348SOL    HW129513   1.138   2.463   1.972 -0.8385  0.5234  1.6116
 6348SOL    HW229514   1.055   2.327   1.937 -0.4132  0.6362  0.1043
 6349SOL     OW29515   1.722   9.535   3.959  0.2042  0.2049 -0.0909
 6349SOL    HW129516   1.800   9.474   3.964 -0.8295 -1.0409  1.0808
 6349SOL    HW229517   1.641   9.490   3.997 -1.1524  1.3649 -1.4990
 6350SOL     OW29518   8.853   8.230   4.554 -0.2858  0.1562 -0.4087
 6350SOL    HW129519   8.900   8.313   4.526 -1.3040  0.9043  0.0399
 6350SOL    HW229520   8.764   8.224   4.508 -0.2804 -0.6056 -0.3322
 6351SOL     OW29521   7.391   0.220   2.680 -0.0383 -0.8444  0.3456
 6351SOL    HW129522   7.361   0.308   2.715  1.5063 -0.4086  0.5855
 6351SOL    HW229523   7.473   0.233   2.623  0.3478 -2.1487  0.5947
 6352SOL     OW29524   0.941   4.201   2.351 -0.7240  0.4424 -0.1226
 6352SOL    HW129525   0.929   4.138   2.274 -2.1566 -0.6531  0.9592
 6352SOL    HW229526   1.026   4.179   2.400 -0.1581  0.7025 -0.9902
 6353SOL     OW29527   2.191   5.723   0.734 -0.3833  0.1483 -0.0573
 6353SOL    HW129528   2.248   5.654   0.689 -1.9943 -1.8864  0.9607
 6353SOL    HW229529   2.159   5.789   0.665  0.4104 -0.6504 -1.2113
 6354SOL     OW29530   1.033   0.102   2.990 -0.4475  0.0522 -0.3960
 6354SOL    HW129531   1.067   0.196   2.983 -0.4567  0.2309  1.7290
 6354SOL    HW229532   1.068   0.048   2.913  0.0472  1.6430 -1.2986
 6355SOL     OW29533   7.945   9.650   1.651 -0.4665 -0.2371 -0.8399
 6355SOL    HW129534   7.847   9.665   1.640 -1.1321 -3.1174  0.6550
 6355SOL    HW229535   7.981   9.606   1.568 -0.6046  0.0577 -1.0573
 6356SOL     OW29536   1.711   6.202   4.525  0.3334  0.0507  0.5451
 6356SOL    HW129537   1.769   6.245   4.456  1.5002 -0.3967  1.2084
 6356SOL    HW229538   1.677   6.272   4.588 -1.3276  0.5451 -0.9033
 6357SOL     OW29539   0.880   0.812   2.825 -0.1009 -0.0236  0.1565
 6357SOL    HW129540   0.832   0.757   2.756 -1.4287  2.4959 -1.0019
 6357SOL    HW229541   0.945   0.873   2.779  0.2459  0.4504  1.2764
 6358SOL     OW29542   2.424   5.966   1.385 -0.0507 -0.2593 -0.4343
 6358SOL    HW129543   2.392   5.895   1.448 -0.9702  0.3288 -0.2256
 6358SOL    HW229544   2.363   5.971   1.306  0.6653 -0.4723 -1.0072
 6359SOL     OW29545   7.454   9.644   3.885  0.2153  0.5487  0.6436
 6359SOL    HW129546   7.478   9.625   3.980  2.4301 -0.7646 -0.1286
 6359SOL    HW229547   7.493   9.573   3.826 -0.1866  1.9254 -1.3482
 6360SOL     OW29548   9.925   9.940   3.585 -0.3347  0.1512 -0.0680
 6360SOL    HW129549   9.831   9.966   3.608 -0.4411  1.2396 -1.6179
 6360SOL    HW229550   9.964  10.008   3.523  2.0338  0.5331  1.7852
 6361SOL     OW29551   3.550   9.337   3.039  0.1238  0.0148  0.0071
 6361SOL    HW129552   3.615   9.344   2.963 -0.2592  0.2059 -0.3069
 6361SOL    HW229553   3.496   9.421   3.044 -0.1203 -0.1583  0.2460
 6362SOL     OW29554   1.889   5.083   3.942  0.4311 -0.0586  0.2231
 6362SOL    HW129555   1.858   4.988   3.930  1.0743 -0.2671  0.1928
 6362SOL    HW229556   1.874   5.134   3.858  0.2142 -0.1713  0.1929
 6363SOL     OW29557   5.365   0.670   2.671 -0.4466 -0.2927  0.4168
 6363SOL    HW129558   5.313   0.623   2.599 -0.1444 -0.7033  0.4649
 6363SOL    HW229559   5.380   0.607   2.747 -1.0014  0.2240  0.9563
 6364SOL     OW29560   7.950   9.984   1.511  0.1522  0.2031 -0.1930
 6364SOL    HW129561   7.896   9.985   1.596 -2.3421 -1.6349 -1.7066
 6364SOL    HW229562   8.046   9.967   1.533 -0.5716 -0.9653  2.2105
 6365SOL     OW29563   9.564   4.925   4.698 -0.2972 -0.4206 -1.1749
 6365SOL    HW129564   9.577   4.928   4.797  1.8774 -1.0455 -1.3978
 6365SOL    HW229565   9.502   4.997   4.670  1.5097  1.8018  0.3359
 6366SOL     OW29566   4.801   0.990   3.614  0.3382 -0.5037  0.2545
 6366SOL    HW129567   4.836   0.953   3.528 -1.0884  0.6481 -0.8503
 6366SOL    HW229568   4.833   1.084   3.626 -0.5389 -0.2090  0.3317
 6367SOL     OW29569   1.938   5.450   2.849  0.0903  0.2269 -0.2099
 6367SOL    HW129570   1.958   5.548   2.838  0.2128  0.2179 -0.0732
 6367SOL    HW229571   1.904   5.413   2.763 -0.7699  0.5828 -0.0265
 6368SOL     OW29572   1.352   5.529   3.294 -0.2639 -0.3418  0.7275
 6368SOL    HW129573   1.289   5.452   3.307  0.7893 -1.2375  0.6377
 6368SOL    HW229574   1.440   5.495   3.260 -0.3166  1.0861 -0.9278
 6369SOL     OW29575   1.710   9.569   4.382  0.2179 -0.1499  0.3322
 6369SOL    HW129576   1.751   9.641   4.327  0.9264 -1.8633 -1.4512
 6369SOL    HW229577   1.612   9.565   4.364  0.1125  0.6177  0.7309
 6370SOL     OW29578   9.248   6.071   0.496  1.1855  0.1282  0.2190
 6370SOL    HW129579   9.316   5.999   0.512  0.3519 -0.1753  2.4914
 6370SOL    HW229580   9.179   6.037   0.431 -0.1901 -1.8383  2.5964
 6371SOL     OW29581   8.210   7.499   2.512  0.3205  0.1929 -0.1126
 6371SOL    HW129582   8.150   7.560   2.460 -1.8674 -0.5774  1.4179
 6371SOL    HW229583   8.274   7.554   2.565 -0.0999  1.0976 -0.5270
 6372SOL     OW29584   9.735   7.892   1.025  0.2098  0.4165  0.3126
 6372SOL    HW129585   9.790   7.815   1.058  0.9521  1.1457  0.8143
 6372SOL    HW229586   9.741   7.967   1.090 -2.1294  0.1880  0.8037
 6373SOL     OW29587   2.429   3.549   2.370  0.2371  0.0757 -0.3337
 6373SOL    HW129588   2.512   3.502   2.342  0.9779  0.0623  1.8004
 6373SOL    HW229589   2.446   3.648   2.375  0.3564  0.0066  0.8213
 6374SOL     OW29590   4.433   6.893   3.019 -0.1050 -0.9746 -0.1397
 6374SOL    HW129591   4.481   6.969   2.975 -1.2504  0.3736  0.8992
 6374SOL    HW229592   4.463   6.886   3.114  0.1979 -2.0274 -0.3016
 6375SOL     OW29593   0.579   5.056   3.514  0.2451  0.2837 -0.5447
 6375SOL    HW129594   0.515   4.994   3.468  0.9541  0.0657 -1.2396
 6375SOL    HW229595   0.529   5.110   3.581 -0.4627 -0.7632 -0.2002
 6376SOL     OW29596   0.054   4.741   1.327  0.5015 -0.3362 -0.4374
 6376SOL    HW129597   0.094   4.756   1.237 -1.7799  0.5836 -1.3422
 6376SOL    HW229598   0.078   4.817   1.387  1.7306 -0.7709 -0.3816
 6377SOL     OW29599   2.149   2.817   1.435 -0.0401 -0.2222  0.1270
 6377SOL    HW129600   2.227   2.795   1.377  0.3498  0.5680  0.3496
 6377SOL    HW229601   2.094   2.888   1.392 -0.5438 -0.6474  0.0551
 6378SOL     OW29602   0.428   0.085   0.818 -0.0138 -0.1174  0.0324
 6378SOL    HW129603   0.435   0.075   0.719 -0.3294 -0.4755  0.0470
 6378SOL    HW229604   0.392   0.001   0.858 -2.3050  0.8810  0.1859
 6379SOL     OW29605   0.944   2.075   3.562  0.6767 -0.0416 -0.5173
 6379SOL    HW129606   1.007   2.087   3.639  0.2196 -0.2125 -0.1195
 6379SOL    HW229607   0.897   1.987   3.570  0.4566  0.0406 -0.8682
 6380SOL     OW29608   7.017   9.023   3.142  0.1692  0.4484  0.3606
 6380SOL    HW129609   7.021   8.992   3.237 -0.3363 -2.7398 -0.5979
 6380SOL    HW229610   6.932   8.990   3.100  1.4081 -0.0369 -1.8115
 6381SOL     OW29611   6.091   9.562   3.102 -0.0408  0.2669 -0.2951
 6381SOL    HW129612   6.057   9.646   3.144 -2.4846 -1.0239  0.3967
 6381SOL    HW229613   6.163   9.585   3.036 -2.3948  3.1365 -1.9950
 6382SOL     OW29614   2.846   2.511   0.969 -0.5841 -0.1080 -0.5538
 6382SOL    HW129615   2.807   2.422   0.949 -0.7600  0.1284 -1.2824
 6382SOL    HW229616   2.794   2.556   1.042 -0.6042 -0.5218 -0.3160
 6383SOL     OW29617   1.119   7.156   1.411 -0.1179 -0.1924 -0.4339
 6383SOL    HW129618   1.190   7.226   1.398 -1.1564  0.9607 -0.0507
 6383SOL    HW229619   1.044   7.173   1.347 -0.5223 -0.7855 -0.1177
 6384SOL     OW29620   1.454   2.470   0.210 -0.1154  0.1193 -0.3612
 6384SOL    HW129621   1.381   2.416   0.169 -0.4838  0.0958  0.3155
 6384SOL    HW229622   1.416   2.531   0.280  0.6199 -0.5721  0.6658
 6385SOL     OW29623   0.404   2.844   2.095  0.5316  0.4220 -0.5538
 6385SOL    HW129624   0.340   2.809   2.026  0.9555  1.4067 -1.4702
 6385SOL    HW229625   0.372   2.933   2.128  1.7511  1.2306 -1.4996
 6386SOL     OW29626   4.108   9.173   2.077  1.1581 -0.0969  0.0203
 6386SOL    HW129627   4.039   9.112   2.039  3.7140 -1.4399 -2.6218
 6386SOL    HW229628   4.092   9.184   2.175 -2.2173 -1.0846 -0.3428
 6387SOL     OW29629   1.497   3.033   1.667  0.3672  0.3738 -0.3617
 6387SOL    HW129630   1.415   3.060   1.717  0.2355  0.6244 -0.7128
 6387SOL    HW229631   1.557   2.981   1.728 -1.4019 -2.4085 -0.9366
 6388SOL     OW29632   4.748   8.826   1.801  0.1693 -0.2094 -0.3643
 6388SOL    HW129633   4.829   8.849   1.856 -0.1811 -1.3752  0.6711
 6388SOL    HW229634   4.720   8.906   1.748  0.6587  0.8976  0.9980
 6389SOL     OW29635   6.642   7.613   2.772  0.2354 -0.2604 -0.1282
 6389SOL    HW129636   6.675   7.595   2.679 -0.7321  1.6061 -0.8690
 6389SOL    HW229637   6.631   7.527   2.821  0.0420 -1.3279 -1.9975
 6390SOL     OW29638   3.838   2.305   2.193 -0.2525  0.3452  0.3046
 6390SOL    HW129639   3.852   2.207   2.205  0.2259  0.3718 -0.0195
 6390SOL    HW229640   3.887   2.355   2.264  2.0695  0.4749 -1.3419
 6391SOL     OW29641   9.430   7.519   0.231  0.4292 -0.3107 -0.4784
 6391SOL    HW129642   9.499   7.489   0.166  0.9364  1.1230 -0.5929
 6391SOL    HW229643   9.457   7.605   0.273  0.7896 -1.8992  2.6908
 6392SOL     OW29644   3.164   4.490   3.620  0.0581 -0.0704  0.9880
 6392SOL    HW129645   3.236   4.423   3.631  0.9427  0.7973  0.5723
 6392SOL    HW229646   3.118   4.506   3.707  0.2640 -0.7328  1.2147
 6393SOL     OW29647   0.584   9.623   1.390 -0.0372  0.2357 -0.9095
 6393SOL    HW129648   0.496   9.577   1.375 -0.1313 -0.1135  0.6692
 6393SOL    HW229649   0.594   9.698   1.325 -1.8177  0.7337 -0.6228
 6394SOL     OW29650   2.337   5.435   1.367  0.1762 -0.1239 -0.4053
 6394SOL    HW129651   2.308   5.352   1.415 -0.9695  1.6182  2.0427
 6394SOL    HW229652   2.417   5.473   1.413  0.7654  0.0822 -1.5916
 6395SOL     OW29653   1.599   7.406   1.953 -0.1409  0.1660  0.1967
 6395SOL    HW129654   1.519   7.372   2.002  0.0566 -1.7792 -0.7693
 6395SOL    HW229655   1.580   7.410   1.855  0.1190  2.1247  0.2048
 6396SOL     OW29656   9.549   0.385   0.896  0.3054  0.5014  0.1974
 6396SOL    HW129657   9.620   0.316   0.907  0.0379  0.0741 -0.6405
 6396SOL    HW229658   9.587   0.475   0.914  0.7856  0.1797  0.8114
 6397SOL     OW29659   0.421   1.859   0.043  0.3459 -0.3957  0.3589
 6397SOL    HW129660   0.433   1.929   0.113 -1.2713 -0.9461  1.2062
 6397SOL    HW229661   0.341   1.803   0.066  0.7800 -1.6031 -1.0659
 6398SOL     OW29662   9.580   5.472   3.710 -0.5793  0.7013 -0.3953
 6398SOL    HW129663   9.561   5.570   3.719 -0.1467  0.6259  1.4629
 6398SOL    HW229664   9.531   5.422   3.781  1.3289 -0.1495  0.3522
 6399SOL     OW29665   4.047   3.153   2.483  0.0181  0.0540  0.3015
 6399SOL    HW129666   4.032   3.123   2.389 -2.0125  0.9220  0.3282
 6399SOL    HW229667   4.011   3.083   2.545  0.8718 -0.2686  0.4442
 6400SOL     OW29668   0.431   6.950   2.534 -0.4331  0.0105 -0.1054
 6400SOL    HW129669   0.526   6.962   2.505 -0.9491  1.4415 -1.2199
 6400SOL    HW229670   0.428   6.882   2.607  1.4795  0.1271  0.1189
 6401SOL     OW29671   2.662   3.447   3.780 -0.3789 -0.4185 -0.8288
 6401SOL    HW129672   2.669   3.541   3.748  0.2928  0.1510  0.9029
 6401SOL    HW229673   2.574   3.409   3.754 -0.9578  0.9432 -0.8855
 6402SOL     OW29674   2.534   6.970   0.098  0.0801 -0.3199 -0.8092
 6402SOL    HW129675   2.499   7.041   0.159 -0.9963  0.1274 -1.9435
 6402SOL    HW229676   2.629   6.949   0.123 -1.1726 -2.1647  2.8554
 6403SOL     OW29677   2.913   7.428   0.318 -1.0536  1.0383 -0.3960
 6403SOL    HW129678   2.999   7.392   0.356 -2.3802 -0.1610  1.5375
 6403SOL    HW229679   2.896   7.383   0.230 -1.0284 -0.7202  0.4621
 6404SOL     OW29680   1.359   1.348   2.108 -1.0841 -0.1654  0.5327
 6404SOL    HW129681   1.314   1.315   2.025  0.7462 -0.6712 -0.2841
 6404SOL    HW229682   1.377   1.446   2.099  0.7670 -0.5848 -0.4547
 6405SOL     OW29683   3.887   8.785   2.664 -0.3121 -0.4899 -0.0462
 6405SOL    HW129684   3.914   8.881   2.674  1.7168 -1.0564  0.1868
 6405SOL    HW229685   3.813   8.764   2.727 -0.8166  0.9469 -0.1441
 6406SOL     OW29686   1.104   3.416   2.617  0.6048 -0.1566 -0.3831
 6406SOL    HW129687   1.075   3.347   2.551 -0.2497 -1.1379  0.9777
 6406SOL    HW229688   1.194   3.451   2.592  1.5035 -2.5132 -0.5635
 6407SOL     OW29689   1.683   7.457   1.061  0.2454 -0.2149 -0.0886
 6407SOL    HW129690   1.770   7.481   1.018 -0.5438  1.0936 -1.0164
 6407SOL    HW229691   1.699   7.391   1.134  1.7121 -2.0172 -1.9614
 6408SOL     OW29692   7.009   0.055   3.579 -0.1941  0.4948  0.0084
 6408SOL    HW129693   7.092   0.055   3.525  0.5968  1.9144  1.1835
 6408SOL    HW229694   6.979   0.149   3.596 -1.2727  0.0442  0.7431
 6409SOL     OW29695   1.559   7.904   3.953  0.0905  0.4130 -0.3084
 6409SOL    HW129696   1.486   7.891   3.886  0.8974  0.4379 -1.2034
 6409SOL    HW229697   1.604   7.817   3.970  1.0470  0.7262 -1.1589
 6410SOL     OW29698   0.789   8.985   4.287 -0.2022 -0.2574 -0.2208
 6410SOL    HW129699   0.791   8.958   4.383 -1.6634 -0.3204 -0.1914
 6410SOL    HW229700   0.711   9.046   4.272  0.4455  0.3348 -1.2176
 6411SOL     OW29701   8.883   9.306   4.069 -0.1173 -0.2357  0.5367
 6411SOL    HW129702   8.901   9.404   4.079 -0.4342 -0.1045 -0.1989
 6411SOL    HW229703   8.955   9.264   4.013 -1.9854  0.2801 -2.3566
 6412SOL     OW29704   9.162   6.673   0.866  0.3125 -0.1425  0.3252
 6412SOL    HW129705   9.098   6.705   0.796  2.3367  0.2556 -1.3492
 6412SOL    HW229706   9.204   6.752   0.911  0.8009 -0.4278  0.3668
 6413SOL     OW29707   8.946   6.244   2.448  0.5228  0.4074 -0.2488
 6413SOL    HW129708   8.982   6.162   2.493 -1.6507 -0.4510 -0.0268
 6413SOL    HW229709   8.902   6.218   2.363  1.0040  1.5365 -0.8538
 6414SOL     OW29710   1.611   4.425   2.367  0.3357 -0.2490  0.7343
 6414SOL    HW129711   1.518   4.390   2.351  0.1645  1.4400 -2.3954
 6414SOL    HW229712   1.676   4.369   2.316  0.7143  0.3553  0.5611
 6415SOL     OW29713   3.850   8.931   0.692 -0.4705 -0.2036  0.4724
 6415SOL    HW129714   3.752   8.949   0.686 -0.1152  1.9639  0.8823
 6415SOL    HW229715   3.872   8.846   0.644 -2.8898 -1.9989  2.4013
 6416SOL     OW29716   2.447   3.963   1.928 -0.0561 -0.0658  0.1993
 6416SOL    HW129717   2.406   3.911   1.852 -0.5577  0.6724 -0.0392
 6416SOL    HW229718   2.444   4.061   1.907  0.9273  0.0555  0.6334
 6417SOL     OW29719   4.569   8.667   2.732 -0.5005  0.1388 -0.2759
 6417SOL    HW129720   4.475   8.693   2.712 -0.0537  2.2495  0.2766
 6417SOL    HW229721   4.627   8.687   2.653 -0.7983 -2.9414 -1.3452
 6418SOL     OW29722   8.464   5.614   2.416 -0.4597 -0.1654  0.1441
 6418SOL    HW129723   8.545   5.628   2.474 -0.8899 -0.6937  0.8812
 6418SOL    HW229724   8.403   5.692   2.424  0.1330  0.3895 -0.6766
 6419SOL     OW29725   3.411   2.505   3.864 -0.6803  0.2311  0.0004
 6419SOL    HW129726   3.477   2.455   3.920 -0.4967  2.2856  1.6911
 6419SOL    HW229727   3.423   2.480   3.768  1.8780 -0.2012  0.3893
 6420SOL     OW29728   3.566   3.383   0.703  0.4308  0.0834 -0.2095
 6420SOL    HW129729   3.543   3.288   0.728 -0.2311  0.3467  0.2099
 6420SOL    HW229730   3.596   3.432   0.785  0.4449  0.3266 -0.3615
 6421SOL     OW29731   3.259   2.884   1.028  0.2745 -0.3594 -0.7883
 6421SOL    HW129732   3.332   2.945   1.058  0.0993 -0.5324  0.0234
 6421SOL    HW229733   3.181   2.937   0.996 -2.1568  0.1158  5.1760
 6422SOL     OW29734   4.841   9.984   1.787 -0.1294 -0.0268  0.0903
 6422SOL    HW129735   4.747  10.006   1.759  0.2915  0.9187 -0.6089
 6422SOL    HW229736   4.903  10.055   1.754  1.2782 -2.2164 -2.1579
 6423SOL     OW29737   9.281   8.895   3.847  0.2434 -0.6418  0.6160
 6423SOL    HW129738   9.306   8.929   3.756  1.9915 -2.9003  0.1929
 6423SOL    HW229739   9.364   8.885   3.903 -0.6983 -0.2923  2.1067
 6424SOL     OW29740   4.037   9.273   4.368  0.3313  0.3564  0.1931
 6424SOL    HW129741   3.965   9.204   4.367  0.1296  0.5701 -0.1529
 6424SOL    HW229742   4.029   9.328   4.451  0.7349 -0.2844  0.6646
 6425SOL     OW29743   0.689   0.778   0.954  0.0083 -0.2720 -0.2412
 6425SOL    HW129744   0.703   0.702   1.018  2.1777  0.5233  0.2883
 6425SOL    HW229745   0.724   0.863   0.994 -0.6799  0.6679 -1.5761
 6426SOL     OW29746   4.282   2.820   0.063 -0.0651 -1.0145 -0.6706
 6426SOL    HW129747   4.333   2.751   0.011  1.1536 -0.9299  0.3924
 6426SOL    HW229748   4.299   2.807   0.161 -1.1044 -0.2004 -0.3812
 6427SOL     OW29749   8.171   7.887   3.174 -0.1994 -0.2844 -0.1528
 6427SOL    HW129750   8.173   7.800   3.125 -1.0969 -0.0237 -0.6555
 6427SOL    HW229751   8.134   7.958   3.115 -2.5112 -0.2393  1.2946
 6428SOL     OW29752   8.852   0.168   1.692 -0.0549  0.3394 -0.2020
 6428SOL    HW129753   8.796   0.227   1.632  0.8512  0.5362 -0.8671
 6428SOL    HW229754   8.943   0.157   1.651  0.0479 -0.8433  0.3480
 6429SOL     OW29755   0.176   8.396   0.616  0.0298  0.9277 -0.6595
 6429SOL    HW129756   0.221   8.391   0.705  1.4054  2.4494 -1.2396
 6429SOL    HW229757   0.108   8.469   0.617 -0.2291  0.6882 -0.7373
 6430SOL     OW29758   7.351   9.928   4.233  0.2020 -0.0761  0.4003
 6430SOL    HW129759   7.325   9.884   4.319  0.9193  0.2156  0.7749
 6430SOL    HW229760   7.446   9.904   4.210  0.6400  1.3330  0.6676
 6431SOL     OW29761   8.709   0.251   3.058 -0.3670  0.0532 -0.5149
 6431SOL    HW129762   8.751   0.317   3.121 -1.1528  1.4640 -1.4416
 6431SOL    HW229763   8.738   0.271   2.964 -0.3744 -1.1089 -0.7648
 6432SOL     OW29764   0.384   3.683   3.741 -0.1804 -0.4520 -0.4123
 6432SOL    HW129765   0.322   3.657   3.816  0.9054 -0.5328  0.4654
 6432SOL    HW229766   0.478   3.658   3.765  0.3782  0.8518 -1.1885
 6433SOL     OW29767   9.245   5.387   1.831  0.1559  0.7516  0.3034
 6433SOL    HW129768   9.267   5.296   1.796  0.9392  1.1866 -0.3391
 6433SOL    HW229769   9.173   5.379   1.900  0.5072 -0.4003  0.5519
 6434SOL     OW29770   2.485   4.453   1.989  0.0802  0.1943 -0.1609
 6434SOL    HW129771   2.558   4.450   2.058  0.1233 -0.0847 -0.2173
 6434SOL    HW229772   2.478   4.364   1.945 -0.2064  0.2609 -0.2494
 6435SOL     OW29773   6.088   7.606   2.444 -0.3876  0.1267  0.0683
 6435SOL    HW129774   6.096   7.516   2.486  0.8120 -0.1015 -0.6246
 6435SOL    HW229775   6.041   7.668   2.507  0.3272 -0.5211  1.2501
 6436SOL     OW29776   9.508   6.311   1.941  0.0133 -0.1725  0.3909
 6436SOL    HW129777   9.496   6.226   1.993 -0.3071 -0.3885 -0.0266
 6436SOL    HW229778   9.460   6.386   1.987 -0.5708 -0.4376  0.2184
 6437SOL     OW29779   0.705   0.558   2.030  0.0704 -0.2444  0.6046
 6437SOL    HW129780   0.742   0.480   2.080 -1.6893 -2.5931 -1.5867
 6437SOL    HW229781   0.779   0.614   1.995  1.4033 -1.5818  1.2422
 6438SOL     OW29782   3.020   8.784   1.851 -0.0944 -0.0236 -0.0584
 6438SOL    HW129783   2.929   8.824   1.845  0.4219  1.3469  1.1728
 6438SOL    HW229784   3.021   8.714   1.923  0.3784  1.4541  1.3757
 6439SOL     OW29785   7.840   5.947   2.060  0.3165  0.0916 -0.2666
 6439SOL    HW129786   7.827   5.999   1.975  2.0306  1.4434  0.2531
 6439SOL    HW229787   7.899   5.999   2.121 -0.3866 -1.1645  1.5120
 6440SOL     OW29788   1.903   0.398   4.394 -0.8768 -0.1404  0.7777
 6440SOL    HW129789   1.981   0.351   4.353 -1.1636 -0.3611  0.4686
 6440SOL    HW229790   1.927   0.432   4.485 -1.0387 -2.0274  1.5569
 6441SOL     OW29791   0.528   5.617   0.007 -0.1019  0.4919 -0.2687
 6441SOL    HW129792   0.531   5.653  -0.086  0.9237 -0.2416 -0.5215
 6441SOL    HW229793   0.436   5.631   0.045  0.2417  3.3157 -0.3625
 6442SOL     OW29794   1.694   9.559   2.640  0.0683 -0.2639  0.5034
 6442SOL    HW129795   1.688   9.633   2.573  0.3069 -1.8779 -1.3383
 6442SOL    HW229796   1.607   9.511   2.645 -0.1784  0.3160  1.9158
 6443SOL     OW29797   8.205   0.692   1.783  0.0177  0.1302  0.3247
 6443SOL    HW129798   8.119   0.716   1.737 -0.7819 -1.1164  1.1228
 6443SOL    HW229799   8.251   0.620   1.731 -0.0532 -0.0976  0.5788
 6444SOL     OW29800   3.076   5.218   0.589  0.2236 -0.3091 -0.2092
 6444SOL    HW129801   3.046   5.288   0.523 -0.1741 -1.5353 -1.3587
 6444SOL    HW229802   3.151   5.165   0.550 -1.7022 -2.7392 -0.7864
 6445SOL     OW29803   9.773   8.313   3.112  0.6200 -0.2872  0.7519
 6445SOL    HW129804   9.707   8.252   3.067  1.3062  0.3924 -1.2648
 6445SOL    HW229805   9.724   8.389   3.155 -0.0966 -1.1816  1.5380
 6446SOL     OW29806   2.470   3.506   2.057  1.2387  0.0785 -0.1477
 6446SOL    HW129807   2.524   3.487   2.139  1.6034 -0.8219 -0.5824
 6446SOL    HW229808   2.444   3.419   2.014  1.8539  0.5432 -1.4936
 6447SOL     OW29809   7.321   7.687   2.086 -0.4609  0.9451  0.5433
 6447SOL    HW129810   7.398   7.631   2.115  0.4733  1.4189 -0.9534
 6447SOL    HW229811   7.246   7.628   2.055  0.6547  0.5059 -1.3782
 6448SOL     OW29812   3.522   4.077   4.369 -0.1155 -0.2590  0.8552
 6448SOL    HW129813   3.598   4.141   4.378 -0.9321  0.6286  1.5318
 6448SOL    HW229814   3.499   4.039   4.459  0.1328 -1.2489  0.5149
 6449SOL     OW29815   8.777   9.189   2.987  0.2731  0.0263  0.3271
 6449SOL    HW129816   8.695   9.132   2.993  0.1997  0.1877  0.8387
 6449SOL    HW229817   8.857   9.130   2.974  0.1417 -0.1637  0.3830
 6450SOL     OW29818   2.499   6.243   1.015 -0.3021  0.2377 -0.4520
 6450SOL    HW129819   2.598   6.257   1.019 -0.1797 -0.6143 -0.2139
 6450SOL    HW229820   2.453   6.301   1.082  0.1451 -0.2472  0.2846
 6451SOL     OW29821   3.225   1.535   2.697  0.1813 -0.5616  0.3192
 6451SOL    HW129822   3.145   1.540   2.637 -1.1863 -1.9485  1.9573
 6451SOL    HW229823   3.301   1.492   2.648 -0.5187 -0.5408 -0.8045
 6452SOL     OW29824   2.428   3.199   2.702  0.6401 -0.0426  0.3075
 6452SOL    HW129825   2.361   3.273   2.699  1.4187  0.6288 -0.9584
 6452SOL    HW229826   2.403   3.129   2.635  1.3263  0.3300 -0.3467
 6453SOL     OW29827   7.102   8.143   1.879 -0.5275  0.3035 -0.0518
 6453SOL    HW129828   7.154   8.059   1.895  1.0165  1.2148 -0.1188
 6453SOL    HW229829   7.058   8.139   1.790 -2.2656 -1.3269  0.8535
 6454SOL     OW29830   0.381   9.075   0.285 -0.0768  0.1286 -0.0012
 6454SOL    HW129831   0.452   9.009   0.260  0.3059  0.8133 -0.7267
 6454SOL    HW229832   0.350   9.056   0.378  0.8455 -0.3555  0.2150
 6455SOL     OW29833   5.332   9.617   1.880 -0.0281 -0.2794  0.1532
 6455SOL    HW129834   5.427   9.609   1.911 -0.4987 -1.9589  1.2262
 6455SOL    HW229835   5.315   9.710   1.847  1.5001  0.5263  1.5977
 6456SOL     OW29836   5.377   8.300   3.151  0.1052  0.2548  0.2284
 6456SOL    HW129837   5.364   8.302   3.052 -0.7399 -0.2601  0.3230
 6456SOL    HW229838   5.474   8.292   3.172  0.2444 -0.1309 -0.5649
 6457SOL     OW29839   0.077   0.773   0.306 -0.0632  0.3046  0.0146
 6457SOL    HW129840  -0.021   0.759   0.295  0.1413 -0.8802 -0.3844
 6457SOL    HW229841   0.120   0.777   0.216  0.2926  0.5165  0.1940
 6458SOL     OW29842   1.686   2.789   3.995 -0.0722  0.0692  0.4027
 6458SOL    HW129843   1.690   2.861   3.925 -1.4917  0.0938  0.3402
 6458SOL    HW229844   1.754   2.719   3.973 -0.4496  0.1093 -0.9721
 6459SOL     OW29845   2.827   6.003   4.474  0.1061  0.6328 -0.0224
 6459SOL    HW129846   2.740   5.959   4.451 -0.3884  0.3178  2.2769
 6459SOL    HW229847   2.902   5.948   4.438 -0.5965 -0.1742 -0.2856
 6460SOL     OW29848   3.725   9.401   2.518 -0.5175 -0.6638 -0.0341
 6460SOL    HW129849   3.728   9.328   2.450  0.0839  0.4112 -1.1836
 6460SOL    HW229850   3.634   9.443   2.518 -0.4875 -0.6010 -0.2455
 6461SOL     OW29851   8.595   5.165   2.133  0.1328 -0.3934 -0.8798
 6461SOL    HW129852   8.627   5.172   2.227 -0.7688  1.2274 -0.6682
 6461SOL    HW229853   8.669   5.131   2.074  0.7930 -1.0971  0.3463
 6462SOL     OW29854   2.053   3.915   1.699 -0.0511  0.5243 -0.3230
 6462SOL    HW129855   1.965   3.897   1.743  0.1251  0.1831 -0.1034
 6462SOL    HW229856   2.069   3.847   1.626 -0.0579  0.7023 -0.4904
 6463SOL     OW29857   0.413   7.559   2.355 -0.2408  0.6979 -0.5004
 6463SOL    HW129858   0.372   7.473   2.325  0.1738 -0.2498  1.5910
 6463SOL    HW229859   0.479   7.541   2.429  1.1948  2.6061 -1.2690
 6464SOL     OW29860   2.064   6.487   2.582 -1.1431  0.0533  0.0423
 6464SOL    HW129861   2.023   6.578   2.589 -1.3310 -0.1280  1.4964
 6464SOL    HW229862   2.116   6.468   2.665 -0.4150 -0.8357 -0.6150
 6465SOL     OW29863   3.531   8.597   0.050 -0.5836 -0.3405 -0.0032
 6465SOL    HW129864   3.506   8.546  -0.033  0.4501 -2.2964  0.8692
 6465SOL    HW229865   3.618   8.563   0.085 -0.1876  1.6149  0.9682
 6466SOL     OW29866   1.039   4.512   0.416  0.4601  0.0667  0.6421
 6466SOL    HW129867   1.039   4.426   0.466  1.5149  0.4084  1.2541
 6466SOL    HW229868   1.124   4.522   0.366  1.2513  1.6596  2.2093
 6467SOL     OW29869   1.694   8.997   1.437 -0.1719 -0.5813  0.8407
 6467SOL    HW129870   1.681   9.089   1.400  4.8558  0.0990  0.3522
 6467SOL    HW229871   1.699   9.002   1.536 -0.2443 -0.3427  0.8335
 6468SOL     OW29872   0.912   3.771   3.005 -0.0802  0.3461 -0.0755
 6468SOL    HW129873   0.855   3.714   2.946  0.4602 -1.3409  0.9631
 6468SOL    HW229874   0.854   3.826   3.065 -0.6145  1.0470 -1.2260
 6469SOL     OW29875   1.444   3.886   0.280  0.3314  0.2608  0.1471
 6469SOL    HW129876   1.467   3.924   0.190 -0.1416  1.6794  0.5999
 6469SOL    HW229877   1.350   3.852   0.279 -0.2670  1.8609  0.5801
 6470SOL     OW29878   9.531   7.731   4.403  0.4119 -0.0330  0.3344
 6470SOL    HW129879   9.488   7.680   4.328  0.1881 -0.0569  0.4776
 6470SOL    HW229880   9.541   7.671   4.483  0.9681 -0.1061  0.2109
 6471SOL     OW29881   3.219   3.668   2.638  0.1643  0.0690 -0.4395
 6471SOL    HW129882   3.319   3.670   2.638  0.1720  1.2306  1.9398
 6471SOL    HW229883   3.185   3.729   2.566  1.1409 -0.4993 -1.4050
 6472SOL     OW29884   3.305   6.942   1.605 -0.2183 -0.0345  0.6066
 6472SOL    HW129885   3.352   6.979   1.685 -0.7282 -0.6757  1.2073
 6472SOL    HW229886   3.264   7.017   1.554  3.7548  0.8756 -1.4764
 6473SOL     OW29887   3.512   8.567   0.556  0.0832  0.5794  0.1381
 6473SOL    HW129888   3.451   8.487   0.551  1.4539 -0.3721 -1.7112
 6473SOL    HW229889   3.607   8.536   0.562  0.4947  2.0692  1.8483
 6474SOL     OW29890   3.764   7.032   3.924 -0.4780  0.0017 -0.3211
 6474SOL    HW129891   3.808   6.959   3.871 -1.3852  0.2071 -1.3783
 6474SOL    HW229892   3.799   7.120   3.894  0.2282  0.0355  0.5900
 6475SOL     OW29893   8.634   9.191   3.313 -0.4326  0.1652 -0.3377
 6475SOL    HW129894   8.612   9.288   3.302 -2.3824 -0.2936 -0.7502
 6475SOL    HW229895   8.658   9.172   3.408  0.0389  1.0570 -0.2748
 6476SOL     OW29896   1.779   5.597   0.341 -0.5284 -0.0094  0.5370
 6476SOL    HW129897   1.856   5.658   0.325 -0.8167  0.1263 -0.3352
 6476SOL    HW229898   1.813   5.508   0.374  0.2660 -1.1129 -3.1053
 6477SOL     OW29899   8.057   8.044   2.995  0.3890 -0.0814  0.0038
 6477SOL    HW129900   8.037   8.142   3.001 -0.5148 -0.3927  3.1233
 6477SOL    HW229901   7.974   7.995   2.967  0.3910 -0.0951  0.0185
 6478SOL     OW29902   1.246   3.621   3.599 -0.0309  0.7886  0.4055
 6478SOL    HW129903   1.219   3.706   3.644  0.3256  1.3068 -0.3545
 6478SOL    HW229904   1.345   3.611   3.602 -0.0909  0.2567  0.7409
 6479SOL     OW29905   8.954   7.240   4.418  0.4909 -0.1759  0.1193
 6479SOL    HW129906   8.972   7.301   4.341 -0.2008  1.2648  1.0756
 6479SOL    HW229907   9.032   7.241   4.481  1.2594 -1.7201 -0.7685
 6480SOL     OW29908   1.355   1.242   4.253  0.6660  0.0544 -0.3254
 6480SOL    HW129909   1.377   1.212   4.345  0.1953 -2.2317 -0.9186
 6480SOL    HW229910   1.258   1.263   4.247  0.8308  0.8630 -0.1208
 6481SOL     OW29911   1.090   3.266   1.945  0.1051  0.2883  0.0061
 6481SOL    HW129912   1.085   3.342   1.881 -0.0791  0.1974 -0.0908
 6481SOL    HW229913   1.001   3.220   1.948  0.1448  0.2276  0.2470
 6482SOL     OW29914   0.532   3.903   4.588 -0.1590 -0.8062  0.4175
 6482SOL    HW129915   0.495   3.864   4.672  0.3083 -0.6589  0.6936
 6482SOL    HW229916   0.517   4.002   4.587 -0.5490 -0.8653  0.1267
 6483SOL     OW29917   1.427   4.788   0.307  0.0863 -0.4050 -0.0962
 6483SOL    HW129918   1.481   4.713   0.344 -0.1777  0.1205  1.3935
 6483SOL    HW229919   1.479   4.835   0.236  1.0448 -0.7291  0.3835
 6484SOL     OW29920   3.733   7.910   4.697 -0.1538 -0.5481 -0.3422
 6484SOL    HW129921   3.782   7.985   4.654 -0.8041 -0.4777 -0.9713
 6484SOL    HW229922   3.657   7.881   4.638 -0.0283 -1.5647 -0.0197
 6485SOL     OW29923   9.994   6.913   4.276 -0.4644  0.5602  0.2147
 6485SOL    HW129924  10.072   6.853   4.294  1.0050  1.7508 -1.9997
 6485SOL    HW229925  10.010   7.002   4.320 -1.1549  0.3884  0.8110
 6486SOL     OW29926   0.359   5.577   1.537 -0.2799 -0.2152  0.2318
 6486SOL    HW129927   0.353   5.626   1.450 -0.0364 -0.7173 -0.0676
 6486SOL    HW229928   0.272   5.532   1.555 -1.0175  1.5259  1.2311
 6487SOL     OW29929   3.380   1.767   4.397 -0.1584  0.1545 -0.1659
 6487SOL    HW129930   3.301   1.766   4.336  0.9484  0.3324 -1.6580
 6487SOL    HW229931   3.464   1.778   4.342  0.8884  0.0639  1.3774
 6488SOL     OW29932   8.514   9.634   0.752 -0.3002 -0.4664  0.2772
 6488SOL    HW129933   8.472   9.645   0.842  1.3027  0.3287  0.9554
 6488SOL    HW229934   8.606   9.596   0.763 -0.4353 -1.2360 -1.1029
 6489SOL     OW29935   1.808   4.132   3.337 -0.1894  0.4631  0.5752
 6489SOL    HW129936   1.884   4.070   3.358 -0.3305  0.3564  0.7717
 6489SOL    HW229937   1.752   4.094   3.264  0.2649  0.8033  0.0425
 6490SOL     OW29938   2.799   9.139   4.223 -0.2567  0.4377  0.1200
 6490SOL    HW129939   2.755   9.204   4.286 -1.0628 -0.4327  0.4629
 6490SOL    HW229940   2.826   9.057   4.274  0.2309  0.2534 -0.4298
 6491SOL     OW29941   3.689   2.726   2.630  0.1410 -0.1744 -0.2592
 6491SOL    HW129942   3.645   2.808   2.592  0.4500 -0.3472 -0.9915
 6491SOL    HW229943   3.773   2.707   2.579  0.7622 -0.1871  0.7628
 6492SOL     OW29944   1.256   0.525   1.299 -0.4735 -0.1735  0.5283
 6492SOL    HW129945   1.257   0.449   1.235  0.2262  1.3626 -1.3366
 6492SOL    HW229946   1.303   0.499   1.383  0.7033 -1.4478 -0.5037
 6493SOL     OW29947   2.667   6.237   3.057 -0.2992 -0.7853 -0.0195
 6493SOL    HW129948   2.673   6.327   3.013 -0.2778 -0.5984  0.3650
 6493SOL    HW229949   2.701   6.167   2.994  0.5832 -0.4099  0.0430
 6494SOL     OW29950   9.717   0.418   4.034 -0.4905 -0.8356  0.5973
 6494SOL    HW129951   9.761   0.350   3.974  0.3030  0.8913 -0.8414
 6494SOL    HW229952   9.621   0.428   4.007 -0.4587 -0.9596  0.4320
 6495SOL     OW29953   4.125   2.973   0.468 -0.1765  0.5178  0.1068
 6495SOL    HW129954   4.108   2.931   0.557 -0.0085 -1.0544 -0.6050
 6495SOL    HW229955   4.087   3.066   0.468 -1.5679 -0.0374  1.2743
 6496SOL     OW29956   2.633   8.527   2.712 -0.0771  0.2804  0.2317
 6496SOL    HW129957   2.580   8.504   2.794 -0.8889  0.0528 -0.3486
 6496SOL    HW229958   2.710   8.464   2.704 -0.1831  0.0938  0.6431
 6497SOL     OW29959   5.115   9.927   3.699 -0.2026 -0.0116  0.5076
 6497SOL    HW129960   5.190   9.991   3.679  0.4299 -0.6109  0.9234
 6497SOL    HW229961   5.074   9.896   3.614  1.1760 -1.0234  0.1954
 6498SOL     OW29962   1.792   1.676   4.124 -0.0219  0.0707 -0.5172
 6498SOL    HW129963   1.843   1.686   4.209 -1.7895 -0.2393  0.6090
 6498SOL    HW229964   1.802   1.582   4.089  2.0447  0.6451 -1.5656
 6499SOL     OW29965   0.434   7.836   2.391 -0.7422 -0.4705 -0.0097
 6499SOL    HW129966   0.410   7.740   2.375  0.1117 -0.5874 -0.5978
 6499SOL    HW229967   0.514   7.840   2.451  0.0414 -0.1514 -1.0759
 6500SOL     OW29968   6.667   8.401   2.956 -0.4505 -0.8676  0.0108
 6500SOL    HW129969   6.673   8.336   2.881 -0.3852  0.9659 -1.6137
 6500SOL    HW229970   6.576   8.395   2.997 -0.9903 -0.8786 -1.1621
 6501SOL     OW29971   3.234   1.903   1.986 -0.4943 -0.4445 -0.5325
 6501SOL    HW129972   3.171   1.978   2.006  0.1527 -0.1055  0.2331
 6501SOL    HW229973   3.328   1.934   1.999 -0.1480 -0.9187 -1.7622
 6502SOL     OW29974   8.098   6.098   1.827  0.8798 -0.0339  0.4003
 6502SOL    HW129975   8.139   6.032   1.764  0.7378 -0.0649  0.3400
 6502SOL    HW229976   7.999   6.089   1.824  0.7997  0.9055 -0.4135
 6503SOL     OW29977   2.364   3.138   3.595 -0.1813  0.0115 -0.9653
 6503SOL    HW129978   2.377   3.096   3.505 -0.5373 -0.0840 -0.9754
 6503SOL    HW229979   2.266   3.152   3.610 -0.2154 -1.1931 -0.0302
 6504SOL     OW29980   0.000   0.583   1.774 -0.0895 -0.0197  0.0522
 6504SOL    HW129981  -0.045   0.599   1.862 -0.4634  0.2970 -0.1997
 6504SOL    HW229982   0.099   0.573   1.789 -0.2499 -0.8970  0.6281
 6505SOL     OW29983   2.808   7.613   0.782 -0.0726 -0.1802 -0.2833
 6505SOL    HW129984   2.868   7.549   0.735 -0.7793 -1.3158  0.3518
 6505SOL    HW229985   2.772   7.679   0.716 -0.3270 -1.1994 -1.1816
 6506SOL     OW29986   3.590   8.500   4.347 -0.2724  0.1972 -0.1756
 6506SOL    HW129987   3.525   8.573   4.326  1.2877  1.3209 -1.1319
 6506SOL    HW229988   3.559   8.415   4.304 -1.0091  0.7645 -0.7771
 6507SOL     OW29989   1.648   7.084   0.339  0.0098 -0.3716  0.2523
 6507SOL    HW129990   1.565   7.048   0.381  1.6118 -1.8759  2.2523
 6507SOL    HW229991   1.655   7.182   0.358 -1.5908 -0.1026 -0.4685
 6508SOL     OW29992   1.346   0.821   3.738  0.0860 -0.3582 -0.2806
 6508SOL    HW129993   1.288   0.788   3.664 -0.5255  0.2007 -0.0630
 6508SOL    HW229994   1.329   0.767   3.821  0.2801 -0.5539 -0.3699
 6509SOL     OW29995   3.557   8.412   3.642 -0.4964  0.2707 -0.6141
 6509SOL    HW129996   3.629   8.351   3.610  0.0245  0.9342 -0.7347
 6509SOL    HW229997   3.595   8.476   3.709 -1.4408 -0.7037  0.8843
 6510SOL     OW29998   0.373   7.418   4.068 -0.2822  0.2321  0.0453
 6510SOL    HW129999   0.460   7.427   4.019 -0.7149  1.0374 -0.5938
 6510SOL    HW230000   0.372   7.482   4.145 -0.6701  0.8677 -0.4877
 6511SOL     OW30001   2.798   4.079   1.149  0.1047 -0.7229  0.0571
 6511SOL    HW130002   2.845   4.163   1.124 -1.1528 -0.4438 -1.4579
 6511SOL    HW230003   2.790   4.074   1.249  1.1874  0.3897  0.2135
 6512SOL     OW30004   3.168   3.778   2.868  0.2521 -0.0416 -0.7985
 6512SOL    HW130005   3.089   3.836   2.849 -0.7872 -1.1902 -0.1020
 6512SOL    HW230006   3.186   3.719   2.790 -0.4964 -0.7898 -0.4204
 6513SOL     OW30007   9.333   5.820   4.039  0.0066 -0.2957  0.3853
 6513SOL    HW130008   9.267   5.893   4.052 -0.0529 -0.1508 -0.7165
 6513SOL    HW230009   9.420   5.846   4.082 -0.1719  0.1812  0.4606
 6514SOL     OW30010   0.268   8.507   1.668  0.1848 -0.0984  0.2882
 6514SOL    HW130011   0.354   8.498   1.719  0.6222  0.9829 -0.2428
 6514SOL    HW230012   0.198   8.545   1.728  0.4448  0.2927  0.3477
 6515SOL     OW30013   6.038   9.963   1.581  0.6915  0.6615  0.1278
 6515SOL    HW130014   6.122   9.992   1.535 -0.1923  1.3314 -1.0908
 6515SOL    HW230015   5.980   9.913   1.517  0.9250 -1.3475  1.4458
 6516SOL     OW30016   0.134   0.283   3.206 -0.1550  0.3216  0.4443
 6516SOL    HW130017   0.171   0.233   3.128  0.4923 -0.4302  1.2213
 6516SOL    HW230018   0.122   0.379   3.182  0.2206  0.1311 -0.5191
 6517SOL     OW30019   3.506   0.343   2.754 -0.0257 -0.0210  0.0568
 6517SOL    HW130020   3.427   0.282   2.760  0.1404 -0.4987 -2.2800
 6517SOL    HW230021   3.481   0.426   2.704  0.9578 -0.2357 -0.8220
 6518SOL     OW30022   8.792   0.330   1.927  0.1343  0.1620  0.1045
 6518SOL    HW130023   8.718   0.387   1.892  0.7483  0.1417 -1.2563
 6518SOL    HW230024   8.763   0.234   1.927  0.6114 -0.0085 -1.7273
 6519SOL     OW30025   1.476   8.704   0.781 -0.3183 -0.6986  0.2063
 6519SOL    HW130026   1.398   8.728   0.723  0.1803  2.2676  0.6704
 6519SOL    HW230027   1.478   8.764   0.861  1.0133 -2.4256  1.5212
 6520SOL     OW30028   3.266   0.475   3.035  0.1221  0.2720 -0.0036
 6520SOL    HW130029   3.351   0.442   3.076 -0.2790  0.4005  0.9316
 6520SOL    HW230030   3.194   0.407   3.046  0.1239  0.1137 -0.9006
 6521SOL     OW30031   8.788   6.652   3.405 -0.2497  0.0871 -0.5821
 6521SOL    HW130032   8.791   6.688   3.498 -0.1247  0.5089 -0.7511
 6521SOL    HW230033   8.699   6.608   3.389 -0.5122  0.5843 -0.4834
 6522SOL     OW30034   9.262   0.038   0.783 -0.5226 -0.1828  0.1580
 6522SOL    HW130035   9.307   0.098   0.848 -1.2832 -0.6093  1.0911
 6522SOL    HW230036   9.163   0.056   0.784 -0.6801 -1.0296  0.0139
 6523SOL     OW30037   3.931   3.703   1.514 -0.2721 -0.0398 -0.2405
 6523SOL    HW130038   3.980   3.618   1.529 -2.4209 -1.1011  1.0507
 6523SOL    HW230039   3.948   3.766   1.590  1.2162  0.6613 -1.1337
 6524SOL     OW30040   4.346   0.860   4.602  0.0060  0.5050  0.0771
 6524SOL    HW130041   4.442   0.843   4.578 -0.1605 -0.7538  0.2777
 6524SOL    HW230042   4.340   0.945   4.655  0.7413  1.7243 -1.7448
 6525SOL     OW30043   9.792   5.706   1.096 -0.5599  0.5121 -0.6793
 6525SOL    HW130044   9.870   5.761   1.125 -1.7846  1.9833 -0.0479
 6525SOL    HW230045   9.773   5.724   0.999  0.3253 -0.4163 -1.0336
 6526SOL     OW30046   8.333   0.486   1.654 -0.2039 -0.2006 -0.3104
 6526SOL    HW130047   8.282   0.419   1.708 -0.7875  1.0600  0.7213
 6526SOL    HW230048   8.349   0.449   1.562  1.6125 -2.7622  0.9557
 6527SOL     OW30049   9.461   6.986   1.196 -0.7987  0.0793  0.0858
 6527SOL    HW130050   9.521   7.055   1.156 -0.8437  1.0581  1.6451
 6527SOL    HW230051   9.516   6.914   1.238 -0.7324 -0.1813 -0.4556
 6528SOL     OW30052   8.428   0.226   3.146  0.3163  0.0240 -0.8882
 6528SOL    HW130053   8.370   0.264   3.073 -0.0910  0.3756 -0.3902
 6528SOL    HW230054   8.524   0.229   3.117  0.0724 -0.6773 -1.7677
 6529SOL     OW30055   0.408   5.356   4.573  0.2515  0.0665 -0.1294
 6529SOL    HW130056   0.401   5.455   4.586 -0.0890  0.0211  0.0174
 6529SOL    HW230057   0.354   5.309   4.642  0.5085 -0.2275 -0.1251
 6530SOL     OW30058   0.225   6.291   4.756 -0.2181 -0.6880  0.2558
 6530SOL    HW130059   0.218   6.339   4.668 -2.2643 -1.8839 -0.2639
 6530SOL    HW230060   0.218   6.358   4.830 -0.1619  0.1468 -0.4771
 6531SOL     OW30061   3.881   1.674   4.486  0.2064  0.3102  0.0116
 6531SOL    HW130062   3.923   1.760   4.457  0.4940 -0.0923 -0.7531
 6531SOL    HW230063   3.851   1.623   4.406  2.5383 -1.6017  0.3116
 6532SOL     OW30064   9.527   0.436   2.999  0.3777 -0.5214 -0.0733
 6532SOL    HW130065   9.478   0.520   2.974  1.3591  0.1165  0.1201
 6532SOL    HW230066   9.582   0.405   2.921  0.4827 -0.6475  0.0508
 6533SOL     OW30067   3.604   3.269   3.651 -0.7026  0.1478 -0.2608
 6533SOL    HW130068   3.654   3.292   3.734 -0.0415  1.9197 -1.1195
 6533SOL    HW230069   3.577   3.353   3.603 -2.0858 -0.8211 -1.2483
 6534SOL     OW30070   0.727   6.107   4.230  0.1775 -0.0107 -0.1696
 6534SOL    HW130071   0.814   6.147   4.199 -0.2806  1.8973  0.9253
 6534SOL    HW230072   0.652   6.146   4.178 -0.5898  3.1188  3.0836
 6535SOL     OW30073   1.283   3.874   3.701  0.6769 -0.4907  0.5480
 6535SOL    HW130074   1.293   3.846   3.797 -0.1541  2.4987  1.5341
 6535SOL    HW230075   1.373   3.894   3.663  0.9957 -1.5612  0.6994
 6536SOL     OW30076   3.694   9.038   0.997 -0.4581  0.2090  0.1484
 6536SOL    HW130077   3.638   9.120   1.010 -1.4248 -0.7497  2.0877
 6536SOL    HW230078   3.790   9.065   0.988 -1.1551  1.8772 -3.2806
 6537SOL     OW30079   8.545   6.271   4.514 -0.8262 -0.1666 -0.0104
 6537SOL    HW130080   8.586   6.217   4.441  0.3927  0.9082 -0.1240
 6537SOL    HW230081   8.589   6.360   4.519 -2.1051  0.4374  0.8767
 6538SOL     OW30082   9.241   5.330   2.226  0.3120 -0.5681  0.3589
 6538SOL    HW130083   9.201   5.344   2.317 -0.1454  1.4497 -0.1321
 6538SOL    HW230084   9.340   5.316   2.235  0.6616  2.0497  1.0207
 6539SOL     OW30085   0.500   3.555   1.400  0.4905 -0.2232 -0.7959
 6539SOL    HW130086   0.520   3.544   1.302  2.0728  0.9679 -0.6212
 6539SOL    HW230087   0.578   3.524   1.453  0.1277  0.3389  0.0630
 6540SOL     OW30088   7.342   9.507   4.514 -0.1225  0.2612 -0.0562
 6540SOL    HW130089   7.298   9.424   4.480 -1.1936  0.6564  0.3494
 6540SOL    HW230090   7.276   9.561   4.566 -0.3770  3.0398 -3.1167
 6541SOL     OW30091   4.916   8.509   3.586  0.0025  0.0310  0.2881
 6541SOL    HW130092   4.977   8.536   3.661 -0.9073  2.0496  0.3220
 6541SOL    HW230093   4.924   8.574   3.511  0.6770 -1.8105 -1.2763
 6542SOL     OW30094   9.758   5.673   1.904 -0.2131  0.1632 -0.3164
 6542SOL    HW130095   9.853   5.703   1.914  0.1038 -0.6468 -0.8920
 6542SOL    HW230096   9.727   5.691   1.811 -0.4290 -0.1376 -0.3022
 6543SOL     OW30097   0.007   7.672   4.170  0.2421  0.3039  0.4273
 6543SOL    HW130098  -0.049   7.728   4.231  0.4307  0.2645  0.6337
 6543SOL    HW230099  -0.031   7.677   4.077 -0.7364 -0.5766  0.7717
 6544SOL     OW30100   0.752   5.601   3.669  0.0075 -0.1467 -0.0219
 6544SOL    HW130101   0.809   5.683   3.674 -0.0499  0.0071 -1.5515
 6544SOL    HW230102   0.658   5.627   3.647 -0.1234 -0.5863  0.0092
 6545SOL     OW30103   3.747   4.201   4.401 -0.2196  0.2777  0.4627
 6545SOL    HW130104   3.804   4.173   4.324 -0.0281 -0.7122  0.9656
 6545SOL    HW230105   3.801   4.258   4.464  0.2070 -0.5911  0.8973
 6546SOL     OW30106   9.851   9.289   2.204  0.0935 -0.4268  0.3106
 6546SOL    HW130107   9.781   9.221   2.184 -2.5037  2.2423 -0.0575
 6546SOL    HW230108   9.814   9.359   2.266  2.3195  1.2307 -0.1303
 6547SOL     OW30109   2.652   0.702   4.248 -0.1205  0.2629  0.3940
 6547SOL    HW130110   2.638   0.785   4.302 -1.5230  0.0247  0.4117
 6547SOL    HW230111   2.609   0.625   4.295  0.2688 -0.2827 -0.1469
 6548SOL     OW30112   0.758   7.029   3.168 -0.0223  0.2341  0.7245
 6548SOL    HW130113   0.686   7.084   3.126  1.4305  0.1915 -1.8977
 6548SOL    HW230114   0.760   7.047   3.267 -2.1454  1.8889  0.5040
 6549SOL     OW30115   3.856   0.581   1.796 -0.1536 -0.0050  0.0059
 6549SOL    HW130116   3.845   0.646   1.720 -2.0964  0.3054  0.5105
 6549SOL    HW230117   3.805   0.497   1.775  2.0917 -1.2659 -0.5050
 6550SOL     OW30118   2.930   1.861   1.696 -0.1935  0.2699  0.9414
 6550SOL    HW130119   2.917   1.921   1.774 -0.5194  1.3310  0.0841
 6550SOL    HW230120   2.880   1.776   1.710  0.2454  0.2033  2.1465
 6551SOL     OW30121   8.745   7.302   4.585 -0.2021  0.3054 -0.3225
 6551SOL    HW130122   8.811   7.268   4.518 -0.1171  1.7642 -0.9992
 6551SOL    HW230123   8.654   7.264   4.565  0.0326 -0.1095 -0.6029
 6552SOL     OW30124   7.471   0.267   2.246 -0.7170  0.7058  0.2509
 6552SOL    HW130125   7.498   0.186   2.298 -1.5365  1.2926  1.6062
 6552SOL    HW230126   7.371   0.275   2.247 -0.6583  1.5451 -0.1630
 6553SOL     OW30127   2.794   7.152   1.303  0.3992  0.3581  0.0371
 6553SOL    HW130128   2.865   7.187   1.242 -0.9309 -0.0996 -1.8209
 6553SOL    HW230129   2.790   7.207   1.386  1.5716  1.5966 -0.7233
 6554SOL     OW30130   0.856   6.306   3.509 -0.0714  0.3216 -0.1283
 6554SOL    HW130131   0.930   6.322   3.574  1.6513 -2.2440 -1.3750
 6554SOL    HW230132   0.860   6.375   3.436 -0.2074  1.4263  0.9019
 6555SOL     OW30133   2.050   0.652   4.073 -0.1068  0.0295 -0.1771
 6555SOL    HW130134   2.056   0.729   4.009  1.0271  1.0320  1.1160
 6555SOL    HW230135   2.002   0.576   4.029 -0.1610  1.0356 -1.8946
 6556SOL     OW30136   3.272   9.533   3.842 -0.4596  0.5634 -0.4600
 6556SOL    HW130137   3.320   9.509   3.926 -0.0409  1.7923 -0.3413
 6556SOL    HW230138   3.291   9.464   3.772 -0.2256 -0.0770  0.2275
 6557SOL     OW30139   0.866   4.234   1.184 -0.4140  0.2815  0.0943
 6557SOL    HW130140   0.929   4.276   1.119  2.1163  0.8456  2.7974
 6557SOL    HW230141   0.816   4.306   1.233 -0.2388 -0.0162  0.7212
 6558SOL     OW30142   0.430   9.790   1.629  0.3714  0.2757 -0.4012
 6558SOL    HW130143   0.467   9.868   1.577  2.0428 -1.3196 -1.6549
 6558SOL    HW230144   0.437   9.809   1.727  0.0972  1.9999 -0.6965
 6559SOL     OW30145   1.924   5.522   2.079  0.0446  0.4408  0.2154
 6559SOL    HW130146   1.960   5.556   1.992  0.3655 -0.4341  0.0006
 6559SOL    HW230147   1.872   5.438   2.064  1.9394 -0.9545  1.1096
 6560SOL     OW30148   9.935   2.114   1.576 -0.0791  0.1673  0.4009
 6560SOL    HW130149   9.995   2.093   1.499 -2.5055  0.0999 -1.5380
 6560SOL    HW230150   9.964   2.200   1.619  0.8408  0.6159 -1.0885
 6561SOL     OW30151   4.439   7.484   2.650 -0.0802  0.0983  0.1196
 6561SOL    HW130152   4.502   7.425   2.701 -1.3291  0.0274  1.6016
 6561SOL    HW230153   4.463   7.580   2.667 -1.7080  0.1218  2.4505
 6562SOL     OW30154   9.094   8.838   1.317  0.3052  0.4451 -0.7837
 6562SOL    HW130155   9.150   8.766   1.276  1.3205  0.9789 -0.3522
 6562SOL    HW230156   9.086   8.823   1.415 -1.1641 -0.1837 -0.9824
 6563SOL     OW30157   3.297   8.388   0.553  0.5629 -0.4852 -0.3528
 6563SOL    HW130158   3.304   8.347   0.463  1.6572  1.5632 -1.2367
 6563SOL    HW230159   3.208   8.366   0.593 -2.0369  2.6501 -4.0192
 6564SOL     OW30160   3.374   2.780   0.625  0.1220  0.3609 -0.3602
 6564SOL    HW130161   3.432   2.701   0.605 -0.8299  0.1606 -2.6066
 6564SOL    HW230162   3.303   2.753   0.690 -0.6813 -0.8914 -1.7145
 6565SOL     OW30163   4.884   9.607   2.607  0.2580  0.6627 -0.0837
 6565SOL    HW130164   4.827   9.667   2.550 -0.5833  1.0087  1.1091
 6565SOL    HW230165   4.866   9.625   2.704  1.2142 -0.3624  0.3009
 6566SOL     OW30166   8.236   9.957   1.549  0.1070  0.0883 -0.6725
 6566SOL    HW130167   8.229   9.907   1.635 -0.6767  0.9792 -0.2138
 6566SOL    HW230168   8.331   9.953   1.516  0.2650 -0.8331 -0.1253
 6567SOL     OW30169   3.636   2.006   4.311  0.0378  0.2738 -0.0005
 6567SOL    HW130170   3.608   1.915   4.341 -0.2083  0.4773  0.3949
 6567SOL    HW230171   3.678   2.000   4.221 -0.2824 -0.1878 -0.1189
 6568SOL     OW30172   0.570   5.615   0.389  0.4047  0.4019 -0.2445
 6568SOL    HW130173   0.639   5.613   0.461  1.0284 -0.6445 -0.8555
 6568SOL    HW230174   0.602   5.672   0.313 -0.1422  1.2984  0.1917
 6569SOL     OW30175   7.018   9.540   0.589 -0.1676 -0.0106  0.3388
 6569SOL    HW130176   6.931   9.490   0.591  0.1394 -0.8698 -3.4768
 6569SOL    HW230177   7.001   9.637   0.609 -2.2224  0.0764 -1.6062
 6570SOL     OW30178   0.850   3.155   3.888  0.0145 -1.0774  0.3227
 6570SOL    HW130179   0.873   3.182   3.982 -0.5593 -0.9497  0.4254
 6570SOL    HW230180   0.930   3.169   3.829 -0.2116  0.6563  0.4107
 6571SOL     OW30181   8.954   0.324   0.349  0.0050 -0.5572 -0.1942
 6571SOL    HW130182   8.979   0.251   0.286  1.2645  0.0317 -0.3988
 6571SOL    HW230183   9.028   0.338   0.415  0.6816  1.8543 -1.3915
 6572SOL     OW30184   1.156   4.520   1.882  0.3056 -0.1036  0.4729
 6572SOL    HW130185   1.184   4.606   1.924 -2.5586  1.4257 -0.5737
 6572SOL    HW230186   1.123   4.457   1.952 -0.6193  0.8757  0.9208
 6573SOL     OW30187   4.377   2.057   1.806  0.1427  0.1086  0.3165
 6573SOL    HW130188   4.423   2.127   1.861 -1.2253  0.3087  1.2228
 6573SOL    HW230189   4.373   1.971   1.857  0.9086 -0.3491 -0.3886
 6574SOL     OW30190   4.540   3.109   2.280  0.1078  0.5357 -0.3939
 6574SOL    HW130191   4.599   3.038   2.318 -0.8807  0.7679  1.6628
 6574SOL    HW230192   4.501   3.077   2.194 -0.8903 -1.7586  0.8508
 6575SOL     OW30193   9.693   9.750   3.581 -0.6484 -0.4205 -0.2049
 6575SOL    HW130194   9.738   9.671   3.539  0.0374 -1.4235  2.3523
 6575SOL    HW230195   9.762   9.816   3.610 -1.1173  0.2326 -0.5563
 6576SOL     OW30196   2.702   5.085   2.755  0.2917 -0.6272  0.2030
 6576SOL    HW130197   2.607   5.116   2.764 -0.5867 -2.8191 -1.0617
 6576SOL    HW230198   2.735   5.051   2.843 -0.4680 -0.8422  0.4092
 6577SOL     OW30199   0.610   4.658   3.159  0.1096 -0.2099  0.0287
 6577SOL    HW130200   0.545   4.709   3.215  0.1995 -1.5231  1.3512
 6577SOL    HW230201   0.615   4.700   3.068 -0.5962  1.4858  0.7512
 6578SOL     OW30202   4.318   1.004   2.675  0.6034  0.0409 -1.1138
 6578SOL    HW130203   4.370   1.088   2.664  2.1737 -0.9951 -1.7660
 6578SOL    HW230204   4.289   0.970   2.585 -0.2552  0.0305 -0.8354
 6579SOL     OW30205   3.245   0.676   4.667  0.2353  0.2304 -0.3085
 6579SOL    HW130206   3.208   0.694   4.576 -3.1279 -1.4868  0.6634
 6579SOL    HW230207   3.189   0.721   4.736  2.3094  0.8890  1.0152
 6580SOL     OW30208   2.536   5.600   4.634  1.0531 -0.1095  0.5640
 6580SOL    HW130209   2.512   5.621   4.729 -0.4069 -0.3379  0.2641
 6580SOL    HW230210   2.476   5.527   4.600  0.9941  0.5531 -0.7904
 6581SOL     OW30211   1.469   3.563   0.155 -0.0208  0.6759 -0.1590
 6581SOL    HW130212   1.560   3.586   0.121  0.0927  0.7468  0.1832
 6581SOL    HW230213   1.470   3.566   0.255 -0.4898  1.0408 -0.1616
 6582SOL     OW30214   8.649   7.452   0.969  0.0811  0.0283  0.5135
 6582SOL    HW130215   8.736   7.404   0.983 -0.0201 -0.3576 -0.1830
 6582SOL    HW230216   8.624   7.449   0.872 -0.4867  0.5269  0.6392
 6583SOL     OW30217   4.796   1.427   2.486  0.0704  0.1751  0.3785
 6583SOL    HW130218   4.833   1.456   2.398 -0.5189  0.3763  0.1935
 6583SOL    HW230219   4.835   1.339   2.511  0.9433  0.5565  0.3590
 6584SOL     OW30220   9.197   7.843   0.819 -0.1641 -0.1054 -0.1018
 6584SOL    HW130221   9.116   7.857   0.763  0.2892 -0.3102 -0.8250
 6584SOL    HW230222   9.170   7.824   0.913 -0.9705 -0.5877 -0.4252
 6585SOL     OW30223   8.578   5.972   1.700 -0.0141 -0.2990 -0.9642
 6585SOL    HW130224   8.508   5.939   1.637 -0.2475  0.5769 -1.1814
 6585SOL    HW230225   8.621   6.054   1.661  1.0851 -0.7860 -0.7999
 6586SOL     OW30226   9.215   0.204   4.109 -0.5315  0.1567 -0.2123
 6586SOL    HW130227   9.266   0.246   4.185 -0.8776  0.3130 -0.0638
 6586SOL    HW230228   9.177   0.117   4.139  3.7099 -2.3650 -1.7639
 6587SOL     OW30229   4.222   6.645   2.543 -0.1832  0.3266 -0.3162
 6587SOL    HW130230   4.123   6.638   2.534 -0.2889  2.3144 -0.9017
 6587SOL    HW230231   4.245   6.651   2.640 -0.4980 -1.6657 -0.0949
 6588SOL     OW30232   2.663   0.570   0.564 -1.1465 -0.3197 -0.3526
 6588SOL    HW130233   2.700   0.564   0.656  0.5163  0.8305 -0.9149
 6588SOL    HW230234   2.660   0.666   0.535 -0.3697 -0.7571 -1.9805
 6589SOL     OW30235   1.508   5.316   1.871 -0.1379  0.7919 -0.7784
 6589SOL    HW130236   1.416   5.352   1.878 -1.1678 -1.7194 -0.6924
 6589SOL    HW230237   1.573   5.391   1.861 -1.8958  2.7708  1.9478
 6590SOL     OW30238   3.782   3.748   3.225  0.3684 -0.0538 -0.1098
 6590SOL    HW130239   3.811   3.666   3.274  1.4188  0.3551 -0.0255
 6590SOL    HW230240   3.710   3.794   3.277 -0.2742 -0.9629 -0.1974
 6591SOL     OW30241   2.153   9.417   1.636  0.3415  0.3986 -0.0149
 6591SOL    HW130242   2.170   9.500   1.584  0.0881  1.2688  1.2898
 6591SOL    HW230243   2.240   9.380   1.669  0.2631  1.3434  1.2502
 6592SOL     OW30244   2.154   3.254   1.549 -0.0919  0.1938 -0.7918
 6592SOL    HW130245   2.083   3.323   1.562 -0.0707  0.2896 -1.2006
 6592SOL    HW230246   2.143   3.182   1.618  0.4001  1.0309  0.1771
 6593SOL     OW30247   1.517   0.822   3.405 -0.0566 -0.3990  0.2103
 6593SOL    HW130248   1.585   0.836   3.333  2.0295 -2.5305  1.6771
 6593SOL    HW230249   1.501   0.908   3.453 -3.6945  1.8161 -4.5408
 6594SOL     OW30250   1.524   1.493   4.433 -0.6579  1.0333  0.3381
 6594SOL    HW130251   1.508   1.470   4.337  1.5061 -1.7198  0.5870
 6594SOL    HW230252   1.449   1.458   4.489 -2.2658  3.2211 -0.3573
 6595SOL     OW30253   4.987   7.195   2.540  0.5204 -0.6171  0.6703
 6595SOL    HW130254   4.911   7.251   2.573  0.1698 -1.5777  1.5598
 6595SOL    HW230255   5.007   7.217   2.445 -1.0234 -0.5153  0.3651
 6596SOL     OW30256   4.618   9.699   1.483 -0.5388 -0.1549  0.2231
 6596SOL    HW130257   4.538   9.676   1.427 -1.7875 -1.1160  2.3327
 6596SOL    HW230258   4.644   9.794   1.467 -1.7675  0.0072 -0.9003
 6597SOL     OW30259   8.258   6.816   3.074 -0.2371 -0.4581  0.1790
 6597SOL    HW130260   8.165   6.851   3.064 -0.0974  0.0901  0.6928
 6597SOL    HW230261   8.264   6.723   3.040 -0.5084  0.1927 -1.7065
 6598SOL     OW30262   0.109   3.698   1.484 -0.0993  0.5848  0.2419
 6598SOL    HW130263   0.140   3.603   1.474  0.0789  0.7793 -1.0487
 6598SOL    HW230264   0.146   3.735   1.569 -0.1322 -0.4900  0.7379
 6599SOL     OW30265   0.757   4.665   0.272 -0.4411 -0.3817  0.3752
 6599SOL    HW130266   0.819   4.614   0.332 -1.3288 -0.6728  1.0774
 6599SOL    HW230267   0.706   4.601   0.215 -1.1798 -0.2603  0.8849
 6600SOL     OW30268   0.000   6.204   2.839 -0.1909  0.0115 -0.3109
 6600SOL    HW130269  -0.028   6.120   2.884 -0.7790  0.7155  0.6685
 6600SOL    HW230270   0.066   6.252   2.898 -2.5427  1.9688  0.8083
 6601SOL     OW30271   3.387   3.392   3.987  0.8149  0.2390 -0.0187
 6601SOL    HW130272   3.373   3.491   3.992  2.3962  0.6542 -2.6484
 6601SOL    HW230273   3.478   3.373   3.951  0.8019 -2.1992  1.1403
 6602SOL     OW30274   5.720   7.509   2.585 -0.0947 -0.4670  0.6113
 6602SOL    HW130275   5.760   7.597   2.559  0.0672 -0.4233  1.0049
 6602SOL    HW230276   5.680   7.466   2.504 -2.0348  0.9257  0.7733
 6603SOL     OW30277   3.367   9.570   4.263 -0.3452  0.1810  0.0806
 6603SOL    HW130278   3.331   9.639   4.200 -1.1985 -0.9122 -0.6273
 6603SOL    HW230279   3.309   9.565   4.344  1.2013  2.1614  1.3661
 6604SOL     OW30280   9.868   9.028   2.887 -0.5096  0.1276  0.1625
 6604SOL    HW130281   9.890   9.094   2.816 -0.4913 -0.1809 -0.1174
 6604SOL    HW230282   9.951   8.982   2.918 -0.5922 -0.1384 -0.0106
 6605SOL     OW30283   2.502   2.309   3.354 -0.0346  0.5927  0.3325
 6605SOL    HW130284   2.492   2.228   3.296  2.2542  0.4193  0.1022
 6605SOL    HW230285   2.559   2.377   3.307 -1.1897  1.9712  0.8894
 6606SOL     OW30286   1.114   9.020   0.983 -0.1894 -0.5922  0.2014
 6606SOL    HW130287   1.140   9.107   0.941  0.2081 -1.6240 -1.7685
 6606SOL    HW230288   1.162   9.010   1.070  1.5903  0.1146 -0.6599
 6607SOL     OW30289   0.886   8.634   3.179 -0.0727 -0.1072  0.0750
 6607SOL    HW130290   0.940   8.616   3.097  0.5058  0.9293  0.2091
 6607SOL    HW230291   0.928   8.589   3.257  0.9723  1.1895  0.2877
 6608SOL     OW30292   0.518   5.894   4.627  0.4381 -0.1539 -0.4957
 6608SOL    HW130293   0.589   5.954   4.589  1.2045 -1.1395 -0.6509
 6608SOL    HW230294   0.474   5.940   4.704  0.7346  0.7645 -0.8580
 6609SOL     OW30295   8.120   6.365   1.291  0.5949  0.1824  0.4511
 6609SOL    HW130296   8.065   6.288   1.325 -0.5076  1.1629  0.8931
 6609SOL    HW230297   8.202   6.373   1.348  1.0205 -1.0420  0.0321
 6610SOL     OW30298   3.487   7.654   0.485  0.2663 -0.0013  0.3765
 6610SOL    HW130299   3.436   7.593   0.546  0.8643 -0.9854 -0.0862
 6610SOL    HW230300   3.430   7.731   0.458 -0.0968  0.2857  1.9551
 6611SOL     OW30301   0.222   6.043   3.046  0.0576  0.3380 -0.4286
 6611SOL    HW130302   0.241   6.046   3.144 -0.7910  1.4823 -0.2787
 6611SOL    HW230303   0.146   5.981   3.029  1.6939 -1.6470 -0.6431
 6612SOL     OW30304   9.017   8.545   0.719  0.4351  0.4784  0.1183
 6612SOL    HW130305   9.039   8.541   0.621  5.2073  2.7932  0.9567
 6612SOL    HW230306   9.056   8.466   0.765 -0.0308  0.4462  0.4541
 6613SOL     OW30307   9.029   8.903   4.180  0.0702  0.2316 -0.1258
 6613SOL    HW130308   9.037   8.883   4.278 -1.2710  0.2666 -0.0121
 6613SOL    HW230309   8.935   8.889   4.150 -0.1670  3.0061 -0.7942
 6614SOL     OW30310   3.215   0.034   4.260 -0.0205  0.4575  0.1424
 6614SOL    HW130311   3.202  -0.057   4.222  0.8987 -0.6100  2.3334
 6614SOL    HW230312   3.312   0.048   4.282 -0.2627  1.7093  0.4803
 6615SOL     OW30313   3.718   2.035   3.681  0.2350  0.1130  0.1172
 6615SOL    HW130314   3.624   2.018   3.652 -1.0888  3.0809  2.3875
 6615SOL    HW230315   3.756   2.110   3.627  1.1648 -0.7724 -0.4775
 6616SOL     OW30316   3.944   0.917   1.189  0.1919  0.0890  0.7140
 6616SOL    HW130317   3.857   0.963   1.175 -0.1053 -0.2560  1.4438
 6616SOL    HW230318   4.002   0.972   1.249  0.5019  0.3457  0.1832
 6617SOL     OW30319   3.709   0.968   2.556  0.5576 -0.1379 -0.4246
 6617SOL    HW130320   3.747   0.993   2.467  0.4835 -1.9407 -0.9787
 6617SOL    HW230321   3.610   0.956   2.548  0.4276  0.5646  0.1051
 6618SOL     OW30322   1.162   8.012   4.701 -0.0707 -0.0523  0.8772
 6618SOL    HW130323   1.150   7.943   4.772  0.3437 -0.0169  0.9823
 6618SOL    HW230324   1.206   7.970   4.621  0.3652  0.1422  1.0183
 6619SOL     OW30325   1.093   4.012   0.059 -0.0638 -0.0976 -0.4089
 6619SOL    HW130326   1.031   4.090   0.064 -1.5216 -0.9452 -3.5812
 6619SOL    HW230327   1.097   3.979  -0.035  3.3582 -1.6169  0.1709
 6620SOL     OW30328   3.769   3.853   4.277 -0.0166  0.1911  0.2120
 6620SOL    HW130329   3.669   3.845   4.271 -0.3913  1.6063  3.3853
 6620SOL    HW230330   3.803   3.907   4.200 -1.9326  1.2647  0.0852
 6621SOL     OW30331   7.397   9.024   0.042 -0.0756  0.1549  0.0825
 6621SOL    HW130332   7.428   9.074   0.123 -1.2606  1.2708 -0.1457
 6621SOL    HW230333   7.444   8.936   0.038  0.9522  0.6289  1.2795
 6622SOL     OW30334   3.965   9.045   2.744 -0.5534 -0.3710  0.3580
 6622SOL    HW130335   3.990   9.131   2.698  1.1496 -2.4805 -2.8482
 6622SOL    HW230336   4.011   9.040   2.832  0.9054  1.1584 -0.2744
 6623SOL     OW30337   9.943   8.664   3.581 -0.1673 -1.0228  0.2572
 6623SOL    HW130338   9.863   8.664   3.641 -0.1079  3.2889  0.5003
 6623SOL    HW230339   9.914   8.678   3.487  0.2170 -0.6648  0.1910
 6624SOL     OW30340   0.969   4.651   3.751  0.1962  0.4047 -0.1974
 6624SOL    HW130341   1.056   4.603   3.747 -0.3283 -0.7208  1.4592
 6624SOL    HW230342   0.975   4.725   3.817 -1.0054 -1.6092  2.2350
 6625SOL     OW30343   8.955   7.927   0.301  0.4321  0.3434  0.2008
 6625SOL    HW130344   8.904   7.950   0.384  0.3314 -0.5120  0.3838
 6625SOL    HW230345   8.890   7.914   0.225  0.3525 -0.9354  0.4781
 6626SOL     OW30346   8.821   4.964   2.384  0.1144 -0.7987 -0.5762
 6626SOL    HW130347   8.834   5.058   2.414 -0.0676 -0.7992 -0.4971
 6626SOL    HW230348   8.725   4.948   2.363  0.3047 -0.6813 -1.5647
 6627SOL     OW30349   1.618   7.649   1.416 -0.0072  0.0373  0.2314
 6627SOL    HW130350   1.638   7.607   1.505  0.6904 -0.2561 -0.0531
 6627SOL    HW230351   1.573   7.582   1.357 -4.4339  1.4865  1.7675
 6628SOL     OW30352   1.688   4.534   1.136 -0.1769  0.2061  0.0493
 6628SOL    HW130353   1.666   4.595   1.212 -0.3489  1.4660 -1.0047
 6628SOL    HW230354   1.623   4.548   1.062 -0.1822 -1.2246 -0.2321
 6629SOL     OW30355   1.086   5.057   2.291  0.2797  0.0292  0.5766
 6629SOL    HW130356   1.004   5.108   2.265  0.2646  1.2497  2.8483
 6629SOL    HW230357   1.167   5.104   2.256  0.0241 -1.7340 -2.5624
 6630SOL     OW30358   1.406   9.041   2.338 -0.1310 -0.1955 -0.2574
 6630SOL    HW130359   1.497   9.032   2.378  0.3787 -1.8799 -1.7144
 6630SOL    HW230360   1.380   9.137   2.335  1.2771  0.2421  0.8668
 6631SOL     OW30361   1.585   5.404   4.127 -0.6018 -0.0584  0.8390
 6631SOL    HW130362   1.669   5.352   4.140 -0.3368  0.4531  1.1708
 6631SOL    HW230363   1.545   5.427   4.216 -0.3924  0.8281  0.7057
 6632SOL     OW30364   3.015   0.229   0.673 -0.1422  0.1199 -0.1496
 6632SOL    HW130365   2.928   0.275   0.691 -0.8266 -0.5889 -1.5395
 6632SOL    HW230366   3.044   0.249   0.579  0.8757 -0.1789  0.0949
 6633SOL     OW30367   2.563   2.451   1.692  0.5668 -0.5826 -0.3673
 6633SOL    HW130368   2.553   2.352   1.684  2.0610 -0.5799 -2.8317
 6633SOL    HW230369   2.643   2.480   1.639 -0.1820  1.9942 -0.1209
 6634SOL     OW30370   2.535   2.170   1.620  0.7477 -0.6736 -0.0817
 6634SOL    HW130371   2.518   2.090   1.678  3.1107 -0.8858  0.3530
 6634SOL    HW230372   2.565   2.141   1.530 -0.2416 -0.2951 -0.5403
 6635SOL     OW30373   1.673   4.194   3.577  0.4911 -0.2433 -0.3815
 6635SOL    HW130374   1.611   4.116   3.578  1.6094 -1.1652 -0.9130
 6635SOL    HW230375   1.709   4.206   3.484  1.6771 -0.1815  0.0833
 6636SOL     OW30376   9.672   9.488   0.183 -0.3617  0.1886 -0.4269
 6636SOL    HW130377   9.688   9.456   0.277 -1.4777  1.7755  0.3287
 6636SOL    HW230378   9.591   9.548   0.182 -1.4857 -1.2959 -2.7303
 6637SOL     OW30379   0.077   5.408   2.091  0.0162 -0.5570  0.0625
 6637SOL    HW130380   0.090   5.313   2.062 -1.9509 -0.5848 -0.7874
 6637SOL    HW230381   0.081   5.468   2.012  1.7073  0.1470  0.6553
 6638SOL     OW30382   2.000   6.244   1.940 -0.2155  0.5193  0.2588
 6638SOL    HW130383   1.901   6.238   1.943 -0.2276  1.0498  0.9956
 6638SOL    HW230384   2.028   6.287   1.854 -0.5520 -0.8955 -0.5733
 6639SOL     OW30385   3.061   2.955   1.299 -0.5223  0.4505  0.0458
 6639SOL    HW130386   3.085   2.977   1.394  2.3058  1.6151 -0.8927
 6639SOL    HW230387   3.023   3.036   1.255 -1.7517 -0.0682  0.1277
 6640SOL     OW30388   2.273   0.824   3.882 -0.8265 -0.0809 -0.0941
 6640SOL    HW130389   2.287   0.922   3.870 -0.8489 -0.1893 -1.0485
 6640SOL    HW230390   2.360   0.780   3.903 -1.0236  0.3178  1.6277
 6641SOL     OW30391   8.948   0.128   3.504 -0.7127 -0.0122 -0.1778
 6641SOL    HW130392   8.865   0.157   3.553 -1.0729  0.4998 -1.0762
 6641SOL    HW230393   8.960   0.029   3.515 -0.2839  0.2182  1.6982
 6642SOL     OW30394   0.479   5.938   3.652  0.1886  0.2200  0.2265
 6642SOL    HW130395   0.526   5.920   3.739 -0.6567  1.1845  0.9006
 6642SOL    HW230396   0.484   6.036   3.632 -1.7883  0.3776  0.4607
 6643SOL     OW30397   9.235   9.099   4.148  0.3323  0.5873 -0.1067
 6643SOL    HW130398   9.191   9.144   4.070 -0.5086 -2.4304 -1.4656
 6643SOL    HW230399   9.206   9.003   4.152  1.8274  0.1800  2.8375
 6644SOL     OW30400   7.868   8.182   0.854 -0.6176 -0.0265 -0.2534
 6644SOL    HW130401   7.849   8.246   0.928 -2.4140 -0.2427 -0.4921
 6644SOL    HW230402   7.850   8.089   0.885  2.6221 -0.5198  0.2965
 6645SOL     OW30403   2.890   8.032   0.407 -0.5913  0.0026 -0.3993
 6645SOL    HW130404   2.927   7.987   0.326  1.4428  0.7938  0.0670
 6645SOL    HW230405   2.791   8.039   0.399 -0.7150 -2.5861 -1.4507
 6646SOL     OW30406   3.747   1.143   1.403 -0.3228  0.3048 -0.3869
 6646SOL    HW130407   3.743   1.129   1.304  1.1393  0.5627 -0.4877
 6646SOL    HW230408   3.838   1.117   1.437 -0.2941  1.7214  0.6464
 6647SOL     OW30409   0.724   8.854   3.176 -0.2923 -0.2230 -0.4002
 6647SOL    HW130410   0.790   8.797   3.226  0.1439  1.4708  1.0112
 6647SOL    HW230411   0.635   8.848   3.220 -0.3795 -0.2292 -0.5781
 6648SOL     OW30412   2.153   7.848   0.931  0.1372  0.5863  0.4691
 6648SOL    HW130413   2.166   7.752   0.956  1.0985 -0.2015 -2.8907
 6648SOL    HW230414   2.227   7.903   0.969  2.7865 -0.9223 -2.3291
 6649SOL     OW30415   8.970   7.441   2.108  0.3787 -0.3005 -0.0592
 6649SOL    HW130416   8.919   7.473   2.028  1.4796  0.0014 -0.6488
 6649SOL    HW230417   8.991   7.344   2.098  0.3828 -0.2997 -0.0590
 6650SOL     OW30418   3.054   8.317   0.113  0.2569 -0.0272  0.6011
 6650SOL    HW130419   2.993   8.278   0.044  1.1008 -0.0803 -0.1167
 6650SOL    HW230420   3.142   8.270   0.111  1.2394  1.7864 -0.1715
 6651SOL     OW30421   9.716   7.431   4.421  0.0544 -0.0807 -0.1348
 6651SOL    HW130422   9.781   7.383   4.362  1.1057  1.2609 -0.1105
 6651SOL    HW230423   9.626   7.388   4.414  0.9598 -2.0307 -0.0907
 6652SOL     OW30424   0.876   4.005   0.452  0.4861  0.1061  0.1019
 6652SOL    HW130425   0.805   4.031   0.387  0.3163  0.0118  0.2509
 6652SOL    HW230426   0.902   3.910   0.436  0.2120 -0.0171  0.3862
 6653SOL     OW30427   0.443   6.329   4.530  0.8042 -0.1050 -0.0896
 6653SOL    HW130428   0.530   6.377   4.524  1.5324 -1.4053 -0.2623
 6653SOL    HW230429   0.411   6.306   4.438 -0.1276  1.0500 -0.0700
 6654SOL     OW30430   6.195   7.076   2.902  0.5600 -0.8558 -0.2853
 6654SOL    HW130431   6.227   6.983   2.916  0.2462 -0.9834 -0.4134
 6654SOL    HW230432   6.136   7.103   2.979  2.4620  0.0343  0.8967
 6655SOL     OW30433   3.162   7.744   0.789  0.5564  0.2114  0.1377
 6655SOL    HW130434   3.128   7.709   0.702  1.7256 -0.7036  0.0332
 6655SOL    HW230435   3.199   7.836   0.777 -1.0770  0.8893  0.0876
 6656SOL     OW30436   3.947   2.652   1.808  0.0214  0.3171 -0.1445
 6656SOL    HW130437   3.960   2.555   1.826  2.3905  0.1848 -2.4011
 6656SOL    HW230438   3.857   2.667   1.766  0.2590 -1.0823 -1.1730
 6657SOL     OW30439   0.963   6.059   0.641 -0.5574  0.2009  0.5731
 6657SOL    HW130440   0.877   6.107   0.622  0.2825  1.3821 -0.3048
 6657SOL    HW230441   1.020   6.059   0.559  0.0609 -1.0837  0.9824
 6658SOL     OW30442   2.586   7.381   2.406  0.6353  0.1037  0.2415
 6658SOL    HW130443   2.561   7.325   2.485  0.7565  2.1997  1.8064
 6658SOL    HW230444   2.685   7.377   2.392  0.6328 -0.1313  0.2929
 6659SOL     OW30445   9.147   7.208   3.120  0.1115 -0.6116 -0.5502
 6659SOL    HW130446   9.212   7.150   3.170  2.1299  0.6442 -1.6724
 6659SOL    HW230447   9.164   7.202   3.022 -0.4795  0.9105 -0.7703
 6660SOL     OW30448   9.584   6.022   1.480 -0.0614 -0.6942  0.2488
 6660SOL    HW130449   9.625   6.054   1.394 -0.2216 -1.9168 -0.2917
 6660SOL    HW230450   9.523   6.093   1.516 -1.4341 -0.8708 -1.6276
 6661SOL     OW30451   9.987   8.134   3.234  0.0773 -0.0508  0.4103
 6661SOL    HW130452   9.931   8.204   3.191  0.9089 -1.2056 -2.6740
 6661SOL    HW230453  10.083   8.156   3.221  0.3509 -0.0376  2.3777
 6662SOL     OW30454   3.160   9.858   0.738  0.2544 -0.6686  0.6453
 6662SOL    HW130455   3.218   9.798   0.793 -0.2041 -0.5048  1.3167
 6662SOL    HW230456   3.069   9.863   0.779  0.1997  0.2477  0.4247
 6663SOL     OW30457   2.157   9.507   1.983  0.0905 -0.6106  0.6082
 6663SOL    HW130458   2.233   9.476   1.927 -0.2784  1.6428 -1.2236
 6663SOL    HW230459   2.088   9.551   1.925 -0.9942  0.4713  2.6370
 6664SOL     OW30460   2.009   7.960   1.157  0.3210 -0.1051  0.2649
 6664SOL    HW130461   2.068   7.921   1.086 -0.9798 -1.7987  0.0855
 6664SOL    HW230462   1.988   7.891   1.225  2.2815  1.7580  2.8287
 6665SOL     OW30463   0.367   8.821   2.830  0.4690 -0.5666  0.1350
 6665SOL    HW130464   0.338   8.736   2.874  2.7787 -1.6031 -0.2956
 6665SOL    HW230465   0.412   8.879   2.898  0.3504 -0.3858  0.0588
 6666SOL     OW30466   2.772   8.570   1.695 -0.0948  0.1203 -0.0596
 6666SOL    HW130467   2.786   8.516   1.612 -0.9777  1.0031 -0.7967
 6666SOL    HW230468   2.701   8.527   1.751 -0.0742 -0.0338 -0.1529
 6667SOL     OW30469   4.343   0.289   2.648 -0.2292  0.5738  0.3554
 6667SOL    HW130470   4.395   0.303   2.564 -0.4342 -0.4423  0.0546
 6667SOL    HW230471   4.351   0.370   2.706  0.4866  0.9990 -0.3307
 6668SOL     OW30472   1.285   3.036   1.935  0.8194  0.0533  0.1552
 6668SOL    HW130473   1.229   3.118   1.938  1.8427  0.7333  0.8656
 6668SOL    HW230474   1.227   2.955   1.941 -0.3487  0.6722 -2.3822
 6669SOL     OW30475   3.790   3.253   1.964  0.0146  0.4998 -0.4509
 6669SOL    HW130476   3.767   3.247   2.061  0.1161  3.2623 -0.2082
 6669SOL    HW230477   3.706   3.245   1.910 -0.4145  1.6662  0.0170
 6670SOL     OW30478   1.534   8.926   0.934 -0.6004  0.0174  0.2336
 6670SOL    HW130479   1.596   8.865   0.985 -0.4237  0.3178  0.3766
 6670SOL    HW230480   1.477   8.976   0.999  0.0254  0.8306  0.1559
 6671SOL     OW30481   5.657   9.521   2.460  0.1206 -0.0474 -0.0667
 6671SOL    HW130482   5.717   9.575   2.401  0.1456 -0.4058 -0.3655
 6671SOL    HW230483   5.610   9.583   2.524  0.2931  0.3081 -0.2801
 6672SOL     OW30484   1.374   3.514   2.574  0.1875 -0.0715 -0.1649
 6672SOL    HW130485   1.461   3.557   2.552  0.0545 -1.7059 -4.2085
 6672SOL    HW230486   1.389   3.420   2.603 -0.2143 -0.1885 -0.3319
 6673SOL     OW30487   1.212   4.756   1.980 -0.5042 -0.3500 -0.2406
 6673SOL    HW130488   1.225   4.787   2.074 -1.8631 -0.4371 -0.0104
 6673SOL    HW230489   1.153   4.820   1.932  1.2648  0.4194 -1.4534
 6674SOL     OW30490   4.357   7.438   3.568 -0.3229 -0.1903  0.3741
 6674SOL    HW130491   4.328   7.348   3.536  0.0239 -0.3608  0.5296
 6674SOL    HW230492   4.444   7.429   3.617 -0.3639  0.2071  0.5214
 6675SOL     OW30493   2.644   3.911   1.698 -0.5615  0.1989 -0.7787
 6675SOL    HW130494   2.707   3.834   1.708 -1.5329 -0.5820 -0.5811
 6675SOL    HW230495   2.563   3.881   1.647 -0.0944  1.5904 -2.3506
 6676SOL     OW30496   2.013   3.001   3.184  0.0028  0.4533  0.2920
 6676SOL    HW130497   2.105   3.012   3.147  0.0837 -0.8947  0.0755
 6676SOL    HW230498   1.967   3.090   3.185  0.3973  0.7304 -1.9821
 6677SOL     OW30499   8.446   0.811   1.310 -0.4619  0.3020  0.7527
 6677SOL    HW130500   8.492   0.739   1.258 -1.6030 -0.9974  1.5098
 6677SOL    HW230501   8.465   0.799   1.407 -2.5581 -0.4068  1.1089
 6678SOL     OW30502   9.584   8.188   4.331 -0.0861  0.2778  0.1333
 6678SOL    HW130503   9.494   8.199   4.289  0.2099 -1.1360 -0.9004
 6678SOL    HW230504   9.587   8.103   4.383 -0.2598  1.7399  2.6095
 6679SOL     OW30505   1.762   1.520   4.572  0.2301 -0.5839 -0.0696
 6679SOL    HW130506   1.787   1.602   4.623  1.2331  0.4003 -2.0871
 6679SOL    HW230507   1.674   1.535   4.527 -0.2505 -1.1389  0.6779
 6680SOL     OW30508   9.324   6.478   2.091 -0.1314 -0.3854  0.4774
 6680SOL    HW130509   9.231   6.451   2.066 -0.3610 -0.3474  1.2630
 6680SOL    HW230510   9.325   6.574   2.119 -0.1609 -0.7895  1.9416
 6681SOL     OW30511   1.805   3.503   0.321 -0.0025 -0.0447  0.5433
 6681SOL    HW130512   1.785   3.409   0.291 -1.6359 -0.1483  1.8904
 6681SOL    HW230513   1.883   3.502   0.384  0.2919 -0.4369  0.1750
 6682SOL     OW30514   8.124   6.437   1.042  0.1035  0.1201 -0.5088
 6682SOL    HW130515   8.099   6.379   1.119  1.7853 -0.7361 -0.5722
 6682SOL    HW230516   8.073   6.522   1.046 -0.4739 -0.2891  1.0554
 6683SOL     OW30517   4.411   7.047   2.379 -0.0703  0.1146 -0.1310
 6683SOL    HW130518   4.365   7.011   2.460  0.4451  2.6707  1.3699
 6683SOL    HW230519   4.399   6.984   2.303 -1.2318 -1.9819  1.7172
 6684SOL     OW30520   3.549   4.355   1.696 -0.6966 -0.1617  0.1030
 6684SOL    HW130521   3.628   4.394   1.647 -0.1731 -0.7475  0.4695
 6684SOL    HW230522   3.466   4.372   1.643 -0.3595  0.6919 -0.1607
 6685SOL     OW30523   1.119   0.785   0.472  0.5644 -0.5919 -0.2468
 6685SOL    HW130524   1.123   0.831   0.561  0.0856  0.2120 -0.6288
 6685SOL    HW230525   1.141   0.851   0.400 -0.2201 -0.9335 -0.8082
 6686SOL     OW30526   3.229   8.761   3.148 -0.0042  0.0859  0.2306
 6686SOL    HW130527   3.288   8.839   3.128 -0.0221 -0.1720 -0.8551
 6686SOL    HW230528   3.283   8.678   3.150 -0.1641 -0.0173  0.2997
 6687SOL     OW30529   3.180   3.843   2.401  0.0716  0.2461 -0.1850
 6687SOL    HW130530   3.126   3.924   2.423  0.8522  1.0341 -1.0994
 6687SOL    HW230531   3.229   3.858   2.315  0.9436 -0.8426  0.1073
 6688SOL     OW30532   9.847   4.591   2.129 -0.3231 -0.3553  0.0093
 6688SOL    HW130533   9.804   4.502   2.138  1.1189 -0.9812  0.9597
 6688SOL    HW230534   9.942   4.579   2.099 -0.1537  0.8595  0.0288
 6689SOL     OW30535   9.796   4.247   1.808 -0.3916  0.1411  0.3838
 6689SOL    HW130536   9.853   4.328   1.805 -0.0509 -0.0829  0.8093
 6689SOL    HW230537   9.812   4.192   1.726  1.1184 -0.6735  1.2047
 6690SOL     OW30538   6.966   9.556   3.023 -0.0264 -0.0915 -0.1239
 6690SOL    HW130539   6.944   9.521   2.932  2.8070 -0.8552 -0.5567
 6690SOL    HW230540   7.009   9.646   3.015  0.9476 -0.5054  0.4077
 6691SOL     OW30541   1.751   7.738   2.999 -0.4350  0.4423  0.4096
 6691SOL    HW130542   1.846   7.730   3.028 -0.4962 -0.3867  0.3928
 6691SOL    HW230543   1.692   7.742   3.080 -0.4584 -0.0191  0.4189
 6692SOL     OW30544   5.571   0.222   2.693  0.6417  0.2403 -0.2474
 6692SOL    HW130545   5.590   0.252   2.599  0.3541 -1.0736 -0.7370
 6692SOL    HW230546   5.474   0.196   2.700  0.7337  0.0570  0.3334
 6693SOL     OW30547   0.602   8.089   2.409 -0.4035 -0.2991  0.1679
 6693SOL    HW130548   0.537   8.155   2.369 -0.5434 -0.2340  0.5006
 6693SOL    HW230549   0.552   8.008   2.439 -0.4493  0.1084  1.1975
 6694SOL     OW30550   8.122   8.520   4.066 -0.6078  0.0082 -0.4547
 6694SOL    HW130551   8.055   8.549   3.998  0.1234  0.4067 -1.0098
 6694SOL    HW230552   8.090   8.436   4.110 -2.6134  1.4758  0.9865
 6695SOL     OW30553   7.957   6.863   4.530 -0.2628  0.1628 -0.2258
 6695SOL    HW130554   7.958   6.873   4.430  0.6379  1.4720 -0.1055
 6695SOL    HW230555   7.874   6.905   4.566 -0.8997 -0.8769 -0.4750
 6696SOL     OW30556   1.421   8.375   3.062 -0.3964 -0.1898  0.3046
 6696SOL    HW130557   1.392   8.335   2.975 -0.3409  0.1574  0.1246
 6696SOL    HW230558   1.343   8.415   3.109 -0.6493 -1.4567  0.9955
 6697SOL     OW30559   1.425   7.868   0.276 -0.0539  0.1658  0.6935
 6697SOL    HW130560   1.335   7.908   0.294 -0.0304  0.5786 -0.0938
 6697SOL    HW230561   1.476   7.926   0.213  0.5564 -0.3464  0.7056
 6698SOL     OW30562   7.556   0.257   4.383 -0.3411 -0.3742  0.1112
 6698SOL    HW130563   7.581   0.163   4.403  1.3901  0.3080  1.2754
 6698SOL    HW230564   7.457   0.267   4.388 -0.5529 -2.1840 -0.2763
 6699SOL     OW30565   9.463   0.465   3.914 -0.0485  0.0183  0.6884
 6699SOL    HW130566   9.416   0.477   3.827  1.2764 -2.1725 -0.3583
 6699SOL    HW230567   9.396   0.452   3.987 -1.1453  1.2353 -0.0805
 6700SOL     OW30568   2.080   9.712   3.412 -0.7330 -0.0298 -0.0519
 6700SOL    HW130569   2.157   9.750   3.464 -2.2205 -0.0512  2.2272
 6700SOL    HW230570   2.077   9.613   3.425 -0.2673 -0.2218 -1.3580
 6701SOL     OW30571   1.655   1.284   0.011 -0.3025 -0.3380  0.0902
 6701SOL    HW130572   1.710   1.244   0.085 -0.9908  1.5299  1.6408
 6701SOL    HW230573   1.697   1.261  -0.077  3.0704  1.1296  1.2234
 6702SOL     OW30574   3.106   7.252   3.307  0.1352  0.4995 -0.5974
 6702SOL    HW130575   3.164   7.172   3.322 -0.2518 -0.2499 -2.9837
 6702SOL    HW230576   3.113   7.313   3.387  1.5418 -1.1969  0.6196
 6703SOL     OW30577   3.365   2.804   4.313 -0.4573  0.6651  0.4057
 6703SOL    HW130578   3.367   2.885   4.254 -0.5746  0.0187 -0.4930
 6703SOL    HW230579   3.342   2.724   4.259 -1.6399  0.2278  1.5275
 6704SOL     OW30580   6.769   8.275   2.710 -0.1123 -0.0699  0.2809
 6704SOL    HW130581   6.766   8.180   2.679 -0.8298  0.3088 -0.8269
 6704SOL    HW230582   6.706   8.330   2.656  0.9402  1.2094  0.3333
 6705SOL     OW30583   8.617   6.544   4.440  0.0472 -0.3154  0.1731
 6705SOL    HW130584   8.699   6.579   4.395  0.8582 -0.9538  1.1236
 6705SOL    HW230585   8.617   6.574   4.536 -1.0232 -0.0074  0.0793
 6706SOL     OW30586   6.543   8.319   3.286  0.2016  0.4386 -0.1969
 6706SOL    HW130587   6.504   8.348   3.199  0.8629  1.6867 -0.0932
 6706SOL    HW230588   6.566   8.400   3.341  2.8604 -0.2132 -0.2563
 6707SOL     OW30589   8.663   6.820   0.107  0.0002 -0.4226 -0.0609
 6707SOL    HW130590   8.692   6.859   0.194  1.3651 -2.2898  0.3425
 6707SOL    HW230591   8.619   6.732   0.122  1.1643 -1.2516 -1.3018
 6708SOL     OW30592   9.513   4.497   0.156  0.3635 -0.0813 -0.1068
 6708SOL    HW130593   9.480   4.486   0.063  1.8036 -0.3330 -0.5874
 6708SOL    HW230594   9.563   4.583   0.165  0.0871  0.0249  0.4709
 6709SOL     OW30595   2.861   4.267   4.120 -0.6388  0.1942 -0.4340
 6709SOL    HW130596   2.767   4.264   4.089 -0.6311 -1.2995 -0.3919
 6709SOL    HW230597   2.865   4.305   4.212 -1.4109 -1.2130  0.2073
 6710SOL     OW30598   3.354   2.078   4.264 -0.2566 -0.1145 -0.6940
 6710SOL    HW130599   3.305   2.151   4.312  0.6407  2.3269 -3.3558
 6710SOL    HW230600   3.452   2.094   4.271  0.0681 -2.7151  1.1435
 6711SOL     OW30601   9.576   5.616   1.242  0.4790 -0.8021 -0.3209
 6711SOL    HW130602   9.611   5.577   1.327  0.6435  0.0794  0.0299
 6711SOL    HW230603   9.653   5.640   1.183  0.6341  2.8056  1.1964
 6712SOL     OW30604   1.248   4.113   4.045 -0.7722  0.2753  0.3982
 6712SOL    HW130605   1.302   4.030   4.036  0.1999  0.8348  1.0237
 6712SOL    HW230606   1.152   4.089   4.059 -0.6308 -0.7228 -0.2996
 6713SOL     OW30607   4.376   7.693   3.492  1.0256 -0.3549  0.0229
 6713SOL    HW130608   4.318   7.734   3.562 -0.7789  0.8474 -2.0958
 6713SOL    HW230609   4.377   7.594   3.503 -0.9758 -0.3391  0.4213
 6714SOL     OW30610   0.248   8.967   2.635  0.0420  0.2703  0.8145
 6714SOL    HW130611   0.163   8.922   2.609  0.0199  0.4709  0.5288
 6714SOL    HW230612   0.293   8.915   2.707  0.4535 -0.6844 -0.1260
 6715SOL     OW30613   1.777   3.771   1.708  0.4612  0.2312  0.6529
 6715SOL    HW130614   1.692   3.734   1.746 -0.2520  2.2287  1.0671
 6715SOL    HW230615   1.854   3.714   1.738 -0.6019 -0.9000  1.2823
 6716SOL     OW30616   7.053   8.099   3.275  0.3661 -0.2202  0.2073
 6716SOL    HW130617   6.959   8.101   3.241 -1.1624  1.0963  4.2293
 6716SOL    HW230618   7.096   8.188   3.260 -0.3155  0.3675  1.6065
 6717SOL     OW30619   2.586   9.068   4.071 -0.4362 -0.4721  0.3692
 6717SOL    HW130620   2.576   8.969   4.065  3.1260 -0.7753 -2.5705
 6717SOL    HW230621   2.673   9.090   4.115 -1.1980  1.3724  0.9897
 6718SOL     OW30622   9.120   9.860   1.397  0.3092  0.2351 -0.3440
 6718SOL    HW130623   9.066   9.938   1.366 -0.8093 -0.1436  0.5770
 6718SOL    HW230624   9.061   9.798   1.450  0.9767 -1.6250 -1.7153
 6719SOL     OW30625   4.320   7.864   2.028  0.8484 -0.7254  0.0483
 6719SOL    HW130626   4.289   7.919   1.950  1.3282  0.3664  0.6118
 6719SOL    HW230627   4.373   7.786   1.995  3.0769  1.0377 -0.6456
 6720SOL     OW30628   3.556   5.619   2.854  0.2023 -0.0122 -0.4643
 6720SOL    HW130629   3.566   5.718   2.853 -0.5764  0.0718 -0.4772
 6720SOL    HW230630   3.509   5.589   2.771  0.8597 -0.4387 -0.6832
 6721SOL     OW30631   5.198   9.279   4.023  0.3322 -0.3916 -0.0200
 6721SOL    HW130632   5.270   9.337   4.061  0.0438  0.0411 -0.1339
 6721SOL    HW230633   5.183   9.304   3.927 -0.2612 -0.2041  0.1224
 6722SOL     OW30634   0.304   3.376   3.064 -0.2505 -0.3389  0.3825
 6722SOL    HW130635   0.338   3.284   3.084 -2.5261 -1.1310  0.7008
 6722SOL    HW230636   0.317   3.435   3.144  0.4403 -0.6009  0.4652
 6723SOL     OW30637   2.639   3.135   2.077  0.4798  0.2218  0.7671
 6723SOL    HW130638   2.645   3.057   2.139 -2.0413 -0.1433  0.6021
 6723SOL    HW230639   2.677   3.110   1.988 -0.2034 -0.8060  0.7510
 6724SOL     OW30640   0.708   0.330   2.697  0.7749 -0.4519 -0.3207
 6724SOL    HW130641   0.675   0.338   2.792 -0.7100 -0.9210 -0.7789
 6724SOL    HW230642   0.748   0.240   2.684  0.2324 -0.6905 -0.3577
 6725SOL     OW30643   2.392   9.401   1.253 -0.6784  0.0280 -0.1706
 6725SOL    HW130644   2.379   9.302   1.244  0.9687 -0.3522  1.3844
 6725SOL    HW230645   2.310   9.442   1.293 -0.3757 -1.0971  1.6584
 6726SOL     OW30646   1.933   8.867   1.282  0.6715 -0.0857 -0.8579
 6726SOL    HW130647   1.837   8.842   1.293  0.5585  1.2208  1.2303
 6726SOL    HW230648   1.987   8.784   1.265 -0.7793 -0.8478 -1.8707
 6727SOL     OW30649   9.231   9.126   1.815 -0.5810  0.4387  0.3472
 6727SOL    HW130650   9.268   9.194   1.878  0.4722  1.6077 -1.4899
 6727SOL    HW230651   9.154   9.165   1.766  0.2955  0.4632 -1.0257
 6728SOL     OW30652   1.674   7.191   1.769  0.3000 -0.3435 -0.3147
 6728SOL    HW130653   1.648   7.169   1.863  0.7449  2.9082  0.6179
 6728SOL    HW230654   1.770   7.219   1.767  1.1299 -3.0465 -2.2375
 6729SOL     OW30655   1.986   2.612   0.638 -0.1549 -0.3453 -0.6320
 6729SOL    HW130656   2.055   2.590   0.569  0.0134  0.0569 -0.5896
 6729SOL    HW230657   1.900   2.633   0.593  0.1676  0.7185 -0.7609
 6730SOL     OW30658   1.856   8.724   3.593  0.0684 -0.1507 -0.8601
 6730SOL    HW130659   1.858   8.727   3.693 -0.4506 -0.4131 -0.8397
 6730SOL    HW230660   1.939   8.680   3.559  2.1404  3.4718 -0.7124
 6731SOL     OW30661   0.855   8.315   1.334 -0.6182 -0.1216 -0.1323
 6731SOL    HW130662   0.884   8.404   1.371 -1.1809 -0.7998  1.9675
 6731SOL    HW230663   0.835   8.252   1.408 -0.0703 -2.0993 -1.6002
 6732SOL     OW30664   4.783   9.861   4.553  0.0487  0.3300  0.0811
 6732SOL    HW130665   4.742   9.884   4.641  1.6771 -0.3249  1.0423
 6732SOL    HW230666   4.735   9.783   4.513 -0.9070  0.8426  0.2317
 6733SOL     OW30667   4.941   7.556   1.862  0.0017 -0.0356 -0.0838
 6733SOL    HW130668   4.914   7.554   1.765  0.4499 -1.2394 -0.1886
 6733SOL    HW230669   4.939   7.651   1.895 -0.4591  0.3477 -1.1828
 6734SOL     OW30670   8.140   7.111   2.796  1.1374 -0.7289 -0.0953
 6734SOL    HW130671   8.093   7.197   2.820 -0.1296 -2.1004  2.5894
 6734SOL    HW230672   8.207   7.089   2.868  1.0244 -2.2885 -0.4513
 6735SOL     OW30673   2.841   4.584   4.092 -0.6566 -0.0327  0.3007
 6735SOL    HW130674   2.841   4.676   4.132 -3.2618  0.0472  0.2110
 6735SOL    HW230675   2.766   4.531   4.131 -1.0200 -1.1542 -1.8443
 6736SOL     OW30676   2.269   7.886   1.928 -0.2112  0.1126  0.0968
 6736SOL    HW130677   2.267   7.798   1.881  0.5887  0.3470 -0.4040
 6736SOL    HW230678   2.178   7.908   1.963 -0.5506 -0.6246 -0.3104
 6737SOL     OW30679   1.908   9.697   3.657 -0.2099  0.9070 -0.3180
 6737SOL    HW130680   1.840   9.628   3.682  1.1177  0.5277  2.4247
 6737SOL    HW230681   1.943   9.677   3.566 -1.1972 -0.9652 -0.3214
 6738SOL     OW30682   4.071   0.227   0.129  0.6195  0.3210  0.9700
 6738SOL    HW130683   4.104   0.322   0.128  0.5917  0.3272 -0.3521
 6738SOL    HW230684   4.125   0.172   0.066 -1.2040  0.0987 -0.4246
 6739SOL     OW30685   7.751   6.597   3.892 -0.0825 -0.0137  0.4244
 6739SOL    HW130686   7.799   6.517   3.856 -0.4433  0.0758 -0.2728
 6739SOL    HW230687   7.740   6.588   3.991 -1.5576 -1.6130  0.1443
 6740SOL     OW30688   3.372   7.994   1.703 -0.6511  0.1133  0.9186
 6740SOL    HW130689   3.324   7.955   1.624  1.8888 -1.5500  0.1471
 6740SOL    HW230690   3.392   8.090   1.685 -0.1248 -0.2443 -0.4566
 6741SOL     OW30691   0.568   1.152   4.409 -0.9526 -0.4043 -0.0198
 6741SOL    HW130692   0.653   1.101   4.396 -1.0824 -0.3079 -1.3718
 6741SOL    HW230693   0.562   1.184   4.503 -0.8082 -2.7473  0.8249
 6742SOL     OW30694   2.874   8.252   3.504  0.3894  0.6663 -0.7098
 6742SOL    HW130695   2.915   8.315   3.439 -1.1992  1.2852 -1.1532
 6742SOL    HW230696   2.775   8.266   3.506  0.3655  0.3592  1.5361
 6743SOL     OW30697   3.065   4.176   1.378  0.0062  0.2970  0.4206
 6743SOL    HW130698   2.970   4.147   1.364  0.1376 -0.2067  0.5719
 6743SOL    HW230699   3.071   4.231   1.462 -0.0926  0.0319  0.6038
 6744SOL     OW30700   1.569   1.389   0.334  0.1728 -0.4114 -0.2439
 6744SOL    HW130701   1.565   1.474   0.280  0.2303 -0.1831  0.1141
 6744SOL    HW230702   1.543   1.312   0.275  1.4095 -0.3185 -0.9424
 6745SOL     OW30703   1.069   2.713   0.741  0.5281  0.2255 -0.0641
 6745SOL    HW130704   1.028   2.769   0.813  0.4114  1.3018 -0.9449
 6745SOL    HW230705   1.114   2.633   0.781  0.6650  0.9399  1.2192
 6746SOL     OW30706   3.847   8.207   4.631 -0.1978  0.6934  0.2981
 6746SOL    HW130707   3.750   8.225   4.643 -0.6891 -0.5459 -1.6804
 6746SOL    HW230708   3.871   8.214   4.534  1.6185  0.7116  0.7332
 6747SOL     OW30709   2.362   0.226   2.789 -0.6996 -0.2360  0.1035
 6747SOL    HW130710   2.386   0.157   2.859  0.2443  0.9803  1.0016
 6747SOL    HW230711   2.359   0.316   2.832 -2.7837  0.1799 -0.8937
 6748SOL     OW30712   4.686   7.782   0.429  0.3606  0.2727  0.6805
 6748SOL    HW130713   4.592   7.777   0.394  0.1893  0.9465  1.0378
 6748SOL    HW230714   4.692   7.731   0.514  0.1241  0.8972  1.0729
 6749SOL     OW30715   3.517   2.080   2.280  0.2052 -0.1179 -0.5168
 6749SOL    HW130716   3.557   2.090   2.371  1.8708  1.7994 -1.4137
 6749SOL    HW230717   3.420   2.101   2.283  0.2798  0.0578  0.7797
 6750SOL     OW30718   1.333   9.408   4.554 -0.5333 -0.4011 -0.0566
 6750SOL    HW130719   1.387   9.340   4.603 -1.2191  0.1389  1.4698
 6750SOL    HW230720   1.379   9.431   4.468  0.4464 -1.6922  0.1055
 6751SOL     OW30721   5.413   8.211   3.610  0.5539  0.4400 -0.0883
 6751SOL    HW130722   5.474   8.290   3.614 -0.0718  0.9272 -0.0394
 6751SOL    HW230723   5.462   8.133   3.573  1.2152  0.8219 -0.0240
 6752SOL     OW30724   4.314   3.317   0.824  0.0479  0.0063  0.2522
 6752SOL    HW130725   4.398   3.282   0.782 -0.3783 -1.0249  0.2427
 6752SOL    HW230726   4.294   3.408   0.789  0.8797  0.0367 -0.1403
 6753SOL     OW30727   0.448   8.164   3.708  0.5150  0.9002 -0.0902
 6753SOL    HW130728   0.392   8.191   3.630 -1.7912 -0.6622  0.9599
 6753SOL    HW230729   0.451   8.239   3.774 -2.0331  0.3102  0.7372
 6754SOL     OW30730   1.030   1.316   3.409  0.2279 -0.5847  0.3626
 6754SOL    HW130731   0.932   1.300   3.410  0.3072 -1.0745  0.4633
 6754SOL    HW230732   1.061   1.339   3.502  0.1447 -0.0243  0.2538
 6755SOL     OW30733   1.018   8.540   2.954  0.6190 -0.2442 -0.5962
 6755SOL    HW130734   1.092   8.495   3.004 -1.4689 -0.5703  2.3066
 6755SOL    HW230735   1.052   8.624   2.912  2.6200 -0.3755  0.6950
 6756SOL     OW30736   0.262   7.037   2.165  0.3359 -0.2093  0.0601
 6756SOL    HW130737   0.354   7.005   2.143  0.0415 -0.8808 -0.2018
 6756SOL    HW230738   0.225   6.983   2.241  0.0269 -0.1698 -0.0613
 6757SOL     OW30739   1.817   4.805   3.319  0.1960 -0.4605 -0.5472
 6757SOL    HW130740   1.856   4.714   3.333 -0.8837 -0.5190  2.4432
 6757SOL    HW230741   1.867   4.852   3.247 -0.1091 -3.9175 -3.1516
 6758SOL     OW30742   0.009   6.692   1.043 -0.3407  0.2330 -0.2431
 6758SOL    HW130743   0.051   6.606   1.013 -0.8681  0.0900 -0.5713
 6758SOL    HW230744  -0.027   6.682   1.136  3.5864  1.4332  1.5216
 6759SOL     OW30745   8.081   8.051   1.635 -0.2657 -0.0882  0.0921
 6759SOL    HW130746   8.116   8.042   1.729  2.7268  1.2903 -0.8092
 6759SOL    HW230747   8.091   8.146   1.604  0.4786 -0.8742 -2.2201
 6760SOL     OW30748   9.181   0.224   1.328 -0.2510 -0.6364 -0.6649
 6760SOL    HW130749   9.198   0.302   1.268  1.8541 -0.1778  0.4981
 6760SOL    HW230750   9.208   0.140   1.280 -1.8069 -0.6183 -1.6260
 6761SOL     OW30751   7.660   7.514   3.433 -0.2038  0.6232  0.1272
 6761SOL    HW130752   7.656   7.573   3.513  1.7719  0.9493 -0.0033
 6761SOL    HW230753   7.636   7.566   3.351  1.2987  1.1886  0.0445
 6762SOL     OW30754   7.742   8.739   2.668 -0.8586 -0.8184 -0.7218
 6762SOL    HW130755   7.760   8.837   2.672 -3.3406 -0.3858  2.0699
 6762SOL    HW230756   7.822   8.691   2.633  0.7804  2.0914 -1.0713
 6763SOL     OW30757   2.678   4.897   2.096  0.1794  0.4769  0.4008
 6763SOL    HW130758   2.640   4.988   2.076  1.4003  0.6681 -1.1634
 6763SOL    HW230759   2.610   4.828   2.073  0.5587  0.8409 -1.9459
 6764SOL     OW30760   1.443   1.663   3.508  0.0015 -0.1956 -0.0343
 6764SOL    HW130761   1.380   1.694   3.580 -1.7365 -2.5045 -0.5111
 6764SOL    HW230762   1.495   1.741   3.475 -1.5366  1.5209  1.4183
 6765SOL     OW30763   0.813   2.921   4.685  0.1975 -0.5938  0.2890
 6765SOL    HW130764   0.878   2.996   4.692  0.4937 -0.6843 -1.3339
 6765SOL    HW230765   0.862   2.834   4.692  0.1366 -0.6556 -0.0583
 6766SOL     OW30766   1.739   2.437   0.325 -0.3300 -0.1785 -0.0194
 6766SOL    HW130767   1.640   2.432   0.311 -0.2846  1.7687 -1.3698
 6766SOL    HW230768   1.775   2.346   0.343 -2.1720 -1.1278 -0.9374
 6767SOL     OW30769   9.360   9.554   1.160 -0.1951 -0.1717  0.2888
 6767SOL    HW130770   9.407   9.500   1.090 -1.4847 -0.3830 -0.4507
 6767SOL    HW230771   9.338   9.644   1.124 -1.2369 -0.4251  0.2507
 6768SOL     OW30772   8.970   7.539   4.302 -0.3169  0.0383  0.0546
 6768SOL    HW130773   8.891   7.577   4.253  0.2983 -0.4168 -1.3338
 6768SOL    HW230774   8.963   7.560   4.399 -1.2426  1.5566 -0.3215
 6769SOL     OW30775   1.338   2.623   1.194 -0.4468  0.3427  0.1161
 6769SOL    HW130776   1.322   2.709   1.242 -1.1515  0.1432  0.2485
 6769SOL    HW230777   1.407   2.636   1.124 -0.8427  1.1165 -0.1353
 6770SOL     OW30778   3.829   8.266   0.935 -0.3832  0.9990  0.0477
 6770SOL    HW130779   3.738   8.305   0.919 -0.6498  0.8367  1.1474
 6770SOL    HW230780   3.843   8.187   0.877 -0.6903  1.4250 -0.6062
 6771SOL     OW30781   8.373   6.486   4.249  0.3490 -0.3968 -0.0937
 6771SOL    HW130782   8.275   6.501   4.243  0.4022  0.1671  0.4232
 6771SOL    HW230783   8.396   6.445   4.337  0.5565 -0.7520 -0.3058
 6772SOL     OW30784   1.746   3.833   1.346 -0.3633  0.3200 -0.2471
 6772SOL    HW130785   1.712   3.740   1.360 -1.1834  0.7621  0.7754
 6772SOL    HW230786   1.828   3.830   1.289  0.5663 -1.1762  1.1158
 6773SOL     OW30787   3.603   3.101   4.039  0.4258 -0.0025 -0.0956
 6773SOL    HW130788   3.652   3.113   4.125  2.0480 -0.8431 -0.8817
 6773SOL    HW230789   3.615   3.183   3.983 -1.4356  0.9462  0.8425
 6774SOL     OW30790   1.090   3.548   0.144 -0.4796  0.0013 -0.2877
 6774SOL    HW130791   1.149   3.469   0.133 -0.8464 -0.0035 -2.4234
 6774SOL    HW230792   0.997   3.518   0.165 -0.2968 -0.0835  0.3979
 6775SOL     OW30793   0.433   8.788   3.385 -0.4609  0.1794  0.0027
 6775SOL    HW130794   0.462   8.693   3.372 -1.9067 -0.3496  0.5792
 6775SOL    HW230795   0.357   8.791   3.450 -0.0720  1.7902  0.3968
 6776SOL     OW30796   9.996   0.978   2.462  0.0225  0.4156 -0.2714
 6776SOL    HW130797  10.080   0.987   2.516  0.4331 -1.1814 -0.6279
 6776SOL    HW230798   9.917   0.996   2.521  0.5306  0.2122  0.4885
 6777SOL     OW30799   0.166   1.317   2.117 -0.1835 -0.1946  0.1899
 6777SOL    HW130800   0.121   1.232   2.147  0.2496 -0.6123 -0.3422
 6777SOL    HW230801   0.258   1.296   2.084 -0.8905  0.1455 -2.0849
 6778SOL     OW30802   9.490   6.112   0.278  0.2157  0.1935 -0.0646
 6778SOL    HW130803   9.531   6.192   0.322  2.9337 -1.1942  0.0086
 6778SOL    HW230804   9.457   6.048   0.348  1.1767 -0.3053 -0.0523
 6779SOL     OW30805   9.694   6.814   3.560  0.0806  0.4381  0.0249
 6779SOL    HW130806   9.696   6.762   3.475 -0.0505  1.3595 -0.5476
 6779SOL    HW230807   9.624   6.775   3.621 -0.3086  0.2063 -0.5632
 6780SOL     OW30808   9.929   4.704   2.361 -0.2242  0.5559  0.3543
 6780SOL    HW130809   9.892   4.658   2.281  0.4461 -2.2621  1.6173
 6780SOL    HW230810  10.027   4.720   2.347 -0.0833 -0.0418  0.6595
 6781SOL     OW30811   0.886   4.336   4.260  0.5308  0.2933 -0.0827
 6781SOL    HW130812   0.834   4.260   4.298 -0.4672  2.3987  3.0129
 6781SOL    HW230813   0.957   4.363   4.326  0.6408  2.2559 -0.9800
 6782SOL     OW30814   1.244   2.823   4.461 -0.0789  0.2157  0.0196
 6782SOL    HW130815   1.267   2.760   4.387  0.0067 -1.8132  1.7338
 6782SOL    HW230816   1.325   2.878   4.483 -0.9414  3.0081 -3.3843
 6783SOL     OW30817   7.217   9.755   1.569  0.5251  0.3654  0.3041
 6783SOL    HW130818   7.125   9.749   1.532 -0.1432 -0.0429  2.0102
 6783SOL    HW230819   7.264   9.833   1.528  0.1179 -0.5681 -2.0362
 6784SOL     OW30820   5.064   1.994   2.208 -0.3093 -0.0129 -0.2653
 6784SOL    HW130821   5.095   2.040   2.124 -0.3565  0.3583 -0.0804
 6784SOL    HW230822   4.999   2.053   2.256  0.7624  0.3652  0.7416
 6785SOL     OW30823   8.670   7.347   2.291 -0.3676 -0.4184 -0.5361
 6785SOL    HW130824   8.761   7.355   2.332 -0.3152 -2.2993 -0.2113
 6785SOL    HW230825   8.657   7.253   2.258 -2.2003 -0.1831 -0.5426
 6786SOL     OW30826   4.990   1.138   3.310 -0.5663  0.1601 -0.6363
 6786SOL    HW130827   5.011   1.170   3.402 -0.0834 -0.2672 -0.5947
 6786SOL    HW230828   4.949   1.212   3.257 -1.9226  0.0930  0.2734
 6787SOL     OW30829   0.682   3.673   0.608  0.5884  0.3620  0.0238
 6787SOL    HW130830   0.775   3.680   0.643  0.9033  0.4552 -0.8171
 6787SOL    HW230831   0.617   3.676   0.684  1.1963  1.7925  0.4926
 6788SOL     OW30832   2.593   5.384   1.750  0.1476 -0.3259 -0.6213
 6788SOL    HW130833   2.631   5.471   1.721  1.0678 -1.1883 -2.0704
 6788SOL    HW230834   2.611   5.315   1.680  1.7275 -2.2924  1.6607
 6789SOL     OW30835   4.831   1.528   1.279 -0.0244 -0.3288  0.4623
 6789SOL    HW130836   4.866   1.621   1.277  1.0978 -0.7456 -0.3408
 6789SOL    HW230837   4.741   1.526   1.321 -0.4244  1.2478 -0.2955
 6790SOL     OW30838   1.378   6.239   1.329 -0.4089  0.0513  0.2622
 6790SOL    HW130839   1.381   6.218   1.232  0.0934 -2.1564  0.7399
 6790SOL    HW230840   1.460   6.204   1.374 -1.3980 -0.3790  1.7582
 6791SOL     OW30841   5.876   9.363   3.774  0.4080 -0.3281 -0.5619
 6791SOL    HW130842   5.967   9.347   3.812 -0.2364  0.1425  1.2743
 6791SOL    HW230843   5.853   9.460   3.781 -0.1713 -0.4163 -1.1658
 6792SOL     OW30844   2.759   6.712   1.383  0.1749 -0.3825  0.3530
 6792SOL    HW130845   2.724   6.622   1.357 -0.8986  0.0711  0.1852
 6792SOL    HW230846   2.722   6.738   1.472 -0.8267  0.5737 -0.3192
 6793SOL     OW30847   4.938   9.966   0.950 -0.0373 -0.3178  0.7386
 6793SOL    HW130848   4.919   9.890   1.011  0.3845  0.5841  2.0182
 6793SOL    HW230849   4.919   9.939   0.856 -1.9543 -1.3159  1.3851
 6794SOL     OW30850   9.149   7.739   1.829 -0.7689 -0.5653 -0.3283
 6794SOL    HW130851   9.241   7.745   1.792 -2.1474  0.0987 -3.8885
 6794SOL    HW230852   9.109   7.651   1.806 -1.3687 -0.4599  0.2981
 6795SOL     OW30853   3.284   2.280   2.634  0.0973 -0.0129  1.1019
 6795SOL    HW130854   3.297   2.313   2.541 -0.5991 -1.5320  0.4468
 6795SOL    HW230855   3.273   2.358   2.696 -0.3635  0.9823 -0.2130
 6796SOL     OW30856   0.994   2.565   3.135 -0.1383  0.6387  0.3717
 6796SOL    HW130857   1.047   2.547   3.219  0.0735  1.1202  0.3410
 6796SOL    HW230858   1.032   2.510   3.060  1.1919  1.9978  0.0214
 6797SOL     OW30859   8.289   7.426   4.009  0.0193  0.1790  0.2566
 6797SOL    HW130860   8.203   7.478   4.014 -0.4060 -0.4794 -0.1717
 6797SOL    HW230861   8.271   7.336   3.970  1.2708  0.7928 -1.7850
 6798SOL     OW30862   3.723   1.134   1.127 -0.0797 -0.9274  0.0256
 6798SOL    HW130863   3.691   1.097   1.040 -3.1222  0.2599  0.5914
 6798SOL    HW230864   3.711   1.233   1.128  2.0187 -0.6525  0.9862
 6799SOL     OW30865   2.427   0.274   0.919  0.1648  0.0191  0.0391
 6799SOL    HW130866   2.438   0.367   0.884 -0.1257  0.5268  1.2604
 6799SOL    HW230867   2.430   0.276   1.019  0.1299 -1.2825  0.0689
 6800SOL     OW30868   3.126   5.042   1.339  0.3081 -0.1075 -0.1547
 6800SOL    HW130869   3.127   4.988   1.424 -2.1787  0.0011 -0.0059
 6800SOL    HW230870   3.099   4.984   1.263 -0.6054  0.4999 -0.3057
 6801SOL     OW30871   7.818   6.447   1.859 -0.6224  0.1751  0.4779
 6801SOL    HW130872   7.837   6.478   1.766 -0.8082 -0.7515  0.1281
 6801SOL    HW230873   7.719   6.441   1.873 -0.5996 -2.3498 -0.1749
 6802SOL     OW30874   5.448   8.996   3.687  0.1052 -0.1930  0.3746
 6802SOL    HW130875   5.467   9.028   3.780 -3.2757  1.9167  0.4100
 6802SOL    HW230876   5.406   8.905   3.692 -0.2883  0.0166  0.9068
 6803SOL     OW30877   8.088   9.485   4.302  0.2564  0.7261 -0.3374
 6803SOL    HW130878   8.026   9.483   4.380  0.7510  2.8455  0.1492
 6803SOL    HW230879   8.061   9.415   4.236 -0.6491 -0.5581  1.3515
 6804SOL     OW30880   3.470   9.861   4.000 -0.2861  0.2759  0.0529
 6804SOL    HW130881   3.493   9.944   3.949 -1.1012  1.0239  0.8888
 6804SOL    HW230882   3.545   9.837   4.061  1.2129 -1.3059 -2.3201
 6805SOL     OW30883   8.457   8.687   2.213 -0.6710  0.0696  0.1805
 6805SOL    HW130884   8.463   8.779   2.173 -1.4397 -0.3303 -0.8601
 6805SOL    HW230885   8.507   8.622   2.156 -0.8263 -0.3053  0.4688
 6806SOL     OW30886   5.145   6.853   2.955 -0.1154 -0.0065  0.4197
 6806SOL    HW130887   5.163   6.863   2.857 -1.3685  0.7268  0.2491
 6806SOL    HW230888   5.154   6.757   2.981 -0.5366 -0.3296 -0.5894
 6807SOL     OW30889   3.885   7.103   2.529 -0.5756 -0.4340 -0.0341
 6807SOL    HW130890   3.982   7.121   2.510 -0.2400 -2.0518  0.0697
 6807SOL    HW230891   3.831   7.120   2.446 -0.5196  2.6386  0.5199
 6808SOL     OW30892   9.287   6.800   3.572 -0.2965  0.2934 -0.0323
 6808SOL    HW130893   9.359   6.746   3.615 -1.7683 -0.8473  1.0354
 6808SOL    HW230894   9.297   6.896   3.600  0.9600  0.1989 -0.1141
 6809SOL     OW30895   0.891   2.853   2.448 -0.0868 -0.4506 -0.3643
 6809SOL    HW130896   0.854   2.879   2.537 -0.0934 -0.3831 -0.3864
 6809SOL    HW230897   0.957   2.779   2.460  0.8394  0.3991 -0.1501
 6810SOL     OW30898   9.264   9.777   0.978  0.1433 -0.0856  0.3606
 6810SOL    HW130899   9.221   9.697   0.937 -0.9056  0.4984  0.2978
 6810SOL    HW230900   9.245   9.858   0.922 -1.1768  0.6959  1.8986
 6811SOL     OW30901   4.582   0.154   0.860  0.3567 -0.0193 -0.0389
 6811SOL    HW130902   4.502   0.186   0.808  0.1595  0.2152  0.4069
 6811SOL    HW230903   4.557   0.073   0.912  0.7489 -0.6708 -0.8625
 6812SOL     OW30904   4.000   1.074   1.417  0.3453  0.7142  0.4072
 6812SOL    HW130905   4.019   1.131   1.496  0.6772  1.1389  0.0227
 6812SOL    HW230906   4.071   1.004   1.408 -0.3137 -0.0634  1.1513
 6813SOL     OW30907   6.434   9.962   2.799 -0.5419 -0.1221 -0.5113
 6813SOL    HW130908   6.464   9.983   2.891 -0.7958 -0.0234 -0.4524
 6813SOL    HW230909   6.470   9.872   2.772  1.2008  0.7183 -1.0616
 6814SOL     OW30910   2.134   2.078   1.453 -0.3316 -0.0646  0.2838
 6814SOL    HW130911   2.135   1.988   1.496 -1.5084 -0.0158  0.4210
 6814SOL    HW230912   2.049   2.125   1.475 -0.1268  0.7132 -0.5508
 6815SOL     OW30913   3.769   8.770   1.456  0.0402 -0.6187 -0.0506
 6815SOL    HW130914   3.717   8.831   1.397  0.7407  1.5005  1.5030
 6815SOL    HW230915   3.726   8.764   1.546  0.7670 -1.3177  0.2611
 6816SOL     OW30916   9.694   8.489   1.915  0.7282  0.3017 -0.4885
 6816SOL    HW130917   9.732   8.419   1.974  0.4974  1.2165  0.7668
 6816SOL    HW230918   9.767   8.550   1.883  0.6252  0.8602  0.3054
 6817SOL     OW30919   1.090   4.629   1.067 -0.2743 -0.0502  0.1289
 6817SOL    HW130920   1.090   4.652   0.970 -0.3499 -1.2281 -0.1564
 6817SOL    HW230921   1.129   4.705   1.119  0.2048  0.3914 -0.8572
 6818SOL     OW30922   0.172   6.781   3.943  0.3371 -0.3261 -0.3544
 6818SOL    HW130923   0.201   6.874   3.968 -0.3645 -0.6378  1.7797
 6818SOL    HW230924   0.183   6.768   3.845  0.6070  1.9595 -0.6693
 6819SOL     OW30925   7.554   9.508   3.684 -0.0707  0.2348  0.0676
 6819SOL    HW130926   7.651   9.514   3.705 -0.2192 -0.4681  0.9419
 6819SOL    HW230927   7.533   9.571   3.608  0.9671  0.7213  0.1741
 6820SOL     OW30928   2.221   7.645   0.194  0.3415  0.5209 -0.2320
 6820SOL    HW130929   2.195   7.579   0.124 -0.1817 -1.5430  1.8314
 6820SOL    HW230930   2.308   7.617   0.235 -1.4823 -0.8301  2.9330
 6821SOL     OW30931   0.474   3.973   3.888  0.3518  0.5570  0.1937
 6821SOL    HW130932   0.446   3.971   3.792  0.8870  0.2146  0.0412
 6821SOL    HW230933   0.504   3.881   3.916  3.0598  1.2997 -0.1685
 6822SOL     OW30934   1.446   6.990   0.510 -0.5987  0.2395 -0.0478
 6822SOL    HW130935   1.449   6.973   0.609 -0.6019  1.0607  0.0972
 6822SOL    HW230936   1.354   6.970   0.477 -0.4103 -0.7007 -0.0089
 6823SOL     OW30937   9.994   5.602   3.837  0.2522  0.1300 -0.0524
 6823SOL    HW130938   9.924   5.567   3.774 -1.1067  2.7616 -0.0634
 6823SOL    HW230939   9.994   5.547   3.921 -1.1687 -0.4654 -0.4270
 6824SOL     OW30940   2.430   6.778   4.217 -0.5243 -0.0204 -0.0081
 6824SOL    HW130941   2.507   6.840   4.234 -0.5845  0.2035 -0.5269
 6824SOL    HW230942   2.445   6.692   4.266  0.1483 -0.0440 -0.2355
 6825SOL     OW30943   3.079   4.105   0.792  0.1553  0.5507 -0.0539
 6825SOL    HW130944   2.988   4.097   0.833  0.2064  0.8639  0.1232
 6825SOL    HW230945   3.075   4.165   0.712  0.6547  2.5827  1.3845
 6826SOL     OW30946   9.979   7.682   1.837  0.2111 -0.1303 -0.6229
 6826SOL    HW130947  10.009   7.663   1.744 -0.7089 -0.5495 -0.8438
 6826SOL    HW230948   9.880   7.696   1.838 -0.2381 -3.0113  0.7043
 6827SOL     OW30949   0.071   1.810   2.613  0.1216  0.0224 -0.7140
 6827SOL    HW130950   0.027   1.734   2.565 -2.4580  1.5681 -0.9063
 6827SOL    HW230951   0.063   1.797   2.711 -1.1304  0.4708 -0.7492
 6828SOL     OW30952   0.824   6.027   3.853  0.3944 -0.1857 -0.0939
 6828SOL    HW130953   0.731   5.991   3.864  0.9399 -1.7091 -0.3095
 6828SOL    HW230954   0.824   6.125   3.869 -1.6295  0.1779 -2.2024
 6829SOL     OW30955   9.884   0.368   4.758 -0.8788 -0.1966 -0.5450
 6829SOL    HW130956   9.858   0.437   4.826  1.6910 -1.4387  1.8105
 6829SOL    HW230957   9.956   0.404   4.699 -1.3654  0.0219 -1.0099
 6830SOL     OW30958   9.819   9.386   0.663 -0.0443  0.6385  0.3863
 6830SOL    HW130959   9.741   9.347   0.713  0.0427  1.0087  0.8203
 6830SOL    HW230960   9.880   9.430   0.728  1.2775 -0.9108  0.2288
 6831SOL     OW30961   0.546   2.236   0.720 -0.6841  0.4600  0.4875
 6831SOL    HW130962   0.621   2.178   0.752 -0.4048  0.1785 -0.6559
 6831SOL    HW230963   0.497   2.274   0.799  0.7255  0.7381  1.2421
 6832SOL     OW30964   0.241   4.428   2.594 -0.0055  0.1665  0.5004
 6832SOL    HW130965   0.233   4.525   2.573 -0.5804 -0.0655 -0.4478
 6832SOL    HW230966   0.296   4.415   2.676  0.4588  1.2627  0.3714
 6833SOL     OW30967   3.607   3.895   0.719 -0.1185 -0.1444  0.5430
 6833SOL    HW130968   3.616   3.840   0.636 -0.2068  0.6574  0.0016
 6833SOL    HW230969   3.549   3.847   0.785 -0.7733 -0.3859 -0.2044
 6834SOL     OW30970   1.318   1.339   3.626  0.5353 -0.1546  0.3776
 6834SOL    HW130971   1.288   1.246   3.605 -0.4023  0.3804 -0.6792
 6834SOL    HW230972   1.380   1.371   3.554  1.9710 -0.4607  1.4493
 6835SOL     OW30973   9.474   9.503   0.907 -0.2698 -0.3235 -0.2219
 6835SOL    HW130974   9.502   9.473   0.816 -0.4045  1.1105 -0.7480
 6835SOL    HW230975   9.392   9.560   0.900 -1.7847 -2.2806  1.0468
 6836SOL     OW30976   3.577   3.696   1.242  0.0187  0.5454 -0.4993
 6836SOL    HW130977   3.588   3.679   1.340  0.7369  0.1481 -0.6465
 6836SOL    HW230978   3.647   3.647   1.191 -0.1059  1.0669 -1.1897
 6837SOL     OW30979   8.107   8.389   1.330 -0.1246 -0.4989 -0.3622
 6837SOL    HW130980   8.189   8.378   1.275  0.3636 -0.3378  0.3314
 6837SOL    HW230981   8.036   8.326   1.298  0.3181 -0.7363 -0.8643
 6838SOL     OW30982   1.323   7.450   2.372 -0.0968 -0.0943 -0.3368
 6838SOL    HW130983   1.396   7.518   2.382  0.6576 -0.7651 -1.1790
 6838SOL    HW230984   1.314   7.398   2.457 -0.3435  0.7249  0.1447
 6839SOL     OW30985   0.245   2.884   2.941 -0.1027  0.2449 -0.4173
 6839SOL    HW130986   0.204   2.941   2.871  0.1883 -0.7844 -1.4406
 6839SOL    HW230987   0.301   2.813   2.898 -1.3346 -1.4962  0.7715
 6840SOL     OW30988   4.966   9.945   4.079 -0.2276 -0.1819 -0.1572
 6840SOL    HW130989   4.894  10.013   4.095 -0.5350 -1.0357  2.4204
 6840SOL    HW230990   4.977   9.889   4.162  1.4854 -1.8780 -1.4936
 6841SOL     OW30991   0.308   8.288   3.501 -0.1155 -0.1993 -0.1678
 6841SOL    HW130992   0.306   8.244   3.411 -0.4548 -0.4643 -0.0334
 6841SOL    HW230993   0.220   8.332   3.519 -0.0593 -0.1731  0.0463
 6842SOL     OW30994   7.989   9.556   2.012  0.0463  0.3908 -0.1138
 6842SOL    HW130995   7.958   9.547   2.106  0.0627 -1.7792 -0.2932
 6842SOL    HW230996   7.948   9.638   1.971  1.7921  2.5884  2.4107
 6843SOL     OW30997   2.358   9.571   0.896  0.1267  0.6847  0.0783
 6843SOL    HW130998   2.349   9.494   0.834 -1.9379  0.2754  0.8439
 6843SOL    HW230999   2.312   9.550   0.982 -0.4159  2.7343  0.3190
 6844SOL     OW31000   0.919   2.802   0.535  0.2211  0.1463 -0.0676
 6844SOL    HW131001   0.945   2.789   0.439  0.9020 -0.2694  0.1731
 6844SOL    HW231002   0.984   2.755   0.594 -0.5761 -0.1586  0.5768
 6845SOL     OW31003   8.006   8.954   3.068 -0.0459 -0.2506  0.2613
 6845SOL    HW131004   7.967   9.026   3.011  0.0064 -1.0257 -0.7834
 6845SOL    HW231005   7.936   8.884   3.084  1.0879 -2.0941 -2.3608
 6846SOL     OW31006   2.792   5.219   0.085  0.1230  0.1462 -0.1433
 6846SOL    HW131007   2.774   5.314   0.113 -0.9501 -0.4672  1.3231
 6846SOL    HW231008   2.748   5.201  -0.003  1.4402  1.3795 -1.0781
 6847SOL     OW31009   2.493   0.552   0.926  0.0980 -0.1910 -0.1479
 6847SOL    HW131010   2.485   0.601   1.012 -1.1786 -1.8843  0.7296
 6847SOL    HW231011   2.480   0.617   0.850  0.3293  1.1476  0.9297
 6848SOL     OW31012   2.605   6.532   3.263  0.2087 -0.2859 -0.0986
 6848SOL    HW131013   2.614   6.490   3.353  0.4122 -2.3394 -1.0339
 6848SOL    HW231014   2.518   6.504   3.222  0.5610 -0.1766 -0.9296
 6849SOL     OW31015   1.789   4.969   4.370 -0.5000  0.3160  0.2890
 6849SOL    HW131016   1.782   4.927   4.461  0.4722  0.9115  0.6397
 6849SOL    HW231017   1.799   4.897   4.301 -2.2336 -0.1932  0.5441
 6850SOL     OW31018   9.926   1.334   3.039  0.3117  0.1020  0.4846
 6850SOL    HW131019   9.896   1.257   3.096 -0.2461 -0.4551 -0.5480
 6850SOL    HW231020   9.853   1.401   3.032  0.3880  0.1784  0.4399
 6851SOL     OW31021   2.056   9.009   0.690  0.2250 -0.4946 -0.1956
 6851SOL    HW131022   2.130   8.991   0.755  0.5136 -0.0741 -0.4001
 6851SOL    HW231023   1.980   9.053   0.737  1.2139  1.6265 -0.4900
 6852SOL     OW31024   0.728   2.945   2.855 -0.2861  0.5015 -0.2903
 6852SOL    HW131025   0.673   3.000   2.793  0.5485  0.3161 -1.2071
 6852SOL    HW231026   0.802   2.901   2.804  0.3051  0.2062  0.8057
 6853SOL     OW31027   0.237   2.570   1.672  0.3344  0.5501 -0.5812
 6853SOL    HW131028   0.189   2.640   1.725  0.6232  0.5161 -0.2742
 6853SOL    HW231029   0.313   2.613   1.622 -0.2381  0.6702 -1.3582
 6854SOL     OW31030   2.353   3.313   3.303 -0.1256 -0.2586 -0.3892
 6854SOL    HW131031   2.413   3.363   3.365 -0.0616 -0.9598  0.1120
 6854SOL    HW231032   2.378   3.216   3.302 -1.5771 -0.6521  0.2170
 6855SOL     OW31033   3.665   2.119   3.967  0.0205 -0.1419 -0.0503
 6855SOL    HW131034   3.633   2.212   3.984 -0.5827  0.1352 -2.6014
 6855SOL    HW231035   3.695   2.110   3.872  1.1365 -2.2623  0.4526
 6856SOL     OW31036   0.588   7.511   3.357 -0.2435  0.5761 -0.2149
 6856SOL    HW131037   0.566   7.605   3.331 -0.8921  0.1103 -1.3578
 6856SOL    HW231038   0.687   7.500   3.358 -0.1905  0.6145 -2.4850
 6857SOL     OW31039   2.670   9.217   3.069 -0.4655 -0.0157  0.7206
 6857SOL    HW131040   2.642   9.216   3.165  0.6352 -2.0145  1.0564
 6857SOL    HW231041   2.618   9.148   3.018  1.7959 -1.8153  0.7735
 6858SOL     OW31042   8.448   0.765   1.581 -0.3808 -0.2061 -0.4870
 6858SOL    HW131043   8.485   0.796   1.669  0.0618 -0.8906 -0.4315
 6858SOL    HW231044   8.386   0.689   1.596 -0.3270 -0.3038 -0.7677
 6859SOL     OW31045   3.580   1.685   4.220  0.1171  0.0947 -0.1738
 6859SOL    HW131046   3.665   1.643   4.252 -0.7427 -1.9481 -0.4720
 6859SOL    HW231047   3.580   1.689   4.120  2.2700  5.3549 -0.1394
 6860SOL     OW31048   8.093   8.281   0.041  0.3076  0.8627 -0.2136
 6860SOL    HW131049   8.169   8.217   0.051  2.3706  3.1312 -0.7001
 6860SOL    HW231050   8.115   8.347  -0.031 -1.6962  2.1603  0.3286
 6861SOL     OW31051   7.851   0.497   2.759  0.2147  0.3544 -0.1685
 6861SOL    HW131052   7.920   0.465   2.823  1.3453 -0.9617 -1.9692
 6861SOL    HW231053   7.771   0.436   2.763  0.1167  0.5112  0.2695
 6862SOL     OW31054   0.880   5.314   1.701 -0.3411 -0.2765 -0.1362
 6862SOL    HW131055   0.893   5.241   1.635 -0.0793  0.0448 -0.4422
 6862SOL    HW231056   0.909   5.401   1.661 -1.2050  0.0837  0.0242
 6863SOL     OW31057   1.391   9.869   4.446  0.7407  0.1341  0.2106
 6863SOL    HW131058   1.295   9.885   4.425  0.9124  0.3437 -0.4267
 6863SOL    HW231059   1.401   9.851   4.544  0.4319  3.3578  0.9112
 6864SOL     OW31060   1.696   5.976   2.017  0.3150 -0.0774  0.0426
 6864SOL    HW131061   1.744   5.915   2.080 -0.2807 -0.1778  0.3982
 6864SOL    HW231062   1.650   5.922   1.947  0.1547 -0.0139  0.0990
 6865SOL     OW31063   2.735   2.987   4.097 -0.2860  0.8030 -0.0634
 6865SOL    HW131064   2.824   3.003   4.053 -0.4558 -1.7348 -1.4486
 6865SOL    HW231065   2.749   2.946   4.187 -0.0215  2.0908  0.4870
 6866SOL     OW31066   1.470   9.455   0.808  0.2885 -0.0005 -0.2128
 6866SOL    HW131067   1.391   9.517   0.809  1.0323  0.9678  0.3349
 6866SOL    HW231068   1.548   9.502   0.848  1.6091 -0.3519 -2.3464
 6867SOL     OW31069   3.457   1.007   2.218  0.2961  0.3213  0.4512
 6867SOL    HW131070   3.459   0.963   2.307 -0.8569 -1.1561 -0.2238
 6867SOL    HW231071   3.368   0.993   2.176  1.3301 -0.3355 -1.5883
 6868SOL     OW31072   0.678   5.495   0.989 -0.0281 -0.5868 -0.4712
 6868SOL    HW131073   0.684   5.509   1.088 -0.4605 -0.2808 -0.4905
 6868SOL    HW231074   0.702   5.400   0.967 -1.9007 -1.1997  0.1140
 6869SOL     OW31075   3.222   6.022   1.667 -0.0842 -0.4257  0.8241
 6869SOL    HW131076   3.138   6.061   1.628  1.0958  0.4251 -0.9665
 6869SOL    HW231077   3.222   5.923   1.654 -0.2162 -0.2750 -0.3520
 6870SOL     OW31078   3.719   1.484   3.242 -0.1887  0.7095 -0.0320
 6870SOL    HW131079   3.751   1.438   3.159 -0.2936  1.1653 -0.3236
 6870SOL    HW231080   3.791   1.544   3.277  1.6645 -2.9604  2.8339
 6871SOL     OW31081   0.633   4.928   2.422  0.4080  0.5846 -0.3337
 6871SOL    HW131082   0.676   4.840   2.400  2.4840  1.7497 -1.1131
 6871SOL    HW231083   0.554   4.913   2.481  0.4442 -1.8397 -0.8466
 6872SOL     OW31084   9.982   4.650   0.062  0.6772 -0.5067 -0.1900
 6872SOL    HW131085  10.003   4.628  -0.033  1.8437 -1.8605  0.3543
 6872SOL    HW231086  10.062   4.693   0.105 -0.2156  1.0880 -0.1225
 6873SOL     OW31087   4.689   9.611   2.280 -0.2032 -0.2662  0.3571
 6873SOL    HW131088   4.785   9.618   2.253  0.0397 -0.7420  1.0865
 6873SOL    HW231089   4.634   9.584   2.201  0.7158 -3.1896  0.6754
 6874SOL     OW31090   9.601   7.338   3.221  0.3366 -0.1509 -0.0105
 6874SOL    HW131091   9.520   7.368   3.172  1.2068  1.8652 -0.2729
 6874SOL    HW231092   9.604   7.238   3.224 -1.4035 -0.2455 -1.2285
 6875SOL     OW31093   5.573   7.616   3.047  0.6180  1.0634  0.5683
 6875SOL    HW131094   5.552   7.647   3.139  0.7389 -1.5898  1.5349
 6875SOL    HW231095   5.495   7.564   3.011  0.9390  1.2838 -0.4615
 6876SOL     OW31096   3.625   0.781   3.028  0.8863  0.3849 -0.2720
 6876SOL    HW131097   3.546   0.769   3.087  2.3289  0.7385  1.7886
 6876SOL    HW231098   3.610   0.732   2.942 -1.9932  1.3395 -0.3717
 6877SOL     OW31099   3.892   4.667   0.325 -0.2733 -1.4557  0.1374
 6877SOL    HW131100   3.957   4.690   0.398  0.8108 -2.5848 -0.4665
 6877SOL    HW231101   3.801   4.657   0.365  0.6733 -4.2204  1.7562
 6878SOL     OW31102   8.263   9.488   3.150 -0.0787 -0.0447  0.4212
 6878SOL    HW131103   8.240   9.475   3.054  1.8716  2.1922 -0.4041
 6878SOL    HW231104   8.331   9.420   3.178  0.3928  0.1665 -0.1938
 6879SOL     OW31105   2.090   2.846   0.741 -0.3050 -0.1452  0.1813
 6879SOL    HW131106   2.063   2.759   0.702  1.8468 -0.9053  0.3203
 6879SOL    HW231107   2.163   2.886   0.686 -2.7978  2.7151 -1.2223
 6880SOL     OW31108   2.591   8.005   2.093  0.0220  0.2335  0.2427
 6880SOL    HW131109   2.569   7.912   2.065 -0.5586  0.2186  0.7331
 6880SOL    HW231110   2.623   8.057   2.013  1.7163 -0.7771  0.2435
 6881SOL     OW31111   8.437   8.029   1.612 -0.2471 -0.2830 -0.1693
 6881SOL    HW131112   8.406   8.064   1.524 -0.1913  0.4946  0.1089
 6881SOL    HW231113   8.476   7.938   1.601  1.8039  0.7090 -1.3275
 6882SOL     OW31114   4.196   3.948   4.508  0.3859 -0.3443 -0.4304
 6882SOL    HW131115   4.152   3.881   4.567  0.2576 -0.0372 -0.1754
 6882SOL    HW231116   4.137   3.968   4.430  0.2604 -0.2421 -0.3075
 6883SOL     OW31117   9.410   5.292   0.586 -0.2278  0.0343 -0.4326
 6883SOL    HW131118   9.382   5.363   0.521 -0.5433 -0.6397 -1.0452
 6883SOL    HW231119   9.370   5.205   0.558  0.0356 -0.3527  0.4014
 6884SOL     OW31120   0.524   1.419   3.268 -0.7958 -0.3656  0.0954
 6884SOL    HW131121   0.531   1.484   3.192 -0.6099 -0.4652  0.0274
 6884SOL    HW231122   0.473   1.339   3.238 -1.7543  0.1158  0.4266
 6885SOL     OW31123   9.170   0.509   2.132 -0.2088  0.4114 -0.6575
 6885SOL    HW131124   9.164   0.468   2.041 -2.1075 -0.2352 -0.2570
 6885SOL    HW231125   9.137   0.444   2.200  2.1312  0.5116  0.6396
 6886SOL     OW31126   3.287   6.530   3.083 -0.5409  0.0886  0.4553
 6886SOL    HW131127   3.358   6.505   3.017  0.9324  1.6107  1.4343
 6886SOL    HW231128   3.225   6.452   3.096  1.6817 -1.7140  0.5324
 6887SOL     OW31129   0.025   9.431   2.665  0.4258 -0.2081 -0.1580
 6887SOL    HW131130  -0.010   9.518   2.631  0.3746  0.1905  0.9118
 6887SOL    HW231131   0.067   9.381   2.590 -0.6264  0.2019 -1.0381
 6888SOL     OW31132   1.515   5.669   0.343  0.1896 -0.3669 -0.0777
 6888SOL    HW131133   1.504   5.767   0.362  0.8205 -0.6168  1.7166
 6888SOL    HW231134   1.611   5.644   0.358 -0.3879 -1.6747  1.6134
 6889SOL     OW31135   2.331   8.052   1.052 -0.4354 -0.2020  0.3579
 6889SOL    HW131136   2.362   8.139   1.093 -0.3585  0.6091 -1.3776
 6889SOL    HW231137   2.411   8.000   1.023 -0.5196 -0.3314  0.3608
 6890SOL     OW31138   1.254   4.539   0.254 -0.2018 -0.3629 -0.0690
 6890SOL    HW131139   1.229   4.536   0.157 -0.9767  1.6263  0.0475
 6890SOL    HW231140   1.312   4.618   0.271 -2.2136  0.8207  1.5517
 6891SOL     OW31141   3.930   6.848   3.178 -0.2212  0.1518 -0.0792
 6891SOL    HW131142   3.934   6.889   3.269 -0.0782  1.5427 -0.6977
 6891SOL    HW231143   4.023   6.832   3.145 -0.2793 -0.9004  0.2542
 6892SOL     OW31144   5.011   7.486   2.911  0.5486 -0.3189  0.4254
 6892SOL    HW131145   4.954   7.408   2.939  1.4651 -0.4356  2.0357
 6892SOL    HW231146   4.957   7.549   2.856 -0.7108 -1.1861  0.6470
 6893SOL     OW31147   2.290   5.388   4.672 -0.0978 -0.9789  0.4084
 6893SOL    HW131148   2.249   5.298   4.656 -1.7652 -0.2134  0.3422
 6893SOL    HW231149   2.262   5.451   4.600  1.6805 -0.5900  0.0429
 6894SOL     OW31150   0.724   8.018   2.840  0.4628  0.3417  0.0587
 6894SOL    HW131151   0.811   8.021   2.792 -0.3247 -0.8787 -1.4840
 6894SOL    HW231152   0.733   7.960   2.922  0.4641 -1.8584 -1.4578
 6895SOL     OW31153   8.603   7.753   2.618 -0.5420 -0.8681 -0.0671
 6895SOL    HW131154   8.632   7.738   2.524 -0.7895  0.0089 -0.2934
 6895SOL    HW231155   8.680   7.790   2.671 -1.5627  2.8818 -1.0312
 6896SOL     OW31156   3.749   5.401   1.735 -0.0612  0.1916 -0.4798
 6896SOL    HW131157   3.651   5.419   1.748  0.4302  2.4160  0.2886
 6896SOL    HW231158   3.782   5.452   1.656  0.6775  0.1287 -0.2139
 6897SOL     OW31159   1.284   9.233   4.108 -0.4407 -0.3325 -0.1862
 6897SOL    HW131160   1.247   9.188   4.026  1.8370  0.2976 -1.6100
 6897SOL    HW231161   1.296   9.165   4.180 -1.9158 -1.0080 -0.5536
 6898SOL     OW31162   8.185   7.417   1.947  0.0967  0.3500 -0.6997
 6898SOL    HW131163   8.263   7.429   1.886 -0.0727 -3.9112 -1.8656
 6898SOL    HW231164   8.217   7.382   2.035 -0.5256 -2.4951 -1.5595
 6899SOL     OW31165   2.981   3.655   4.311 -0.7437 -0.1702 -0.4088
 6899SOL    HW131166   3.069   3.607   4.318 -1.2826 -1.2346 -0.9594
 6899SOL    HW231167   2.991   3.747   4.351  0.2125 -0.8131  0.8887
 6900SOL     OW31168   2.016   6.406   4.751  0.5010 -0.3625 -0.3115
 6900SOL    HW131169   2.040   6.362   4.664  0.2703  0.0082 -0.5652
 6900SOL    HW231170   1.927   6.375   4.781 -0.1761  0.7772 -1.0736
 6901SOL     OW31171   3.075   1.266   4.400 -0.1718  0.3016 -0.2651
 6901SOL    HW131172   3.011   1.189   4.405  1.3114 -0.9164  0.8193
 6901SOL    HW231173   3.033   1.348   4.439 -1.7097  0.0001 -1.2641
 6902SOL     OW31174   1.497   0.995   2.394  0.4285  0.0874  0.1167
 6902SOL    HW131175   1.497   1.060   2.470 -0.9191  0.5845 -0.2890
 6902SOL    HW231176   1.558   0.920   2.415  1.7579  1.3170  0.7442
 6903SOL     OW31177   1.135   0.340   2.902 -0.1150  0.0143 -0.2031
 6903SOL    HW131178   1.085   0.417   2.863  2.7228  1.3878 -1.2588
 6903SOL    HW231179   1.183   0.291   2.830  2.6172  0.6527  1.1055
 6904SOL     OW31180   7.585   0.179   0.841  0.0060  0.0269 -0.3055
 6904SOL    HW131181   7.609   0.117   0.766 -0.0892  0.4012 -0.6506
 6904SOL    HW231182   7.661   0.184   0.905 -0.4280 -1.3299  0.3290
 6905SOL     OW31183   0.602   3.109   2.684  0.5642 -0.1904  0.5661
 6905SOL    HW131184   0.520   3.157   2.715  0.5054 -0.3931  0.7241
 6905SOL    HW231185   0.662   3.173   2.635  0.7637  0.1788  1.2889
 6906SOL     OW31186   4.150   8.366   2.099 -0.1321  0.0916 -0.4410
 6906SOL    HW131187   4.220   8.338   2.033 -0.4955 -0.0256 -0.7764
 6906SOL    HW231188   4.166   8.462   2.125  0.0632  0.1112 -0.6280
 6907SOL     OW31189   9.117   7.110   0.444  0.4262  0.0108 -0.2866
 6907SOL    HW131190   9.019   7.089   0.451  0.0970  0.8935 -1.8858
 6907SOL    HW231191   9.155   7.123   0.535 -1.0132 -0.0423  0.3411
 6908SOL     OW31192   2.433   9.308   4.576  0.7924 -0.3453  0.5106
 6908SOL    HW131193   2.521   9.316   4.529  1.3540  3.3577  1.9869
 6908SOL    HW231194   2.359   9.326   4.510  1.2826 -0.4576 -0.0798
 6909SOL     OW31195   9.748   9.812   3.906  0.4044 -0.6172 -0.0376
 6909SOL    HW131196   9.662   9.798   3.857  0.0222 -2.7810  1.1954
 6909SOL    HW231197   9.812   9.739   3.883  1.1484 -0.1985  0.6746
 6910SOL     OW31198   0.771   4.361   3.916 -0.7954  0.3653  0.2054
 6910SOL    HW131199   0.861   4.359   3.961 -1.1271 -2.5427  0.8736
 6910SOL    HW231200   0.747   4.455   3.894  2.4151  1.2075  0.0104
 6911SOL     OW31201   2.265   7.384   4.588  0.2883  0.4323 -0.5195
 6911SOL    HW131202   2.312   7.468   4.565  0.0523  0.7410  0.1132
 6911SOL    HW231203   2.310   7.340   4.666  0.1424  0.2067 -0.5599
 6912SOL     OW31204   2.903   7.817   3.038  0.2619 -0.1684 -0.5082
 6912SOL    HW131205   2.870   7.727   3.009 -2.2668  0.6952 -0.3875
 6912SOL    HW231206   2.923   7.815   3.135  0.4647 -0.6731 -0.5571
 6913SOL     OW31207   8.031   8.793   2.627 -0.1641 -0.3948  0.1929
 6913SOL    HW131208   8.091   8.863   2.666 -1.4935  0.3097  1.0157
 6913SOL    HW231209   8.042   8.789   2.528  0.5331  0.3919  0.2432
 6914SOL     OW31210   7.741   9.254   1.626 -0.3781 -0.6415  0.2382
 6914SOL    HW131211   7.797   9.197   1.566  1.2556  1.3766 -0.2347
 6914SOL    HW231212   7.784   9.259   1.716  0.0317  0.6011 -0.0140
 6915SOL     OW31213   0.819   8.957   1.536 -0.3409 -0.1919 -0.7515
 6915SOL    HW131214   0.817   9.055   1.554 -1.7610 -0.6644  1.8091
 6915SOL    HW231215   0.805   8.941   1.438 -0.7606  2.1115 -1.0952
 6916SOL     OW31216   1.076   3.156   3.094  0.3628  0.4532 -0.1616
 6916SOL    HW131217   0.981   3.126   3.101  1.0544 -2.2576 -1.6314
 6916SOL    HW231218   1.084   3.221   3.018 -0.2054  0.2681 -0.3832
 6917SOL     OW31219   4.377   4.528   0.287 -0.3443  0.1914  0.1429
 6917SOL    HW131220   4.288   4.492   0.261 -0.5716  0.5325  0.4450
 6917SOL    HW231221   4.379   4.545   0.385 -0.5662  1.8817 -0.1321
 6918SOL     OW31222   1.670   3.251   0.270  0.3210 -0.1877  0.5763
 6918SOL    HW131223   1.655   3.257   0.172 -0.2096  3.4174  0.8374
 6918SOL    HW231224   1.613   3.178   0.308  2.6053 -3.5318 -2.1311
 6919SOL     OW31225   0.893   6.535   0.324 -0.0715 -0.1095 -0.4995
 6919SOL    HW131226   0.991   6.552   0.317  0.1914 -0.9202  1.0803
 6919SOL    HW231227   0.875   6.464   0.393 -1.8980  1.5573  0.8331
 6920SOL     OW31228   1.618   1.476   2.330  0.2158 -1.2583  0.6031
 6920SOL    HW131229   1.578   1.567   2.344 -0.3209 -1.2901 -0.6548
 6920SOL    HW231230   1.567   1.409   2.383  0.5379 -0.8590  1.4442
 6921SOL     OW31231   9.309   9.241   2.194  0.3664  0.3621 -0.2927
 6921SOL    HW131232   9.380   9.276   2.133 -1.0129 -0.0346 -2.1407
 6921SOL    HW231233   9.305   9.299   2.276  2.0306  1.0635 -0.6767
 6922SOL     OW31234   3.376   1.731   3.272 -0.4023  0.0157 -0.3164
 6922SOL    HW131235   3.292   1.718   3.221 -0.1821 -0.4933 -0.5572
 6922SOL    HW231236   3.453   1.697   3.219  0.2888  2.8636 -1.2321
 6923SOL     OW31237   1.793   3.216   4.226 -0.5953  0.2202 -0.3540
 6923SOL    HW131238   1.887   3.225   4.193 -0.0340  0.8154  1.3635
 6923SOL    HW231239   1.767   3.120   4.228  0.3035 -0.0135  0.0673
 6924SOL     OW31240   4.064   3.454   4.218 -0.2444  0.4798  0.4251
 6924SOL    HW131241   4.122   3.446   4.137 -1.5692 -0.1048 -0.4960
 6924SOL    HW231242   4.077   3.543   4.261  0.6983  0.6708 -0.2571
 6925SOL     OW31243   5.015   9.807   3.467  0.6138 -0.0614 -0.2561
 6925SOL    HW131244   4.927   9.787   3.511  0.5915  1.7304  0.5526
 6925SOL    HW231245   5.004   9.806   3.368 -0.4890  0.8305 -0.1565
 6926SOL     OW31246   2.568   5.951   0.555  0.0206  0.4035  0.3445
 6926SOL    HW131247   2.483   5.970   0.506  0.9164  1.3429 -0.8860
 6926SOL    HW231248   2.594   6.031   0.609 -0.5574 -0.3546  1.7648
 6927SOL     OW31249   0.395   8.111   0.789  0.2345  0.1212 -0.9600
 6927SOL    HW131250   0.472   8.048   0.796 -1.0239 -1.3470  0.0051
 6927SOL    HW231251   0.317   8.064   0.747 -1.8506 -0.0875  2.8904
 6928SOL     OW31252   4.871   9.590   1.921  0.3159  0.1549 -0.0259
 6928SOL    HW131253   4.790   9.640   1.891 -0.7746 -0.8872  1.1535
 6928SOL    HW231254   4.866   9.496   1.887  1.3260  0.2433 -0.4378
 6929SOL     OW31255   0.457   3.971   0.066  0.0706 -0.2432 -0.1285
 6929SOL    HW131256   0.462   4.006   0.160 -1.3452 -1.1777  0.3256
 6929SOL    HW231257   0.463   4.047   0.001  0.2434  0.4997  0.7458
 6930SOL     OW31258   6.438   8.984   1.484 -0.0207  0.9506  0.5852
 6930SOL    HW131259   6.473   8.910   1.541  0.5577  1.2464  0.6157
 6930SOL    HW231260   6.478   8.979   1.393 -0.7561  0.6264  0.2720
 6931SOL     OW31261   4.304   0.781   0.823  0.3648 -0.4601 -0.0305
 6931SOL    HW131262   4.355   0.795   0.738 -0.1857 -0.7328 -0.4134
 6931SOL    HW231263   4.323   0.689   0.858 -0.3748 -0.8147 -0.5363
 6932SOL     OW31264   9.430   6.046   4.264  0.4894 -0.1689 -0.0597
 6932SOL    HW131265   9.497   6.118   4.287 -1.0226  1.0986  0.4797
 6932SOL    HW231266   9.429   5.978   4.337  0.0239  0.6893  0.7559
 6933SOL     OW31267   3.259   7.156   2.034 -0.2410  0.4836 -0.2912
 6933SOL    HW131268   3.200   7.236   2.024  2.0053  2.2481  0.2915
 6933SOL    HW231269   3.353   7.181   2.011  1.2053 -0.9772  3.5922
 6934SOL     OW31270   9.405   5.879   2.858 -0.2471  0.4718 -0.3841
 6934SOL    HW131271   9.353   5.928   2.928  2.0811  0.7025  1.2450
 6934SOL    HW231272   9.385   5.781   2.863 -1.6815  0.7344 -0.8139
 6935SOL     OW31273   9.262   4.846   1.001  0.2030  0.0633 -0.5549
 6935SOL    HW131274   9.350   4.808   1.028 -0.1522  0.2867  0.9340
 6935SOL    HW231275   9.226   4.904   1.074 -0.3598  1.4004 -1.8480
 6936SOL     OW31276   0.267   2.891   1.411 -0.4975 -0.0770 -0.4296
 6936SOL    HW131277   0.251   2.879   1.314  0.8797  1.1040 -0.8243
 6936SOL    HW231278   0.338   2.828   1.442 -1.9144 -1.4329  0.1291
 6937SOL     OW31279   0.568   4.624   0.684 -0.0003 -0.5311  0.2796
 6937SOL    HW131280   0.522   4.711   0.699 -2.6672 -1.9096  0.3849
 6937SOL    HW231281   0.554   4.595   0.589  1.8582 -0.3072 -0.0768
 6938SOL     OW31282   0.766   2.782   2.189  0.0899 -0.3473  0.5608
 6938SOL    HW131283   0.834   2.796   2.260  1.5060 -2.4185 -0.3312
 6938SOL    HW231284   0.694   2.721   2.223  0.7609 -1.3289  0.2279
 6939SOL     OW31285   3.087   5.649   4.770 -0.4528 -0.2946 -0.1545
 6939SOL    HW131286   3.146   5.571   4.793  0.5025  0.1121 -1.1783
 6939SOL    HW231287   2.997   5.616   4.741 -0.0093 -1.0268 -0.7131
 6940SOL     OW31288   6.555   7.820   3.097 -0.8526 -0.5525  0.0708
 6940SOL    HW131289   6.563   7.871   3.183  2.2908 -1.0297  0.1182
 6940SOL    HW231290   6.478   7.856   3.044 -0.4772  2.3437  1.3781
 6941SOL     OW31291   7.412   7.793   0.994 -0.3592  0.5271 -0.0021
 6941SOL    HW131292   7.463   7.708   0.978  0.1129  0.2594  2.7214
 6941SOL    HW231293   7.315   7.771   1.007 -0.9488  0.8576 -3.3356
 6942SOL     OW31294   2.146   5.150   4.643  0.4132 -0.1046  0.0285
 6942SOL    HW131295   2.139   5.146   4.742 -3.2369  0.1997 -0.1671
 6942SOL    HW231296   2.127   5.059   4.604 -0.6493  0.3260 -0.4868
 6943SOL     OW31297   0.136   7.743   3.041  0.1373 -0.0524  0.9023
 6943SOL    HW131298   0.189   7.720   3.123 -0.8951 -0.9780  1.3193
 6943SOL    HW231299   0.071   7.815   3.062 -0.6668 -0.8291  1.1095
 6944SOL     OW31300   2.719   8.913   3.021  0.4627  0.0709  0.5146
 6944SOL    HW131301   2.809   8.871   3.009  0.6624 -0.1492  2.6000
 6944SOL    HW231302   2.716   8.962   3.108 -1.4895 -0.0342  0.5382
 6945SOL     OW31303   3.528   0.579   2.048  0.3517 -0.5450  0.3498
 6945SOL    HW131304   3.584   0.605   2.127  0.3876 -0.1947  0.2058
 6945SOL    HW231305   3.579   0.513   1.992  0.0333 -1.3760  1.0218
 6946SOL     OW31306   6.862   9.760   0.939 -0.2903 -0.0140 -0.5165
 6946SOL    HW131307   6.762   9.759   0.950 -0.0099 -0.5706  2.2664
 6946SOL    HW231308   6.901   9.680   0.984  1.4961  0.6844 -0.8096
 6947SOL     OW31309   6.682   8.745   3.780 -0.4263  0.1450  0.2806
 6947SOL    HW131310   6.691   8.818   3.712 -0.0068  0.3892  0.5932
 6947SOL    HW231311   6.746   8.671   3.758 -0.2377  0.2559  0.4455
 6948SOL     OW31312   1.206   2.680   0.214 -0.1122  0.5872  0.5487
 6948SOL    HW131313   1.121   2.631   0.235 -0.3293  0.7603  0.0757
 6948SOL    HW231314   1.196   2.727   0.127  0.1494  1.3616  0.9374
 6949SOL     OW31315   1.312   1.797   2.204 -0.2636 -0.1882  0.4302
 6949SOL    HW131316   1.375   1.800   2.126 -0.6460  2.1942  0.1860
 6949SOL    HW231317   1.355   1.840   2.283 -0.6298 -0.8228  0.9752
 6950SOL     OW31318   3.966   7.298   3.173  0.6345  0.0893  0.1680
 6950SOL    HW131319   3.918   7.376   3.212  0.1744 -0.9804  1.7986
 6950SOL    HW231320   3.907   7.218   3.174  2.0295 -0.9653  1.1154
 6951SOL     OW31321   0.619   3.600   4.186 -0.5193 -0.1425  0.2406
 6951SOL    HW131322   0.596   3.672   4.251 -0.6944  0.5169 -0.5438
 6951SOL    HW231323   0.716   3.577   4.195 -0.4106  0.3573  0.3275
 6952SOL     OW31324   8.230   9.433   2.892  0.4768 -0.1753  0.3698
 6952SOL    HW131325   8.155   9.412   2.830 -1.0033 -0.6009  2.2449
 6952SOL    HW231326   8.316   9.436   2.841 -0.6789 -0.5788 -1.6587
 6953SOL     OW31327   1.193   0.329   4.644  0.1905  0.0609  0.3190
 6953SOL    HW131328   1.153   0.279   4.568  0.7708  1.0977 -0.6788
 6953SOL    HW231329   1.286   0.295   4.662  0.6479  0.8749 -0.4674
 6954SOL     OW31330   6.663   7.606   2.118 -0.3797 -0.4704 -0.4675
 6954SOL    HW131331   6.710   7.524   2.086 -1.2939 -1.1891  0.0082
 6954SOL    HW231332   6.720   7.654   2.185 -0.5078 -1.5763  0.4422
 6955SOL     OW31333   2.754   9.057   0.652 -0.7610  0.2548  0.3695
 6955SOL    HW131334   2.776   8.969   0.694  0.4932  0.4707  0.1896
 6955SOL    HW231335   2.679   9.100   0.702 -0.1164 -0.0592  1.6475
 6956SOL     OW31336   0.501   0.677   3.865  0.3628  0.1328 -0.3130
 6956SOL    HW131337   0.588   0.699   3.821  0.1085 -0.4303 -1.1209
 6956SOL    HW231338   0.510   0.595   3.920  1.2076  1.9659  2.3753
 6957SOL     OW31339   9.223   8.227   3.816  0.0134 -0.7250  0.1094
 6957SOL    HW131340   9.276   8.310   3.796  0.3599 -1.0259 -0.2193
 6957SOL    HW231341   9.198   8.182   3.730 -0.1295 -0.9918  0.2908
 6958SOL     OW31342   2.678   9.398   3.906  0.1216 -0.9202 -0.5298
 6958SOL    HW131343   2.740   9.339   3.956  0.6186  0.1142  0.0903
 6958SOL    HW231344   2.638   9.348   3.829  1.1869 -1.7927 -0.5164
 6959SOL     OW31345   0.556   7.056   4.635  0.4651  0.0612 -0.2404
 6959SOL    HW131346   0.525   7.094   4.722  1.6478  1.0736 -0.2554
 6959SOL    HW231347   0.608   6.972   4.652  1.9225  1.0322  0.1431
 6960SOL     OW31348   0.326   8.220   1.133  0.8669  0.3775 -0.7018
 6960SOL    HW131349   0.360   8.199   1.225  0.7553 -0.2408 -0.7960
 6960SOL    HW231350   0.364   8.153   1.068 -4.7343 -3.8157 -0.0225
 6961SOL     OW31351   1.367   6.861   3.244  0.2008  0.1140 -0.0102
 6961SOL    HW131352   1.281   6.829   3.205 -0.3951 -0.2441  1.5531
 6961SOL    HW231353   1.423   6.782   3.271 -0.2772  0.3517  1.7214
 6962SOL     OW31354   2.443   8.202   2.196  0.3366 -0.4586 -0.0352
 6962SOL    HW131355   2.490   8.121   2.161  0.0519 -1.0009  0.8378
 6962SOL    HW231356   2.421   8.189   2.293 -1.0649  0.0443 -0.2810
 6963SOL     OW31357   9.302   8.038   1.504 -0.1081  0.0843 -0.5598
 6963SOL    HW131358   9.269   8.009   1.414 -0.6413  1.0478 -0.6829
 6963SOL    HW231359   9.314   7.958   1.563 -1.1240 -0.4238 -1.0315
 6964SOL     OW31360   3.472   8.423   4.616 -0.6634 -0.8074  0.0552
 6964SOL    HW131361   3.524   8.408   4.532  0.0969  0.0497  0.3611
 6964SOL    HW231362   3.488   8.348   4.679 -0.4984 -0.9898 -0.2052
 6965SOL     OW31363   3.037   9.552   3.147 -0.1383  0.1861 -0.0373
 6965SOL    HW131364   3.018   9.648   3.124  0.1800 -0.0105 -1.1639
 6965SOL    HW231365   3.041   9.499   3.063 -0.0034 -0.7649  0.5706
 6966SOL     OW31366   4.381   8.977   2.361  0.0067  0.1011  0.0269
 6966SOL    HW131367   4.429   8.959   2.447  1.5572  1.5788 -0.4995
 6966SOL    HW231368   4.382   8.895   2.304 -0.8467 -0.8213  1.3227
 6967SOL     OW31369   9.207   6.039   2.432  0.1570  0.2603 -0.1971
 6967SOL    HW131370   9.271   6.041   2.509 -0.4297  1.4328  0.2847
 6967SOL    HW231371   9.249   6.080   2.352  0.2508  0.4150 -0.0698
 6968SOL     OW31372   6.453   0.928   2.628 -0.6288 -0.3511 -0.0004
 6968SOL    HW131373   6.381   0.910   2.562 -0.8097 -0.8912  0.3380
 6968SOL    HW231374   6.419   0.910   2.721  0.0455 -0.9921  0.1385
 6969SOL     OW31375   2.447   5.415   2.609  0.0291 -0.2956 -0.0115
 6969SOL    HW131376   2.353   5.430   2.580 -0.2714 -2.1838 -0.1226
 6969SOL    HW231377   2.447   5.362   2.694  0.9769  0.4035  0.4253
 6970SOL     OW31378   2.735   6.431   4.679 -0.1152  0.3124 -0.2320
 6970SOL    HW131379   2.695   6.469   4.762 -0.3169 -1.3010  0.4246
 6970SOL    HW231380   2.713   6.334   4.673  0.6219  0.2259 -1.7386
 6971SOL     OW31381   8.584   9.802   4.319  0.2616  0.2400 -0.3070
 6971SOL    HW131382   8.651   9.875   4.303  0.0827  0.1396 -1.5228
 6971SOL    HW231383   8.628   9.726   4.367  0.5199  1.0283  0.7169
 6972SOL     OW31384   1.140   1.986   1.916  0.6850 -0.1012 -0.7831
 6972SOL    HW131385   1.188   1.996   2.003  0.5386 -1.3319 -0.5508
 6972SOL    HW231386   1.132   1.889   1.893 -1.6996  0.0553 -0.7943
 6973SOL     OW31387   0.546   0.854   2.706 -0.2381  0.2786  0.5709
 6973SOL    HW131388   0.570   0.769   2.752 -0.8928  0.2743  0.9152
 6973SOL    HW231389   0.567   0.846   2.609  0.7837  0.1461  0.7948
 6974SOL     OW31390   0.542   4.974   2.813  0.0541 -0.1686 -0.4158
 6974SOL    HW131391   0.557   4.881   2.779  1.4866 -0.0875 -0.0118
 6974SOL    HW231392   0.549   5.039   2.736  0.7497 -0.2302 -0.4033
 6975SOL     OW31393   4.781   6.586   2.480  0.2394  0.5358 -0.3925
 6975SOL    HW131394   4.725   6.503   2.473  1.8076 -0.6081  0.1306
 6975SOL    HW231395   4.724   6.664   2.504 -1.3461 -0.2903 -1.4282
 6976SOL     OW31396   9.056   8.085   4.087 -0.1525 -0.5608 -0.2156
 6976SOL    HW131397   8.964   8.123   4.098 -0.2718 -0.8296 -0.2930
 6976SOL    HW231398   9.056   7.989   4.114 -0.3677 -1.1537 -2.2243
 6977SOL     OW31399   3.068   2.552   2.584  0.0187  0.1979 -0.1626
 6977SOL    HW131400   3.035   2.642   2.554  0.4907  0.2463 -0.5605
 6977SOL    HW231401   3.138   2.520   2.520 -1.4328 -1.2813 -1.0522
 6978SOL     OW31402   7.314   7.673   2.612  0.6818  0.3368 -0.4772
 6978SOL    HW131403   7.237   7.699   2.669  0.3755 -0.0943 -0.6896
 6978SOL    HW231404   7.396   7.664   2.669  0.3463 -0.2424 -0.0843
 6979SOL     OW31405   4.195   3.766   4.013 -0.5731  0.1886  0.2592
 6979SOL    HW131406   4.211   3.735   4.107  0.6458  1.6223  0.5306
 6979SOL    HW231407   4.202   3.865   4.009  0.9170  0.0197 -1.6476
 6980SOL     OW31408   9.814   7.824   4.344 -0.2006 -0.0073 -0.2438
 6980SOL    HW131409   9.864   7.817   4.431  1.9946 -5.0344 -1.7110
 6980SOL    HW231410   9.720   7.793   4.357  0.6819 -2.7397  0.0457
 6981SOL     OW31411   2.038   4.424   2.503  0.1251 -0.0544  0.0790
 6981SOL    HW131412   2.089   4.387   2.581 -0.6925  0.0187  0.6600
 6981SOL    HW231413   2.026   4.523   2.516  0.3845  0.0353 -0.3702
 6982SOL     OW31414   1.521   0.098   3.152 -0.4553 -0.3818 -0.0316
 6982SOL    HW131415   1.473   0.182   3.126 -0.9363 -0.4919  0.4982
 6982SOL    HW231416   1.456   0.030   3.185 -0.1274 -1.1857 -1.0162
 6983SOL     OW31417   5.665   9.374   3.239 -0.4553  0.3217 -0.2025
 6983SOL    HW131418   5.576   9.340   3.207 -0.4771 -0.2019  0.3878
 6983SOL    HW231419   5.651   9.454   3.297 -0.5966 -0.0873  0.3412
 6984SOL     OW31420   3.737   0.223   2.345  0.0778  0.2867 -0.0852
 6984SOL    HW131421   3.769   0.130   2.358 -1.7718 -0.2767  0.5568
 6984SOL    HW231422   3.773   0.282   2.417 -1.3130 -0.5977  1.3638
 6985SOL     OW31423   9.632   0.066   1.941 -0.2109 -0.6274 -0.3794
 6985SOL    HW131424   9.605  -0.025   1.971 -1.6392 -0.5357 -1.3301
 6985SOL    HW231425   9.677   0.115   2.016 -0.4255 -1.7108  0.4550
 6986SOL     OW31426   4.588   8.553   3.527  0.8596  0.3579  0.6681
 6986SOL    HW131427   4.590   8.464   3.573  1.1798  0.7545  1.4295
 6986SOL    HW231428   4.504   8.560   3.472  0.8336 -0.4096  0.6065
 6987SOL     OW31429   0.616   0.245   3.191 -0.8138 -0.2287 -0.1510
 6987SOL    HW131430   0.620   0.166   3.252  0.5595  1.0349  1.4209
 6987SOL    HW231431   0.627   0.215   3.096  2.2108 -1.6707  0.6137
 6988SOL     OW31432   2.796   5.401   4.264  0.2570  0.2638  0.3201
 6988SOL    HW131433   2.826   5.452   4.183 -1.2991  0.5646 -0.0838
 6988SOL    HW231434   2.757   5.465   4.330  0.7473 -0.0856  0.9457
 6989SOL     OW31435   1.214   3.284   4.611  0.0638  0.5753 -0.4274
 6989SOL    HW131436   1.255   3.290   4.702  0.8087  0.3614 -0.7472
 6989SOL    HW231437   1.256   3.352   4.551  0.9338 -0.5635 -1.1293
 6990SOL     OW31438   0.615   1.019   4.096 -0.5800 -0.5705  0.0347
 6990SOL    HW131439   0.701   0.979   4.127 -0.2813 -1.8862 -2.4209
 6990SOL    HW231440   0.545   1.007   4.167  1.2983  0.7818  2.1718
 6991SOL     OW31441   3.624   1.472   2.146 -0.4113 -0.1213 -0.1159
 6991SOL    HW131442   3.542   1.436   2.191  0.4410 -1.2782  0.5432
 6991SOL    HW231443   3.688   1.505   2.215  0.2372 -0.4415 -0.5606
 6992SOL     OW31444   2.998   7.592   3.329  0.0711  0.2794 -0.0462
 6992SOL    HW131445   2.937   7.669   3.349 -0.3392  0.3224 -1.4422
 6992SOL    HW231446   3.040   7.560   3.414 -0.3192  1.5685  0.6366
 6993SOL     OW31447   4.252   9.422   2.936  0.0545 -0.1163  0.5559
 6993SOL    HW131448   4.321   9.391   2.870  0.9239 -0.0149  1.4138
 6993SOL    HW231449   4.296   9.446   3.022 -1.0768 -0.2573  1.1896
 6994SOL     OW31450   7.290   7.934   1.959  0.2281  0.2363 -0.7704
 6994SOL    HW131451   7.352   8.012   1.950  0.2503  0.2807 -0.2222
 6994SOL    HW231452   7.337   7.860   2.007 -0.3397  0.4822  0.1734
 6995SOL     OW31453   1.784   2.878   2.398  0.0742 -0.1196  0.4178
 6995SOL    HW131454   1.729   2.945   2.448  1.2209  0.1950  1.2883
 6995SOL    HW231455   1.867   2.857   2.450  1.3190  0.2265 -1.3588
 6996SOL     OW31456   9.930   8.411   2.558 -0.1473 -0.5955 -0.5769
 6996SOL    HW131457  10.012   8.409   2.501 -0.3991  1.0671 -1.0394
 6996SOL    HW231458   9.956   8.431   2.652 -0.0743  0.7828 -0.8773
 6997SOL     OW31459   3.433   0.163   3.704 -0.0793 -0.0457 -0.6453
 6997SOL    HW131460   3.466   0.077   3.667 -1.5105 -0.6306 -0.5812
 6997SOL    HW231461   3.417   0.228   3.629 -4.1581 -1.6307 -1.2589
 6998SOL     OW31462   2.007   5.298   4.412 -0.3829 -0.0030 -0.1370
 6998SOL    HW131463   1.908   5.290   4.424 -0.4534  0.3687 -0.4738
 6998SOL    HW231464   2.053   5.234   4.473 -0.7769  1.1030  1.3430
 6999SOL     OW31465   0.901   9.270   0.627 -0.3344 -0.6120 -0.1297
 6999SOL    HW131466   0.894   9.311   0.536 -0.6300  1.7768  0.9302
 6999SOL    HW231467   0.976   9.204   0.628  0.7322  0.5301 -1.6744
 7000SOL     OW31468   2.767   1.161   4.032  0.4678 -0.2252 -0.0853
 7000SOL    HW131469   2.754   1.182   4.129  1.5707 -1.9045  0.4497
 7000SOL    HW231470   2.829   1.227   3.991  0.4168  0.1742  0.4831
 7001SOL     OW31471   0.900   8.619   4.119  0.0628 -0.3840  0.4089
 7001SOL    HW131472   0.968   8.554   4.154 -0.0034  0.2526  1.7594
 7001SOL    HW231473   0.816   8.610   4.172 -1.1123 -1.5442 -1.5993
 7002SOL     OW31474   5.559   8.094   1.767  0.8056  0.8927  0.0468
 7002SOL    HW131475   5.561   7.994   1.775  2.7818  0.8448 -0.9136
 7002SOL    HW231476   5.550   8.119   1.671  2.3594  1.6412  0.0857
 7003SOL     OW31477   9.017   0.116   0.170  0.1719 -0.1301 -0.3849
 7003SOL    HW131478   8.925   0.082   0.150  0.5222 -0.4080 -1.6016
 7003SOL    HW231479   9.083   0.041   0.158  0.7536  0.5158 -1.3265
 7004SOL     OW31480   4.400   0.885   4.051 -0.1406 -0.1078  0.0628
 7004SOL    HW131481   4.311   0.846   4.025 -0.4044  0.8053 -0.4371
 7004SOL    HW231482   4.406   0.978   4.015  0.5974  0.2025  0.9997
 7005SOL     OW31483   2.102   3.711   1.502  0.1173 -0.1956 -0.1361
 7005SOL    HW131484   2.029   3.663   1.454 -1.9085  0.5681  2.0707
 7005SOL    HW231485   2.157   3.644   1.554  0.3342 -0.6431 -0.9277
 7006SOL     OW31486   1.922   3.458   4.406  0.4667  0.4864 -0.0830
 7006SOL    HW131487   1.930   3.360   4.385  1.1047  0.8390 -1.5767
 7006SOL    HW231488   1.928   3.472   4.505  1.5271 -0.8755  0.0540
 7007SOL     OW31489   3.287   2.328   3.079 -0.3482 -0.3495 -0.5047
 7007SOL    HW131490   3.348   2.268   3.131 -0.3802  1.4788  1.7304
 7007SOL    HW231491   3.328   2.347   2.989  1.6514 -0.4218  0.3516
 7008SOL     OW31492   2.118   7.341   4.267  0.6724  0.3686 -0.0946
 7008SOL    HW131493   2.035   7.363   4.317  1.9407  0.1251  2.1471
 7008SOL    HW231494   2.163   7.425   4.237 -0.2126  0.5061 -1.0717
 7009SOL     OW31495   1.238   3.560   1.811  0.9995  0.0707 -0.0232
 7009SOL    HW131496   1.272   3.618   1.885  1.9877  0.3302 -0.6622
 7009SOL    HW231497   1.139   3.564   1.808  0.9388 -0.0644  1.3880
 7010SOL     OW31498   0.470   5.071   4.359  0.3216 -0.1753 -0.1055
 7010SOL    HW131499   0.554   5.055   4.412 -0.1018  0.8442  0.8984
 7010SOL    HW231500   0.413   5.138   4.407 -0.1434  0.6632 -1.7978
 7011SOL     OW31501   3.641   2.936   1.010 -0.1347  0.1050  0.4033
 7011SOL    HW131502   3.560   2.971   1.057 -0.6388  0.1886 -0.5048
 7011SOL    HW231503   3.659   2.993   0.929 -0.6859 -1.4453 -0.8330
 7012SOL     OW31504   1.851   7.128   3.717 -0.2739  0.0954 -0.3577
 7012SOL    HW131505   1.886   7.076   3.639 -0.6352 -0.7003  0.0070
 7012SOL    HW231506   1.888   7.090   3.801  0.1891  1.0128 -0.1329
 7013SOL     OW31507   0.539   6.444   0.026 -0.1741  0.2587 -0.2773
 7013SOL    HW131508   0.497   6.359   0.058 -0.8570 -0.1605 -2.1986
 7013SOL    HW231509   0.626   6.424  -0.019 -0.1825  0.6008 -0.4534
 7014SOL     OW31510   6.993   0.608   3.186 -0.1523 -0.3123  0.3868
 7014SOL    HW131511   7.010   0.530   3.246 -1.9776 -0.7467  0.3434
 7014SOL    HW231512   7.003   0.581   3.091  1.2425  0.0172  0.4252
 7015SOL     OW31513   0.998   8.375   0.834 -0.4468 -0.1086 -0.1351
 7015SOL    HW131514   0.954   8.437   0.899  0.5445 -0.9886  1.4107
 7015SOL    HW231515   1.067   8.321   0.882  1.9013  0.8232 -2.3896
 7016SOL     OW31516   9.595   7.619   1.204 -0.5549 -0.4502  0.1784
 7016SOL    HW131517   9.615   7.675   1.285  0.5323  0.6363 -0.8201
 7016SOL    HW231518   9.507   7.646   1.166  0.7494  1.8981 -1.3348
 7017SOL     OW31519   0.246   6.567   0.140 -0.0656 -0.1292 -0.3440
 7017SOL    HW131520   0.318   6.605   0.082  0.3179 -0.5333 -0.1375
 7017SOL    HW231521   0.288   6.512   0.213 -0.4701  1.4702  1.1225
 7018SOL     OW31522   2.910   9.457   1.015  0.2244  0.6878 -0.0709
 7018SOL    HW131523   2.991   9.402   0.994 -0.2620 -0.3217  0.6605
 7018SOL    HW231524   2.830   9.414   0.974 -0.4182 -0.1434  1.9848
 7019SOL     OW31525   1.313   1.338   1.584 -0.2253  0.0487  0.3634
 7019SOL    HW131526   1.412   1.349   1.578 -0.1830 -0.3320  0.3607
 7019SOL    HW231527   1.277   1.305   1.497 -0.3688  0.2932  0.3287
 7020SOL     OW31528   9.411   5.915   4.745  0.3872  0.0645  0.2565
 7020SOL    HW131529   9.438   5.942   4.838 -0.7521  0.5690  0.4417
 7020SOL    HW231530   9.410   5.815   4.738  0.1202  0.0225  0.8898
 7021SOL     OW31531   1.944   3.153   2.184  0.0887 -0.2585 -0.1788
 7021SOL    HW131532   1.967   3.217   2.258  1.8509 -1.0601  0.0023
 7021SOL    HW231533   2.010   3.164   2.109 -0.3700 -0.9712 -0.6842
 7022SOL     OW31534   2.080   9.249   1.419  0.3743 -1.1385  0.7776
 7022SOL    HW131535   2.145   9.204   1.358 -0.4481  0.4634 -1.3804
 7022SOL    HW231536   2.125   9.326   1.465  0.0847 -0.0965 -0.6334
 7023SOL     OW31537   0.421   0.605   2.057 -0.5774 -0.1490  0.7549
 7023SOL    HW131538   0.365   0.620   1.975 -0.7525  1.6656  1.1865
 7023SOL    HW231539   0.514   0.581   2.029 -0.9057 -0.6063  0.0274
 7024SOL     OW31540   1.055   6.087   4.529 -0.1370 -0.4677 -0.5441
 7024SOL    HW131541   0.990   6.017   4.557  0.4617  0.2114  2.8011
 7024SOL    HW231542   1.035   6.172   4.577  3.1637 -0.2486  0.5895
 7025SOL     OW31543   9.435   6.798   2.138 -0.0170 -0.7595 -0.1415
 7025SOL    HW131544   9.461   6.772   2.045 -1.1312 -0.5520 -0.5135
 7025SOL    HW231545   9.484   6.740   2.203  0.2935 -1.3262 -0.8675
 7026SOL     OW31546   6.519   9.816   2.464  0.5181  0.2446 -0.4416
 7026SOL    HW131547   6.545   9.766   2.381 -0.3986 -0.6610 -0.1949
 7026SOL    HW231548   6.435   9.868   2.447 -0.6189 -1.2792  0.3917
 7027SOL     OW31549   4.065   8.956   0.083  0.1219 -0.4290 -0.1984
 7027SOL    HW131550   4.021   9.010   0.011  1.3714  0.6436 -0.1881
 7027SOL    HW231551   4.035   8.989   0.172  1.6713  0.9747 -0.1719
 7028SOL     OW31552   9.712   0.834   2.722  0.1360  0.5505  0.2293
 7028SOL    HW131553   9.803   0.847   2.761  0.1458  2.1293 -0.2906
 7028SOL    HW231554   9.686   0.914   2.668 -0.5727 -0.8621 -1.6291
 7029SOL     OW31555   8.139   8.247   0.478 -0.9551 -0.0177 -0.3790
 7029SOL    HW131556   8.063   8.264   0.541 -0.7179  0.3861 -0.1987
 7029SOL    HW231557   8.109   8.185   0.406 -2.0313  1.6017 -1.3756
 7030SOL     OW31558   0.017   6.867   2.608  0.2002 -0.6963 -0.4957
 7030SOL    HW131559  -0.074   6.837   2.578  1.1072 -0.1724 -3.9668
 7030SOL    HW231560   0.061   6.794   2.660 -2.7313 -0.4409  2.4732
 7031SOL     OW31561   0.399   9.145   0.759  0.0021  1.2374 -0.0647
 7031SOL    HW131562   0.391   9.155   0.858  1.0481  1.9356 -0.0361
 7031SOL    HW231563   0.463   9.214   0.724  0.4779  0.3022 -1.0776
 7032SOL     OW31564   3.771   2.058   1.449  0.2147  0.0418 -0.1365
 7032SOL    HW131565   3.688   2.002   1.446 -1.0514  1.9677 -1.7508
 7032SOL    HW231566   3.766   2.120   1.527  0.0398  0.3241 -0.3743
 7033SOL     OW31567   4.713   2.090   0.831 -0.5302 -0.0784  0.3066
 7033SOL    HW131568   4.677   2.017   0.773  1.1329 -1.4155  0.9002
 7033SOL    HW231569   4.655   2.099   0.912 -2.1462  0.9552 -0.9419
 7034SOL     OW31570   0.507   1.118   2.197  0.7378  0.0677  0.4254
 7034SOL    HW131571   0.522   1.178   2.276  0.9445  0.1590  0.3165
 7034SOL    HW231572   0.500   1.174   2.114  4.1113 -0.2710 -0.1420
 7035SOL     OW31573   4.465   1.169   1.073  0.0157 -0.3073  0.6922
 7035SOL    HW131574   4.405   1.154   0.994  0.4327 -2.3505  0.7280
 7035SOL    HW231575   4.541   1.228   1.047 -0.9337  0.6871  0.1236
 7036SOL     OW31576   2.530   9.460   0.221 -0.4644 -0.0619  0.2189
 7036SOL    HW131577   2.465   9.476   0.296 -1.9343  0.8661 -1.2254
 7036SOL    HW231578   2.496   9.386   0.163  0.2571 -0.2090 -0.0131
 7037SOL     OW31579   1.677   7.806   4.320 -0.3269  0.0274 -0.0935
 7037SOL    HW131580   1.648   7.712   4.303 -0.1269 -0.3498  1.6066
 7037SOL    HW231581   1.758   7.807   4.377 -0.9955  1.2643  0.8625
 7038SOL     OW31582   2.384   3.996   3.051  0.5472 -0.3878  0.0877
 7038SOL    HW131583   2.379   3.921   3.118 -0.5830 -0.9665 -0.6283
 7038SOL    HW231584   2.323   3.976   2.974  0.6491  1.0213 -0.3715
 7039SOL     OW31585   7.426   9.550   4.146 -0.2678 -0.1136  0.6030
 7039SOL    HW131586   7.326   9.560   4.144 -0.3906 -1.0913  1.4886
 7039SOL    HW231587   7.450   9.459   4.180  0.9014 -0.7190 -1.7596
 7040SOL     OW31588   1.036   4.929   1.885 -0.4826 -0.0595 -0.3299
 7040SOL    HW131589   0.941   4.938   1.856 -0.6331 -0.4034  0.0527
 7040SOL    HW231590   1.074   5.019   1.904 -0.8746  0.0411 -0.0331
 7041SOL     OW31591   2.341   7.271   1.611  0.8312  0.3444  0.6189
 7041SOL    HW131592   2.328   7.297   1.515  1.1942  2.8629  1.1996
 7041SOL    HW231593   2.262   7.218   1.642  0.1669  0.5037 -0.7494
 7042SOL     OW31594   9.128   0.355   3.617  0.0272  0.0744  0.1909
 7042SOL    HW131595   9.149   0.337   3.713  0.4263 -0.9792 -0.0861
 7042SOL    HW231596   9.069   0.282   3.582  0.1347  0.2937 -0.4522
 7043SOL     OW31597   9.086   6.338   2.737 -0.4971 -0.3935 -0.2055
 7043SOL    HW131598   9.076   6.388   2.651  0.7458  0.0501 -0.0947
 7043SOL    HW231599   9.115   6.401   2.809  2.8619 -1.5770 -0.4627
 7044SOL     OW31600   3.857   7.638   1.531  0.6741  0.3876 -0.1732
 7044SOL    HW131601   3.846   7.618   1.628  1.5079  1.1183  0.0762
 7044SOL    HW231602   3.807   7.722   1.508 -0.6662 -0.5255 -0.6734
 7045SOL     OW31603   9.636   7.883   3.256 -0.3169  0.3360  0.6831
 7045SOL    HW131604   9.581   7.806   3.288  0.9855 -0.8096  0.2015
 7045SOL    HW231605   9.601   7.968   3.296 -0.7119 -0.6862  2.5453
 7046SOL     OW31606   5.988   0.805   1.760  0.1308 -0.0911  0.3650
 7046SOL    HW131607   6.070   0.757   1.792  0.5162 -0.1270 -0.6618
 7046SOL    HW231608   5.984   0.896   1.802  1.3665  0.3945 -0.5305
 7047SOL     OW31609   3.476   4.685   2.561  0.0151 -0.3065 -0.4031
 7047SOL    HW131610   3.511   4.594   2.541  0.2074 -0.0362 -1.3130
 7047SOL    HW231611   3.550   4.743   2.596  0.2052 -0.1004 -1.1384
 7048SOL     OW31612   4.530   8.111   2.077  0.7233  0.1344  0.3253
 7048SOL    HW131613   4.532   8.112   2.177  0.9337  1.8393  0.3171
 7048SOL    HW231614   4.483   8.028   2.046  1.4878 -0.8871  1.8028
 7049SOL     OW31615   1.155   9.109   1.542  0.2844 -0.2450 -0.1299
 7049SOL    HW131616   1.122   9.192   1.498  0.4866  0.0509  0.2680
 7049SOL    HW231617   1.162   9.036   1.475  3.5268  1.0149 -1.2484
 7050SOL     OW31618   8.522   8.876   1.905 -0.0294  0.0514  0.4627
 7050SOL    HW131619   8.505   8.878   1.807  0.9404  0.4513  0.2925
 7050SOL    HW231620   8.620   8.871   1.921 -0.0309  2.3720  1.4171
 7051SOL     OW31621   0.458   8.396   0.246  0.1234  0.0424 -0.0719
 7051SOL    HW131622   0.464   8.481   0.195  0.9749 -0.5508 -0.9819
 7051SOL    HW231623   0.414   8.326   0.190 -1.6657  0.2099  1.1099
 7052SOL     OW31624   1.813   2.752   3.123  0.1085 -0.2442  0.0004
 7052SOL    HW131625   1.798   2.839   3.076  0.6520 -0.4573 -0.5614
 7052SOL    HW231626   1.906   2.720   3.107 -0.1512 -1.0355  0.0399
 7053SOL     OW31627   6.315   7.560   1.728 -0.0672 -0.2866 -0.2586
 7053SOL    HW131628   6.339   7.492   1.659 -1.5003  0.5905 -1.6518
 7053SOL    HW231629   6.398   7.603   1.763  0.6390 -0.3450 -1.8400
 7054SOL     OW31630   3.342   0.398   0.974 -0.8049  0.6241  0.2305
 7054SOL    HW131631   3.265   0.350   0.932 -1.2692  0.5758  1.1054
 7054SOL    HW231632   3.409   0.422   0.904 -0.3646 -1.6647 -0.1942
 7055SOL     OW31633   3.770   9.074   1.704 -0.1528  0.4727  0.3509
 7055SOL    HW131634   3.868   9.060   1.688 -0.3484 -0.9719  0.4012
 7055SOL    HW231635   3.759   9.147   1.772  0.8994  0.4597  0.5577
 7056SOL     OW31636   2.957   3.501   1.736 -0.6850  0.0441  0.5864
 7056SOL    HW131637   3.003   3.491   1.824 -1.1733 -1.3375  0.6907
 7056SOL    HW231638   3.018   3.547   1.671 -0.5151  1.5717  1.7857
 7057SOL     OW31639   0.738   4.086   3.849  0.6152 -0.0196 -0.1745
 7057SOL    HW131640   0.655   4.054   3.894  1.8715 -2.0705  0.7417
 7057SOL    HW231641   0.766   4.174   3.887  1.1202 -1.2650  2.4008
 7058SOL     OW31642   0.272   7.852   1.327 -0.0516  0.4816 -0.1313
 7058SOL    HW131643   0.360   7.805   1.329  0.7509  1.9671 -0.2471
 7058SOL    HW231644   0.286   7.951   1.323 -1.7227  0.7269 -0.5167
 7059SOL     OW31645   3.762   3.533   4.572  0.0178  0.0025 -0.4613
 7059SOL    HW131646   3.747   3.592   4.651  2.3096 -2.0462  1.6098
 7059SOL    HW231647   3.826   3.576   4.509  0.1919  0.5261  0.0702
 7060SOL     OW31648   0.019   4.131   2.133 -0.1082  0.5475 -0.6099
 7060SOL    HW131649   0.048   4.177   2.049 -0.2597 -1.4036 -1.7515
 7060SOL    HW231650   0.090   4.140   2.203  1.3863 -0.5327 -1.9803
 7061SOL     OW31651   2.922   8.431   3.073 -0.1035  0.2735  0.2477
 7061SOL    HW131652   2.844   8.385   3.115 -0.3312  0.4696  0.0421
 7061SOL    HW231653   2.891   8.515   3.027  0.1466  0.0896 -0.2683
 7062SOL     OW31654   1.881   7.898   2.261  0.1944 -0.1534  0.1476
 7062SOL    HW131655   1.926   7.813   2.287 -0.2853 -0.8393 -1.2099
 7062SOL    HW231656   1.913   7.927   2.171 -1.6913 -0.4017 -0.6448
 7063SOL     OW31657   5.765   9.773   3.568  0.4733  0.0919 -0.1792
 7063SOL    HW131658   5.731   9.861   3.603 -1.4408 -0.2414 -1.0817
 7063SOL    HW231659   5.707   9.699   3.603  1.1041 -0.6439 -0.6840
 7064SOL     OW31660   1.430   4.814   4.685 -0.2864  0.6318  0.2788
 7064SOL    HW131661   1.502   4.823   4.616  0.4877  1.0936  1.1319
 7064SOL    HW231662   1.462   4.854   4.771 -1.1782 -0.0976  0.9510
 7065SOL     OW31663   9.984   9.554   2.923  0.6388 -0.0508 -0.5809
 7065SOL    HW131664   9.988   9.498   2.840 -2.4351  0.6498 -1.2691
 7065SOL    HW231665   9.906   9.526   2.979  1.8470  0.4250  1.4212
 7066SOL     OW31666   0.083   0.816   2.093 -0.6951 -0.1842 -0.0284
 7066SOL    HW131667   0.106   0.903   2.050 -2.9406 -0.2957 -1.5671
 7066SOL    HW231668   0.133   0.806   2.178  0.0930  2.3180 -0.1722
 7067SOL     OW31669   6.859   0.327   3.339 -0.4070  0.1975  0.3178
 7067SOL    HW131670   6.923   0.370   3.404 -1.7567  0.6103  1.3922
 7067SOL    HW231671   6.909   0.261   3.284  1.4642  2.2428 -0.5424
 7068SOL     OW31672   9.099   0.327   3.885 -0.1771  0.3122 -0.0081
 7068SOL    HW131673   9.136   0.328   3.978 -0.9800  2.9818  0.3086
 7068SOL    HW231674   9.005   0.291   3.886  0.0311 -0.2363  0.1058
 7069SOL     OW31675   1.682   6.706   3.818  0.0010 -0.0893  0.1925
 7069SOL    HW131676   1.690   6.771   3.743  1.7470 -0.3072  0.1513
 7069SOL    HW231677   1.754   6.725   3.886  1.1211 -2.4982 -0.2670
 7070SOL     OW31678   0.716   1.222   2.763  0.5159  0.6724  0.1342
 7070SOL    HW131679   0.660   1.139   2.757  1.6901 -0.0627 -0.8918
 7070SOL    HW231680   0.733   1.243   2.860 -0.6882  0.3490  0.4322
 7071SOL     OW31681   1.975   2.226   0.877  0.5947 -0.2549 -0.2401
 7071SOL    HW131682   1.995   2.203   0.972 -0.0124 -0.8023 -0.2418
 7071SOL    HW231683   1.926   2.313   0.872 -2.2048 -1.7597  0.1917
 7072SOL     OW31684   2.774   9.056   1.030 -0.3414 -0.3530  0.4621
 7072SOL    HW131685   2.760   9.113   0.949  1.0379  1.0295  1.1772
 7072SOL    HW231686   2.739   9.104   1.111  1.8880  0.0133  1.2349
 7073SOL     OW31687   1.118   6.103   2.463  0.1634 -0.1813  0.0285
 7073SOL    HW131688   1.213   6.116   2.493  0.4917  0.0889 -1.0889
 7073SOL    HW231689   1.109   6.134   2.368 -0.7035 -1.6235 -0.3688
 7074SOL     OW31690   0.860   6.676   1.533  0.0877  0.4260 -0.1166
 7074SOL    HW131691   0.933   6.720   1.585 -0.4115  0.0748  0.8990
 7074SOL    HW231692   0.898   6.637   1.448  1.0738  0.2521  0.3913
 7075SOL     OW31693   6.473   9.795   0.542 -0.0086  1.2001 -0.0159
 7075SOL    HW131694   6.493   9.761   0.450 -1.1286  0.2823  0.0677
 7075SOL    HW231695   6.374   9.793   0.558  0.2807 -0.2653  1.8074
 7076SOL     OW31696   8.227   6.903   3.366  0.4176  0.5902  0.3701
 7076SOL    HW131697   8.205   6.918   3.270 -1.0057 -1.2200  0.3825
 7076SOL    HW231698   8.278   6.818   3.376  0.5973  0.7929  1.2184
 7077SOL     OW31699   3.723   4.219   0.220  0.2487 -0.2443  0.1091
 7077SOL    HW131700   3.779   4.204   0.302  1.0089  0.3216 -0.3050
 7077SOL    HW231701   3.734   4.314   0.189 -1.0203 -0.1004  0.0853
 7078SOL     OW31702   4.596   8.272   2.692  0.4882  0.0228  0.1867
 7078SOL    HW131703   4.626   8.271   2.787  0.3762  0.7952  0.2303
 7078SOL    HW231704   4.612   8.363   2.652 -2.9027  0.8565  0.5705
 7079SOL     OW31705   5.800   7.148   2.696 -0.0712 -0.3929  0.2101
 7079SOL    HW131706   5.713   7.192   2.676 -0.9857 -2.1314  0.3047
 7079SOL    HW231707   5.830   7.094   2.618  1.6463  1.3238 -0.3527
 7080SOL     OW31708   3.665   8.633   2.864  0.2495 -0.0684  0.5202
 7080SOL    HW131709   3.650   8.555   2.803  1.6467 -0.2832  0.4387
 7080SOL    HW231710   3.642   8.608   2.958 -1.3258  0.0753  0.1901
 7081SOL     OW31711   9.002   9.556   1.052  0.5120  0.3303  0.3006
 7081SOL    HW131712   9.050   9.483   1.002  0.2579 -1.6657  2.8812
 7081SOL    HW231713   9.039   9.563   1.144 -2.8099  0.0476  1.7352
 7082SOL     OW31714   1.072   4.033   3.316 -0.0926 -0.2098  0.4186
 7082SOL    HW131715   1.112   4.119   3.285 -0.9547 -0.2513 -0.8504
 7082SOL    HW231716   1.083   4.024   3.415  1.6139  0.5082  0.3079
 7083SOL     OW31717   4.484   2.470   1.339  0.0606  0.5675 -0.7490
 7083SOL    HW131718   4.539   2.399   1.294  0.2545  0.5126 -0.4310
 7083SOL    HW231719   4.485   2.454   1.438 -0.2265  0.7813 -0.7131
 7084SOL     OW31720   9.475   8.798   0.111 -0.3096 -0.2701  0.2178
 7084SOL    HW131721   9.545   8.861   0.145 -0.3282 -0.6855  1.0428
 7084SOL    HW231722   9.508   8.752   0.029  0.3286 -0.3594  0.5222
 7085SOL     OW31723   0.808   1.588   3.037  0.0292  0.5488  0.0388
 7085SOL    HW131724   0.877   1.527   2.998 -2.3999 -0.7110 -2.4875
 7085SOL    HW231725   0.832   1.683   3.016  2.1945  0.3137  1.2729
 7086SOL     OW31726   6.730   0.236   2.051 -0.2337  0.1835 -0.6710
 7086SOL    HW131727   6.822   0.202   2.030 -0.5683 -0.3847 -1.2238
 7086SOL    HW231728   6.676   0.240   1.968 -0.5981  0.8932 -0.4101
 7087SOL     OW31729   3.153   1.543   0.416  0.3626 -0.1454 -0.6613
 7087SOL    HW131730   3.173   1.446   0.428 -0.5694 -0.2646 -0.0466
 7087SOL    HW231731   3.147   1.564   0.318 -1.5129 -1.1561 -0.7906
 7088SOL     OW31732   6.325   0.864   2.848 -0.2658 -0.1283 -0.0864
 7088SOL    HW131733   6.284   0.955   2.854 -2.3125 -1.0750  0.7974
 7088SOL    HW231734   6.328   0.823   2.939  0.5720 -0.9778 -0.4924
 7089SOL     OW31735   4.426   0.860   2.031 -0.0434 -0.1677  0.4228
 7089SOL    HW131736   4.453   0.947   2.072 -0.4071  0.3780 -0.4836
 7089SOL    HW231737   4.506   0.799   2.026  0.3751  0.3802  0.4000
 7090SOL     OW31738   9.160   0.574   3.179  0.4947 -0.0223 -0.4307
 7090SOL    HW131739   9.157   0.623   3.092 -3.9163  1.9978  0.6993
 7090SOL    HW231740   9.222   0.621   3.241 -1.1186  2.2388 -0.4740
 7091SOL     OW31741   8.228   7.778   0.371 -0.3387 -0.5488 -0.4433
 7091SOL    HW131742   8.223   7.818   0.280 -0.8350 -0.9392 -0.5902
 7091SOL    HW231743   8.324   7.771   0.399 -0.2583  0.8368 -0.3657
 7092SOL     OW31744   9.498   0.577   1.402 -0.5155 -0.0765 -0.1929
 7092SOL    HW131745   9.575   0.641   1.415 -0.1353 -0.7786  1.0995
 7092SOL    HW231746   9.530   0.498   1.350  0.3604 -1.6562  2.6813
 7093SOL     OW31747   2.639   1.779   3.582  0.0424  0.3721 -0.6680
 7093SOL    HW131748   2.719   1.833   3.554  0.7808 -1.3593 -1.9450
 7093SOL    HW231749   2.642   1.766   3.681  1.0252  0.8025 -0.6316
 7094SOL     OW31750   3.043   3.896   4.452  0.1919  0.4389 -0.8833
 7094SOL    HW131751   2.962   3.914   4.508 -0.3010  0.4541 -1.6061
 7094SOL    HW231752   3.061   3.975   4.394  0.4500  0.2435 -1.0682
 7095SOL     OW31753   5.744   9.561   4.024  0.4462  0.3415  0.2873
 7095SOL    HW131754   5.682   9.568   3.946 -0.3378  2.5889  1.0517
 7095SOL    HW231755   5.824   9.620   4.009  1.3552 -0.8733  0.2523
 7096SOL     OW31756   3.257   0.860   3.762  0.2928 -0.6198 -0.3594
 7096SOL    HW131757   3.262   0.773   3.713  0.4881  0.4798 -2.3597
 7096SOL    HW231758   3.172   0.907   3.737  0.4530  0.0021  0.2702
 7097SOL     OW31759   3.048   8.050   3.523 -0.4892 -0.0281 -0.0706
 7097SOL    HW131760   2.972   8.113   3.508  0.6978  1.5307  0.2480
 7097SOL    HW231761   3.015   7.956   3.521 -2.3397  0.6093 -0.3593
 7098SOL     OW31762   9.378   6.964   2.914  0.3261 -0.6381  0.1862
 7098SOL    HW131763   9.404   6.907   2.837 -0.0702  0.7177 -0.9667
 7098SOL    HW231764   9.281   6.951   2.935 -0.4751  1.6768 -1.8986
 7099SOL     OW31765   8.401   8.335   2.315  0.2084  0.3109  0.0750
 7099SOL    HW131766   8.420   8.421   2.267 -1.0888  0.1176 -0.8497
 7099SOL    HW231767   8.429   8.258   2.257  1.2451  0.1022  0.8442
 7100SOL     OW31768   2.623   1.731   3.887  0.6698 -0.1022 -0.7774
 7100SOL    HW131769   2.682   1.687   3.954  1.5326  0.7621 -0.9548
 7100SOL    HW231770   2.608   1.827   3.913 -1.1067 -0.4403 -0.4467
 7101SOL     OW31771   6.524   8.836   2.568  0.3199  0.3338 -0.3927
 7101SOL    HW131772   6.539   8.932   2.543  0.0862  0.6384  0.5982
 7101SOL    HW231773   6.459   8.795   2.505  2.7174 -0.0458 -2.6840
 7102SOL     OW31774   2.724   4.363   4.538 -0.0852  0.1611  0.5594
 7102SOL    HW131775   2.712   4.278   4.487 -0.6394 -0.0123  0.9663
 7102SOL    HW231776   2.651   4.427   4.515  0.8278  0.8686 -0.4057
 7103SOL     OW31777   9.662   0.897   1.821  0.1097  0.0904 -0.0983
 7103SOL    HW131778   9.626   0.864   1.908  0.7468  1.4618  0.6955
 7103SOL    HW231779   9.590   0.945   1.771 -0.3837 -1.0949 -0.5558
 7104SOL     OW31780   5.306   0.165   2.726  0.2971 -0.8188  0.8182
 7104SOL    HW131781   5.214   0.178   2.688  0.8280 -0.3585 -0.3587
 7104SOL    HW231782   5.313   0.212   2.814  0.2038  1.4830 -0.3653
 7105SOL     OW31783   9.262   9.477   3.223 -0.3467 -0.0128 -0.6179
 7105SOL    HW131784   9.186   9.542   3.223 -1.2103 -0.9779 -3.0552
 7105SOL    HW231785   9.227   9.384   3.213  1.0336 -0.6822  0.5014
 7106SOL     OW31786   9.265   6.222   1.283  0.2620  0.0303 -0.0428
 7106SOL    HW131787   9.192   6.185   1.340 -0.1181  2.0171  0.7765
 7106SOL    HW231788   9.244   6.204   1.187 -1.0083  0.0672  0.2221
 7107SOL     OW31789   8.405   7.209   0.709  0.3985 -0.5670  0.2242
 7107SOL    HW131790   8.440   7.238   0.620  1.7239 -2.4129  0.1231
 7107SOL    HW231791   8.314   7.169   0.697 -1.0143  2.4742  0.2308
 7108SOL     OW31792   0.753   3.437   1.531 -0.2381 -0.1471 -0.1208
 7108SOL    HW131793   0.806   3.356   1.504 -0.7232 -0.0818 -1.3014
 7108SOL    HW231794   0.685   3.411   1.599 -0.4334 -0.7472 -0.5429
 7109SOL     OW31795   3.700   3.974   0.046 -0.2354 -0.0505 -0.0839
 7109SOL    HW131796   3.637   4.018  -0.019  0.1436  2.1133  0.9580
 7109SOL    HW231797   3.736   4.043   0.109  1.8512 -1.5721  0.4387
 7110SOL     OW31798   9.963   1.479   2.206  0.3278  0.0783  0.5956
 7110SOL    HW131799   9.912   1.499   2.122  0.2098 -0.4410  0.5431
 7110SOL    HW231800  10.039   1.417   2.185  0.0847 -0.3337  0.9323
 7111SOL     OW31801   4.351   1.911   0.902 -0.5869  0.1950 -0.0833
 7111SOL    HW131802   4.292   1.984   0.935  0.4376  0.8303  0.3799
 7111SOL    HW231803   4.446   1.944   0.899 -0.0552 -1.2439  0.5547
 7112SOL     OW31804   3.977   1.060   2.875 -0.4348  0.8819  0.4004
 7112SOL    HW131805   3.925   1.122   2.817 -0.1182  1.3360  0.5979
 7112SOL    HW231806   3.915   0.995   2.920 -0.7637  1.0556  0.1934
 7113SOL     OW31807   0.369   6.661   1.221 -0.0973  0.8221 -0.7052
 7113SOL    HW131808   0.464   6.674   1.249 -0.0029  1.7063 -1.4309
 7113SOL    HW231809   0.312   6.643   1.302  0.8948 -1.0511 -0.3929
 7114SOL     OW31810   4.536   8.629   1.746 -0.3732 -0.1535 -0.6422
 7114SOL    HW131811   4.622   8.679   1.761 -0.2928 -0.0811 -1.3343
 7114SOL    HW231812   4.460   8.681   1.785 -0.0654 -0.3941  0.3129
 7115SOL     OW31813   2.310   9.428   4.081 -0.2693  0.0391  0.4123
 7115SOL    HW131814   2.275   9.412   3.989 -0.0393  0.1443  0.3070
 7115SOL    HW231815   2.332   9.341   4.124 -0.4002 -0.0114  0.3787
 7116SOL     OW31816   2.677   4.926   0.368  0.0409  0.2474  0.6080
 7116SOL    HW131817   2.701   4.952   0.462  0.6650 -2.7393  1.3232
 7116SOL    HW231818   2.598   4.979   0.338  0.8197  2.3925  2.2096
 7117SOL     OW31819   3.953   0.333   4.351  0.0786  0.1968  0.4767
 7117SOL    HW131820   3.920   0.296   4.438  1.6247  0.1353  1.0469
 7117SOL    HW231821   4.038   0.288   4.325 -0.0875  0.5943 -0.8028
 7118SOL     OW31822   7.589   0.122   2.493 -0.0154  0.0700  0.0788
 7118SOL    HW131823   7.663   0.066   2.457  0.6124  0.3815  0.8839
 7118SOL    HW231824   7.509   0.064   2.511 -1.3038  0.2897 -4.2830
 7119SOL     OW31825   0.839   4.110   1.689 -0.4827 -0.4531  0.2548
 7119SOL    HW131826   0.906   4.085   1.620  0.9475  0.2159  1.3812
 7119SOL    HW231827   0.747   4.090   1.655  0.1939 -0.1763 -1.8173
 7120SOL     OW31828   9.790   8.125   1.201  0.1698 -0.1462  0.3975
 7120SOL    HW131829   9.865   8.165   1.148  1.7477 -1.8153  1.3020
 7120SOL    HW231830   9.729   8.197   1.233  1.7258  1.3087  0.1451
 7121SOL     OW31831   3.283   2.090   1.304  0.1287 -0.0178  0.1707
 7121SOL    HW131832   3.220   2.026   1.348 -1.4803 -0.6155 -2.8792
 7121SOL    HW231833   3.347   2.039   1.247  0.0568  0.9341 -0.7766
 7122SOL     OW31834   3.043   3.986   3.181  0.4959 -0.1800  0.0928
 7122SOL    HW131835   3.063   4.023   3.272  1.5018  0.4437 -0.3721
 7122SOL    HW231836   3.108   4.023   3.115  0.7536 -1.8547 -0.6109
 7123SOL     OW31837   7.313   9.756   1.842 -0.0205  1.4142 -0.0546
 7123SOL    HW131838   7.268   9.733   1.756 -0.5771  3.2047 -0.2537
 7123SOL    HW231839   7.409   9.729   1.838 -0.6830 -1.1089 -0.1582
 7124SOL     OW31840   1.539   8.386   1.668  0.0946 -0.2065  0.0336
 7124SOL    HW131841   1.594   8.393   1.752 -1.4817  0.9604  0.9891
 7124SOL    HW231842   1.455   8.335   1.687  0.5022 -1.3861 -1.2552
 7125SOL     OW31843   1.123   2.177   1.730  0.0147 -0.3432  0.0271
 7125SOL    HW131844   1.084   2.143   1.644  0.1087  1.0435 -0.5959
 7125SOL    HW231845   1.155   2.101   1.785  3.0329 -1.1442 -2.6550
 7126SOL     OW31846   4.272   4.845   0.960  0.2841 -0.0535  0.1399
 7126SOL    HW131847   4.275   4.929   1.014 -1.0882 -0.3545  0.6963
 7126SOL    HW231848   4.362   4.829   0.920  0.3514  2.1616 -0.7036
 7127SOL     OW31849   1.649   6.738   0.557  0.0153  0.3392  0.6919
 7127SOL    HW131850   1.570   6.798   0.567  1.4598  2.4038 -0.1222
 7127SOL    HW231851   1.708   6.746   0.638  0.1109 -0.1671  0.6785
 7128SOL     OW31852   2.895   7.008   0.374 -0.4185 -0.9754  0.1110
 7128SOL    HW131853   2.993   7.006   0.396 -0.6147 -1.1344  1.0139
 7128SOL    HW231854   2.856   7.095   0.406 -0.2249 -0.1624 -1.8260
 7129SOL     OW31855   3.563   9.935   0.632  0.4490  0.5733  0.0957
 7129SOL    HW131856   3.600  10.023   0.662  1.2847  0.7334 -1.3393
 7129SOL    HW231857   3.609   9.861   0.682  0.4998  0.9125  0.5508
 7130SOL     OW31858   4.151   6.992   2.980  0.4896 -0.0501 -0.4136
 7130SOL    HW131859   4.153   7.062   2.909 -0.8469 -0.8266 -1.2268
 7130SOL    HW231860   4.237   6.941   2.979  0.4672 -0.0700 -1.4877
 7131SOL     OW31861   9.510   9.772   2.576 -0.1430 -0.2094 -0.0922
 7131SOL    HW131862   9.410   9.766   2.582 -0.3195  2.2160 -0.1353
 7131SOL    HW231863   9.551   9.710   2.644 -1.6684 -0.8509  0.2769
 7132SOL     OW31864   3.958   9.075   0.900  0.5623 -0.4018 -0.3711
 7132SOL    HW131865   3.939   9.015   0.823 -1.0113 -1.9600  1.1837
 7132SOL    HW231866   4.014   9.026   0.967  0.0845  0.1848  0.4680
 7133SOL     OW31867   2.252   4.609   2.004  0.0476 -0.2380 -0.0106
 7133SOL    HW131868   2.324   4.540   1.997  0.3026 -0.0029  0.2755
 7133SOL    HW231869   2.290   4.693   2.045 -0.2246  0.1175 -0.4832
 7134SOL     OW31870   1.198   3.575   0.999 -0.7390 -0.1619 -0.0037
 7134SOL    HW131871   1.249   3.656   0.971 -1.0999  0.2848  0.6315
 7134SOL    HW231872   1.101   3.588   0.979 -1.0168  0.2009  1.5525
 7135SOL     OW31873   3.106   0.710   2.669  0.5298  0.0236 -0.2555
 7135SOL    HW131874   3.097   0.622   2.716  1.3843  0.1846  0.2241
 7135SOL    HW231875   3.019   0.759   2.675 -0.1897 -1.1051 -1.1925
 7136SOL     OW31876   2.708   2.693   0.637 -0.3984  0.0553 -0.5269
 7136SOL    HW131877   2.719   2.706   0.538  2.6223 -0.4504 -0.3151
 7136SOL    HW231878   2.675   2.600   0.654  1.1410 -0.6050 -1.0035
 7137SOL     OW31879   8.809   8.606   0.026 -0.0247  0.1270 -0.0673
 7137SOL    HW131880   8.906   8.591   0.047  0.0906 -0.0444 -0.7245
 7137SOL    HW231881   8.800   8.639  -0.067 -0.5293  1.1112  0.3231
 7138SOL     OW31882   0.545   5.665   4.283 -0.4959  1.2798  0.0512
 7138SOL    HW131883   0.575   5.574   4.256  1.0918  1.1508  2.1398
 7138SOL    HW231884   0.488   5.705   4.210 -0.8053 -1.1573 -1.0702
 7139SOL     OW31885   2.744   0.299   4.099  0.4385  0.0515 -0.1484
 7139SOL    HW131886   2.751   0.258   4.190  0.6553 -0.6312 -0.4667
 7139SOL    HW231887   2.651   0.289   4.063 -0.0019  1.4965  0.5349
 7140SOL     OW31888   2.072   9.231   0.951 -0.1326 -0.3058  0.4594
 7140SOL    HW131889   2.028   9.168   1.015 -0.7081 -0.5505 -0.1736
 7140SOL    HW231890   2.002   9.283   0.902  0.3466  2.5180  2.6323
 7141SOL     OW31891   4.129   8.948   3.527  0.1754 -0.4050  0.3211
 7141SOL    HW131892   4.039   8.979   3.557  0.4354  1.5378 -0.8237
 7141SOL    HW231893   4.118   8.874   3.460 -0.4767 -1.9093  2.0272
 7142SOL     OW31894   1.759   6.413   0.105 -0.0600 -0.3332  0.1539
 7142SOL    HW131895   1.692   6.370   0.165 -0.7463  0.2512 -0.1928
 7142SOL    HW231896   1.761   6.511   0.122  0.1629 -0.2438 -0.3679
 7143SOL     OW31897   3.885   9.597   3.112  0.1380  0.0548  0.0854
 7143SOL    HW131898   3.931   9.685   3.130 -0.6510  0.5538 -0.3050
 7143SOL    HW231899   3.926   9.555   3.031 -1.2229  1.3316 -1.3062
 7144SOL     OW31900   3.021   0.634   0.474 -0.2991 -0.1986 -0.4995
 7144SOL    HW131901   3.008   0.728   0.445  0.0630 -0.2734 -0.9098
 7144SOL    HW231902   2.964   0.573   0.418 -0.5102 -0.2257 -0.2552
 7145SOL     OW31903   0.806   0.402   3.697  0.1856 -0.7184 -0.4798
 7145SOL    HW131904   0.751   0.479   3.665  1.4682  0.3755 -0.1068
 7145SOL    HW231905   0.804   0.399   3.797  2.8561  0.9135 -0.3291
 7146SOL     OW31906   7.111   6.862   3.177 -0.0397 -0.5526  0.8998
 7146SOL    HW131907   7.120   6.890   3.082 -0.4588 -0.4984  0.8725
 7146SOL    HW231908   7.019   6.886   3.210  0.5222  0.5726  1.6893
 7147SOL     OW31909   1.681   9.634   0.868  0.2965  0.0966 -0.1568
 7147SOL    HW131910   1.676   9.638   0.968 -2.2871  1.1111 -0.2695
 7147SOL    HW231911   1.709   9.723   0.833 -1.6546  0.6431 -0.4132
 7148SOL     OW31912   2.787   6.655   2.113 -0.7343  0.8492 -0.0683
 7148SOL    HW131913   2.813   6.747   2.082 -0.6264  1.1884  1.0103
 7148SOL    HW231914   2.867   6.595   2.108 -0.8400  0.7615 -0.9173
 7149SOL     OW31915   0.900   1.149   4.719 -0.4638  0.0473  0.1066
 7149SOL    HW131916   0.804   1.124   4.723 -1.3609  3.1956 -0.4472
 7149SOL    HW231917   0.912   1.228   4.658  2.6551 -1.1377 -0.9091
 7150SOL     OW31918   5.196   0.013   3.258 -0.3143  0.5036  0.0032
 7150SOL    HW131919   5.109   0.027   3.305 -1.1433 -1.5401 -0.8394
 7150SOL    HW231920   5.180  -0.037   3.173  1.4993  1.5468 -0.9931
 7151SOL     OW31921   2.354   3.185   0.023  0.1972 -0.0787 -0.0875
 7151SOL    HW131922   2.277   3.170  -0.039  0.5241 -0.2199 -0.4645
 7151SOL    HW231923   2.422   3.244  -0.021  1.7645 -2.4668 -1.0029
 7152SOL     OW31924   2.137   9.822   4.121  0.6634 -0.0499 -0.9388
 7152SOL    HW131925   2.110   9.764   4.044  0.0761 -0.3799 -0.4899
 7152SOL    HW231926   2.148   9.916   4.089 -0.0823 -0.0930 -1.3354
 7153SOL     OW31927   4.632   0.660   2.019 -0.2386 -0.2694 -0.4234
 7153SOL    HW131928   4.607   0.567   2.049  1.1933 -0.9753 -1.3401
 7153SOL    HW231929   4.723   0.682   2.054 -1.0454  1.2638  0.7583
 7154SOL     OW31930   4.169   9.937   4.040  0.1653  0.1091  0.7404
 7154SOL    HW131931   4.170  10.023   3.990 -0.0147  0.4189  1.2577
 7154SOL    HW231932   4.110   9.871   3.993 -1.3527  0.9373  1.4318
 7155SOL     OW31933   0.702   9.142   2.210  0.0678  0.9202  0.2251
 7155SOL    HW131934   0.683   9.161   2.307  1.2444 -0.7177  0.8106
 7155SOL    HW231935   0.616   9.135   2.160 -0.5999  0.7980  1.3630
 7156SOL     OW31936   2.740   6.185   0.727  0.2644  0.0640 -0.3194
 7156SOL    HW131937   2.763   6.265   0.672 -0.6265  0.4939 -0.0857
 7156SOL    HW231938   2.749   6.208   0.824 -0.5316  0.0611 -0.2396
 7157SOL     OW31939   1.032   8.757   2.752 -0.1225  0.2114  0.0925
 7157SOL    HW131940   0.981   8.795   2.675 -1.6971 -0.6238  0.7020
 7157SOL    HW231941   1.128   8.784   2.745 -0.8812  2.8970 -0.3797
 7158SOL     OW31942   1.070   8.342   3.717 -0.3801 -0.1010  0.0965
 7158SOL    HW131943   0.986   8.354   3.663  0.3588  3.2893 -0.4054
 7158SOL    HW231944   1.087   8.425   3.770  2.3900 -0.9552  0.5979
 7159SOL     OW31945   8.662   8.766   0.777  0.0751  0.1017 -0.5221
 7159SOL    HW131946   8.661   8.857   0.737  0.1932  0.2848 -0.1145
 7159SOL    HW231947   8.756   8.732   0.781  0.3922  1.1209  1.8919
 7160SOL     OW31948   4.837   1.759   2.841  1.1108 -0.0942 -0.2080
 7160SOL    HW131949   4.892   1.840   2.859 -0.9436  1.2734  0.0841
 7160SOL    HW231950   4.897   1.680   2.831  3.1160  1.3529  0.0146
 7161SOL     OW31951   1.658   2.757   2.686  0.3146  0.0919 -0.1398
 7161SOL    HW131952   1.587   2.707   2.734  2.8738 -0.7120  2.9767
 7161SOL    HW231953   1.661   2.728   2.590 -0.8708 -2.8069  0.6729
 7162SOL     OW31954   1.129   0.181   1.323 -0.2082  0.2465  0.2888
 7162SOL    HW131955   1.189   0.117   1.372  0.2850  0.1694 -0.3921
 7162SOL    HW231956   1.045   0.134   1.296  1.5198 -1.1342 -3.0756
 7163SOL     OW31957   2.762   2.892   1.728 -0.5346 -0.4092  0.0237
 7163SOL    HW131958   2.846   2.838   1.728 -0.0807  0.2704  1.3287
 7163SOL    HW231959   2.698   2.856   1.660 -0.5449 -3.0482  1.3816
 7164SOL     OW31960   3.634   0.765   1.481  0.1736  0.3172  0.0192
 7164SOL    HW131961   3.607   0.758   1.385 -1.2993  0.5826  0.3930
 7164SOL    HW231962   3.552   0.764   1.538  1.1137 -1.6706  1.3941
 7165SOL     OW31963   1.673   1.360   0.588  0.1876 -0.3418  0.6189
 7165SOL    HW131964   1.625   1.356   0.501  1.4445 -5.3582 -0.0082
 7165SOL    HW231965   1.607   1.347   0.663 -0.5309  1.4750  0.3403
 7166SOL     OW31966   9.597   6.207   3.713  0.2331  0.7352  0.2898
 7166SOL    HW131967   9.623   6.125   3.763 -3.2408  1.5216  3.5569
 7166SOL    HW231968   9.542   6.182   3.633  0.5322 -0.1776  0.3671
 7167SOL     OW31969   0.982   8.033   1.982  0.6975 -0.3830 -0.8341
 7167SOL    HW131970   0.967   8.113   1.923 -0.1646  0.9210  1.0979
 7167SOL    HW231971   1.064   8.047   2.037  0.6914 -0.9558 -0.6732
 7168SOL     OW31972   9.102   5.379   2.445  0.0050 -1.0763  0.0248
 7168SOL    HW131973   9.118   5.414   2.537 -0.2664 -2.2771  0.5417
 7168SOL    HW231974   9.022   5.424   2.405 -0.5719 -1.3667  0.8283
 7169SOL     OW31975   4.174   0.824   1.428 -0.4114 -0.2602  0.0338
 7169SOL    HW131976   4.211   0.754   1.368  0.0599 -0.9272  1.0911
 7169SOL    HW231977   4.183   0.795   1.524 -1.3533  0.6825  0.4238
 7170SOL     OW31978   1.648   3.428   3.440 -0.1104  0.3440 -0.4060
 7170SOL    HW131979   1.580   3.358   3.418  1.6493 -2.2033  1.8499
 7170SOL    HW231980   1.611   3.490   3.509 -0.2993 -0.8685  0.6096
 7171SOL     OW31981   0.319   9.963   3.736 -1.1983  0.0529  0.1324
 7171SOL    HW131982   0.236   9.967   3.793 -1.2489  1.8133 -0.0547
 7171SOL    HW231983   0.333  10.051   3.691 -0.0972 -0.7386 -1.1019
 7172SOL     OW31984   9.351   8.652   2.700  0.1974 -0.2852 -0.1453
 7172SOL    HW131985   9.374   8.702   2.616  0.9325 -0.3103  0.0412
 7172SOL    HW231986   9.287   8.707   2.754  0.0555 -0.0785 -0.5204
 7173SOL     OW31987   0.480   7.933   1.034  0.3481  0.4262 -0.7408
 7173SOL    HW131988   0.496   7.838   1.059 -0.6107  0.2216 -0.8991
 7173SOL    HW231989   0.568   7.979   1.021  0.8171 -0.3405 -0.3176
 7174SOL     OW31990   1.419   7.400   0.973  0.0280  0.1607  0.1031
 7174SOL    HW131991   1.412   7.311   1.018  0.1536  0.4602  0.7230
 7174SOL    HW231992   1.515   7.428   0.970  0.1105 -0.1930 -1.0264
 7175SOL     OW31993   9.021   0.325   3.094 -0.6204 -0.0504 -0.0157
 7175SOL    HW131994   9.048   0.403   3.150 -0.8337  0.0917 -0.1084
 7175SOL    HW231995   9.025   0.241   3.149 -0.8985  0.0972  0.2339
 7176SOL     OW31996   0.675   0.900   2.026 -0.4768 -0.1672 -0.0446
 7176SOL    HW131997   0.618   0.870   2.103 -0.8612  1.1536  0.1881
 7176SOL    HW231998   0.732   0.977   2.055  0.9406 -1.0177 -0.4774
 7177SOL     OW31999   8.805   6.303   1.819 -0.0373  1.1348 -0.0976
 7177SOL    HW132000   8.896   6.262   1.807  0.0813  1.0629  1.0264
 7177SOL    HW232001   8.746   6.274   1.744 -0.2247 -1.8473  1.1415
 7178SOL     OW32002   2.948   6.472   1.112 -0.4769  0.4020 -0.0358
 7178SOL    HW132003   2.977   6.418   1.191  2.0310  0.7807 -0.6540
 7178SOL    HW232004   2.928   6.565   1.142 -1.0165  0.1531  0.3957
 7179SOL     OW32005   4.577   9.789   1.165 -0.4540  0.2831 -0.1655
 7179SOL    HW132006   4.512   9.759   1.235  0.2959  1.5776  1.1099
 7179SOL    HW232007   4.657   9.828   1.209 -0.3229  1.8741 -1.7652
 7180SOL     OW32008   0.710   7.707   1.078 -0.0528  0.3132 -0.2169
 7180SOL    HW132009   0.777   7.664   1.138  0.9606  1.5504 -0.4509
 7180SOL    HW232010   0.622   7.660   1.087  1.3072 -2.5990 -1.3351
 7181SOL     OW32011   2.815   0.204   1.630  0.0562 -0.3148  0.7049
 7181SOL    HW132012   2.900   0.257   1.630  0.0597 -0.3200  0.6184
 7181SOL    HW232013   2.739   0.262   1.657 -0.0478 -0.0928 -0.0694
 7182SOL     OW32014   2.793   9.428   2.079  0.0668  0.5647 -0.4276
 7182SOL    HW132015   2.824   9.493   2.009  1.2793 -0.5088 -0.9147
 7182SOL    HW232016   2.770   9.341   2.035 -1.7414  0.7075  0.1966
 7183SOL     OW32017   3.817   1.129   3.271 -0.1770  0.2464 -0.0976
 7183SOL    HW132018   3.730   1.162   3.308  0.7789 -0.1905  2.6687
 7183SOL    HW232019   3.892   1.186   3.304  0.8552 -0.9763 -0.2670
 7184SOL     OW32020   9.154   5.254   1.494  0.1257 -0.0496  0.1709
 7184SOL    HW132021   9.209   5.186   1.542 -0.0552  0.7075  1.4570
 7184SOL    HW232022   9.078   5.283   1.552 -0.4276  0.4504 -0.7927
 7185SOL     OW32023   3.235   5.477   1.071 -0.1574  0.2293  0.2962
 7185SOL    HW132024   3.303   5.410   1.042 -2.1860 -1.3848 -0.8790
 7185SOL    HW232025   3.211   5.536   0.994 -1.4101 -0.3971  0.1939
 7186SOL     OW32026   2.931   1.996   4.751 -0.3337  0.3769 -0.4735
 7186SOL    HW132027   2.991   1.935   4.803  0.1677  0.0244 -1.4363
 7186SOL    HW232028   2.987   2.061   4.700 -0.7032 -0.7227 -2.3234
 7187SOL     OW32029   2.858   2.578   4.109 -0.3061 -0.0247  0.5748
 7187SOL    HW132030   2.935   2.623   4.155  0.8550 -0.2157 -1.1571
 7187SOL    HW232031   2.783   2.643   4.098  0.7244  1.0052 -0.3936
 7188SOL     OW32032   3.100   9.073   2.079  0.2644 -0.0554  0.1917
 7188SOL    HW132033   3.134   9.030   1.995 -1.3337 -0.0601 -0.4803
 7188SOL    HW232034   3.141   9.164   2.089 -2.0959  1.3834 -2.4543
 7189SOL     OW32035   4.428   7.250   1.770 -0.7039  0.1429 -0.0355
 7189SOL    HW132036   4.391   7.281   1.857  1.0921  2.5699 -0.0826
 7189SOL    HW232037   4.501   7.184   1.787 -0.3016  0.6712  0.3262
 7190SOL     OW32038   9.933   0.028   1.235  0.1263 -0.1632  0.2779
 7190SOL    HW132039  10.018   0.025   1.182 -0.7305  2.2101 -1.3130
 7190SOL    HW232040   9.946   0.086   1.315  0.3626 -0.8109  0.7112
 7191SOL     OW32041   1.483   9.970   4.216  0.3192  0.4796 -0.8177
 7191SOL    HW132042   1.466   9.930   4.305  0.3595  0.9303 -0.6068
 7191SOL    HW232043   1.422   9.929   4.148 -0.9066  1.3514 -0.2661
 7192SOL     OW32044   2.497   2.102   3.176  0.3016  0.5225  0.2746
 7192SOL    HW132045   2.451   2.088   3.088 -0.5128  2.2435  0.4059
 7192SOL    HW232046   2.474   2.028   3.238 -0.3737  0.1083 -0.4644
 7193SOL     OW32047   0.160   3.958   0.867  0.2693 -0.6957  0.3772
 7193SOL    HW132048   0.163   3.978   0.965  0.3235  0.0692  0.2257
 7193SOL    HW232049   0.078   3.906   0.845  0.4790 -1.2458  0.9003
 7194SOL     OW32050   1.141   9.906   2.816 -0.0734 -0.3744  1.1254
 7194SOL    HW132051   1.189   9.854   2.745 -2.3887 -0.7961 -0.1867
 7194SOL    HW232052   1.086   9.843   2.870 -0.5605  0.3318  1.4464
 7195SOL     OW32053   0.131   5.815   4.011 -0.9736 -0.1146  0.0415
 7195SOL    HW132054   0.033   5.808   4.024 -1.2516  1.4567 -1.0923
 7195SOL    HW232055   0.150   5.860   3.923  0.7262  1.3754  1.1290
 7196SOL     OW32056   8.480   6.496   0.389  0.2786  0.3777  0.0361
 7196SOL    HW132057   8.446   6.485   0.296 -1.1017 -0.0347  0.5826
 7196SOL    HW232058   8.404   6.498   0.453  1.2772 -0.9753  1.3288
 7197SOL     OW32059   9.310   7.272   0.186 -0.1515 -0.2843 -0.6526
 7197SOL    HW132060   9.271   7.227   0.267 -1.5137 -0.6458 -1.4837
 7197SOL    HW232061   9.348   7.360   0.212 -0.5682 -0.3998  0.3919
 7198SOL     OW32062   2.206   9.809   1.879 -0.1181  0.1311  0.8103
 7198SOL    HW132063   2.128   9.747   1.871 -0.7583  0.9559  0.5357
 7198SOL    HW232064   2.260   9.786   1.960 -0.9340 -0.1312  1.2822
 7199SOL     OW32065   1.878   2.216   1.456 -0.0489  0.9396  0.0444
 7199SOL    HW132066   1.890   2.271   1.538  1.6978 -0.5203  0.8198
 7199SOL    HW232067   1.789   2.169   1.460  0.1204  0.6920  1.2277
 7200SOL     OW32068   2.130   9.007   2.200 -0.1789 -0.0382 -0.4628
 7200SOL    HW132069   2.140   8.942   2.275 -0.0264 -2.1863 -2.3140
 7200SOL    HW232070   2.160   9.097   2.231 -0.5935 -0.7542  2.1999
 7201SOL     OW32071   0.978   3.609   1.507  0.2399 -0.2015  0.0972
 7201SOL    HW132072   0.945   3.672   1.436 -1.7814 -0.8870  0.3847
 7201SOL    HW232073   0.909   3.538   1.523  1.3768 -1.0006  1.6043
 7202SOL     OW32074   1.934   7.632   2.296 -0.1251  0.5313 -0.4401
 7202SOL    HW132075   1.838   7.606   2.286  0.3566 -1.0803 -0.9714
 7202SOL    HW232076   1.990   7.580   2.232  1.1671  1.1254  0.1825
 7203SOL     OW32077   2.555   5.726   3.752 -0.3806 -0.3373 -0.1087
 7203SOL    HW132078   2.466   5.681   3.740 -0.0625 -0.7882 -0.8087
 7203SOL    HW232079   2.567   5.793   3.679 -0.0485 -0.4294 -0.1357
 7204SOL     OW32080   0.155   7.716   0.440 -0.2527  0.1089  0.8670
 7204SOL    HW132081   0.061   7.709   0.407 -0.3809 -1.3679  1.5185
 7204SOL    HW232082   0.206   7.777   0.380 -1.9067  1.8144  1.1654
 7205SOL     OW32083   1.060   1.195   4.266 -0.2651  0.0958  0.0201
 7205SOL    HW132084   1.077   1.102   4.233  0.3469 -0.5767  2.2119
 7205SOL    HW232085   1.059   1.257   4.188  2.7813 -1.2148 -1.1444
 7206SOL     OW32086   3.016   5.970   1.376  0.0672 -0.2871  0.0083
 7206SOL    HW132087   2.997   5.972   1.278 -0.2787  2.5564  0.0869
 7206SOL    HW232088   3.114   5.961   1.391  0.3510  1.4781 -0.6631
 7207SOL     OW32089   9.038   6.458   1.390  0.1926  0.2199  0.0008
 7207SOL    HW132090   9.080   6.381   1.343  0.0392  0.3110 -0.2834
 7207SOL    HW232091   9.035   6.440   1.489 -0.8628 -0.6183 -0.1801
 7208SOL     OW32092   0.621   9.763   0.951 -0.2044  0.4374 -0.2903
 7208SOL    HW132093   0.661   9.672   0.963 -1.3773  0.1165  1.3481
 7208SOL    HW232094   0.577   9.768   0.861  3.3069  0.7626 -2.0793
 7209SOL     OW32095   0.519   1.496   0.092  0.3518 -0.2136 -0.0035
 7209SOL    HW132096   0.464   1.537   0.019  3.4956 -0.6748 -2.7900
 7209SOL    HW232097   0.464   1.429   0.141 -0.9267 -2.5994 -4.3881
 7210SOL     OW32098   2.024   5.366   1.136 -0.2574  0.7362 -0.2371
 7210SOL    HW132099   1.940   5.341   1.088  0.1436  0.3706 -0.7537
 7210SOL    HW232100   2.079   5.425   1.077  0.6349 -0.4176 -0.5671
 7211SOL     OW32101   7.875   7.646   1.358 -0.1972 -0.4392  0.0537
 7211SOL    HW132102   7.936   7.578   1.398 -1.0066  0.3761  2.7705
 7211SOL    HW232103   7.915   7.737   1.368 -1.0651 -0.0790  0.2698
 7212SOL     OW32104   3.608   7.259   1.549 -0.6166 -0.3826 -0.9239
 7212SOL    HW132105   3.572   7.169   1.576  1.8007 -0.4763  2.3749
 7212SOL    HW232106   3.703   7.250   1.519  0.2158  1.2062  1.0455
 7213SOL     OW32107   5.322   7.774   1.860 -0.2922 -0.0017  0.4317
 7213SOL    HW132108   5.257   7.846   1.835 -0.4903 -0.0998  0.6673
 7213SOL    HW232109   5.278   7.685   1.852 -0.6268  0.0156  1.9862
 7214SOL     OW32110   1.562   5.945   4.582 -0.3200 -0.0136 -0.0392
 7214SOL    HW132111   1.478   5.966   4.532 -0.5604 -0.4496  0.1742
 7214SOL    HW232112   1.631   6.014   4.562 -0.8955  0.6255  0.1773
 7215SOL     OW32113   1.520   0.277   3.694  0.4986 -0.0339  0.0572
 7215SOL    HW132114   1.484   0.290   3.602 -1.3529 -0.4958  0.6930
 7215SOL    HW232115   1.444   0.281   3.760  1.3728 -2.8608  1.2825
 7216SOL     OW32116   0.640   1.890   3.715 -0.9996  0.3109 -0.0435
 7216SOL    HW132117   0.715   1.869   3.653 -0.1576 -0.6975  1.2907
 7216SOL    HW232118   0.587   1.807   3.734 -1.3210  0.6288  0.4859
 7217SOL     OW32119   0.466   7.454   0.400  0.5074  0.7788  0.0781
 7217SOL    HW132120   0.406   7.449   0.481  0.7059  3.7520  0.4468
 7217SOL    HW232121   0.529   7.531   0.410  1.6388  0.1765 -2.2061
 7218SOL     OW32122   1.219   4.782   3.118 -0.1021  0.5423 -0.5509
 7218SOL    HW132123   1.265   4.867   3.142  0.7094  0.2976 -1.2353
 7218SOL    HW232124   1.287   4.713   3.091 -0.8250  0.0102 -1.0422
 7219SOL     OW32125   2.292   1.028   1.038  0.3809  0.2733  0.1437
 7219SOL    HW132126   2.282   1.044   1.136 -1.5553 -0.0989  0.0191
 7219SOL    HW232127   2.215   1.069   0.989  0.2762 -1.2726 -1.0391
 7220SOL     OW32128   9.749   5.886   3.850  0.4095  0.1533 -0.4000
 7220SOL    HW132129   9.670   5.829   3.824 -0.0912  1.1296 -1.0566
 7220SOL    HW232130   9.781   5.860   3.941 -0.5663 -0.3749 -0.2039
 7221SOL     OW32131   7.696   0.062   0.361 -0.1208 -0.0221  0.0671
 7221SOL    HW132132   7.778   0.004   0.368 -0.6603 -0.8652 -0.4808
 7221SOL    HW232133   7.682   0.088   0.266 -0.8317 -0.3827  0.0728
 7222SOL     OW32134   0.028   6.548   3.347 -0.4009 -0.5918  0.0403
 7222SOL    HW132135  -0.059   6.592   3.368  0.7365  0.3773  2.9545
 7222SOL    HW232136   0.097   6.618   3.327  0.2283 -1.2652 -0.1620
 7223SOL     OW32137   7.943   9.451   4.526  0.5752 -0.1183 -0.1972
 7223SOL    HW132138   8.000   9.521   4.568  1.2441 -0.2279 -0.9174
 7223SOL    HW232139   7.898   9.398   4.598  2.7492 -1.1728  0.4300
 7224SOL     OW32140   5.282   8.525   3.521 -0.7045  0.1721 -0.4211
 7224SOL    HW132141   5.202   8.578   3.494 -1.7065 -0.5767  0.9600
 7224SOL    HW232142   5.257   8.428   3.528  0.4703 -0.1517 -0.5436
 7225SOL     OW32143   1.817   2.248   3.380 -0.1819 -0.1335  0.8439
 7225SOL    HW132144   1.754   2.325   3.373  0.2309  0.0920 -0.6098
 7225SOL    HW232145   1.848   2.239   3.474  1.7982  3.1276  0.5724
 7226SOL     OW32146   0.456   5.583   2.368  0.4253 -0.1291  0.6008
 7226SOL    HW132147   0.500   5.516   2.308  2.1554  0.1833  1.4648
 7226SOL    HW232148   0.509   5.591   2.453  0.5261  2.7071  0.3177
 7227SOL     OW32149   1.245   9.228   2.692 -0.3883  0.5069 -0.7368
 7227SOL    HW132150   1.308   9.188   2.759 -0.2823  3.0385  0.7431
 7227SOL    HW232151   1.160   9.175   2.690 -0.0856 -0.0566  0.8184
 7228SOL     OW32152   7.219   7.641   3.298 -0.4713 -0.0113 -0.0697
 7228SOL    HW132153   7.151   7.699   3.254  0.1192  0.9196  0.2314
 7228SOL    HW232154   7.211   7.548   3.262 -2.6820 -0.2053  0.8095
 7229SOL     OW32155   1.684   0.845   3.886 -0.2037 -0.9548  0.1503
 7229SOL    HW132156   1.685   0.797   3.799 -2.6751 -0.6475 -0.0952
 7229SOL    HW232157   1.642   0.787   3.956  0.4236 -0.6399  0.8004
 7230SOL     OW32158   7.217   9.350   1.749 -0.0611 -0.2099 -0.0927
 7230SOL    HW132159   7.160   9.406   1.810 -0.7881  1.8899 -2.5922
 7230SOL    HW232160   7.170   9.264   1.730  0.4163 -1.1118  2.6875
 7231SOL     OW32161   2.381   2.747   1.302  0.1001  0.1361 -0.5549
 7231SOL    HW132162   2.450   2.807   1.260  1.2840 -1.6463 -1.2582
 7231SOL    HW232163   2.357   2.675   1.237 -1.8229  0.2389  0.0206
 7232SOL     OW32164   0.762   0.722   1.321  0.1273 -0.1963 -0.2838
 7232SOL    HW132165   0.716   0.668   1.392 -1.8204 -0.2107 -1.5073
 7232SOL    HW232166   0.802   0.661   1.253 -2.4393 -0.1658 -1.8928
 7233SOL     OW32167   3.603   7.689   3.604 -0.4072 -0.1372  0.0207
 7233SOL    HW132168   3.586   7.762   3.670 -3.2331  0.8812 -1.7515
 7233SOL    HW232169   3.669   7.719   3.536 -0.7734  0.4191 -0.0930
 7234SOL     OW32170   3.024   1.657   0.824  0.0365 -0.3444  0.2908
 7234SOL    HW132171   3.105   1.676   0.879 -0.2615 -0.7721  0.8827
 7234SOL    HW232172   2.948   1.632   0.883 -0.1297 -1.3913 -0.3439
 7235SOL     OW32173   3.952   9.003   0.331  0.6688 -0.6968  0.0906
 7235SOL    HW132174   3.853   9.013   0.323  0.7279 -1.0022 -1.2086
 7235SOL    HW232175   3.991   9.086   0.371 -0.3031 -1.3406  2.4887
 7236SOL     OW32176   3.414   0.910   2.481  0.4718  0.1033 -0.3912
 7236SOL    HW132177   3.408   0.816   2.447  1.0931 -0.4193  0.9261
 7236SOL    HW232178   3.340   0.927   2.546  0.7819  0.2941 -0.0877
 7237SOL     OW32179   5.349   0.340   3.641  0.0403  0.3600 -0.0728
 7237SOL    HW132180   5.337   0.250   3.598  0.0863  0.6336 -0.6580
 7237SOL    HW232181   5.279   0.402   3.608 -1.7327 -0.2324  2.4614
 7238SOL     OW32182   4.302   0.428   1.686 -0.4556 -0.0409  0.2158
 7238SOL    HW132183   4.332   0.454   1.777 -0.4310 -0.0295  0.2042
 7238SOL    HW232184   4.373   0.449   1.619  0.5991 -2.4576  0.5252
 7239SOL     OW32185   8.344   5.857   2.404  0.4275 -0.4166 -0.0535
 7239SOL    HW132186   8.264   5.843   2.345  0.6939  2.2651 -1.1186
 7239SOL    HW232187   8.315   5.898   2.491  0.3686 -1.6792  0.5237
 7240SOL     OW32188   0.749   6.952   4.211 -0.1925  0.6197 -0.2056
 7240SOL    HW132189   0.808   6.871   4.203 -0.7696  0.0649  1.0550
 7240SOL    HW232190   0.731   6.988   4.119 -1.4051 -1.7860 -0.9814
 7241SOL     OW32191   2.084   8.908   2.464  0.2869 -0.2725 -0.0205
 7241SOL    HW132192   1.994   8.870   2.439 -0.0768  0.9318 -0.5884
 7241SOL    HW232193   2.075   9.006   2.481  1.3111 -0.3384  0.9327
 7242SOL     OW32194   1.605   6.145   1.438  0.2906 -0.2418 -0.0401
 7242SOL    HW132195   1.673   6.218   1.447 -0.8730  0.5290  3.4816
 7242SOL    HW232196   1.637   6.064   1.486 -0.7842 -0.2134  0.7398
 7243SOL     OW32197   3.494   2.088   2.889 -0.0289 -0.2576  0.3117
 7243SOL    HW132198   3.493   2.118   2.984  0.0288  1.5836 -0.2504
 7243SOL    HW232199   3.581   2.114   2.847  0.1047 -1.4022 -0.1496
 7244SOL     OW32200   8.684   8.410   4.006 -0.1908 -0.0197 -0.2830
 7244SOL    HW132201   8.765   8.406   3.949  0.1450  1.8783  0.0196
 7244SOL    HW232202   8.607   8.446   3.952  0.1951  2.0370  0.4990
 7245SOL     OW32203   1.919   1.904   0.748 -0.2475 -0.1622  0.1171
 7245SOL    HW132204   1.826   1.878   0.772 -0.4202 -0.0886 -0.4512
 7245SOL    HW232205   1.918   1.994   0.703 -0.0116 -0.5587 -0.7026
 7246SOL     OW32206   1.508   8.656   3.245 -0.4300 -0.2479  0.4945
 7246SOL    HW132207   1.566   8.694   3.317  0.2427 -0.1786 -0.0665
 7246SOL    HW232208   1.531   8.560   3.232  1.0328  0.2879 -1.1313
 7247SOL     OW32209   8.801   9.689   2.486 -0.1659  0.0062 -0.3658
 7247SOL    HW132210   8.807   9.621   2.559 -0.5271  1.6448  1.2360
 7247SOL    HW232211   8.882   9.748   2.489 -0.6296  0.6711 -0.6902
 7248SOL     OW32212   7.167   0.649   2.173 -0.3668 -0.2134  0.3741
 7248SOL    HW132213   7.244   0.608   2.220 -1.1291 -1.6125  0.4316
 7248SOL    HW232214   7.200   0.710   2.101  0.7813 -0.0415  1.0408
 7249SOL     OW32215   0.361   1.498   3.745 -0.2768 -0.2320 -0.3191
 7249SOL    HW132216   0.295   1.521   3.673  1.4888  0.1703 -1.8409
 7249SOL    HW232217   0.387   1.401   3.736  1.2028  0.2400 -1.2883
 7250SOL     OW32218   3.199   2.324   1.753  0.0095  0.3144 -0.1522
 7250SOL    HW132219   3.288   2.344   1.795 -1.0678  1.5549  1.5924
 7250SOL    HW232220   3.132   2.390   1.785 -1.5926 -0.7289 -1.3182
 7251SOL     OW32221   8.170   0.236   0.619 -0.4296 -0.0431  0.3952
 7251SOL    HW132222   8.244   0.283   0.572 -1.6361  0.1668 -1.3730
 7251SOL    HW232223   8.126   0.298   0.683  0.4489  0.0475  0.9159
 7252SOL     OW32224   0.217   3.788   3.103  0.0799  0.5181 -0.5394
 7252SOL    HW132225   0.187   3.822   3.191 -1.5361 -0.2418 -0.7761
 7252SOL    HW232226   0.287   3.848   3.065 -0.6388  1.9302  0.3600
 7253SOL     OW32227   1.977   4.002   3.077  0.1487 -0.0751  0.5124
 7253SOL    HW132228   2.019   4.004   3.168  0.7031  0.7548  0.2405
 7253SOL    HW232229   1.957   4.095   3.046  0.8658 -0.2797 -0.6224
 7254SOL     OW32230   3.159   1.063   1.183 -0.0139 -0.3990 -0.0133
 7254SOL    HW132231   3.141   0.993   1.114 -0.1081  1.3898 -1.8084
 7254SOL    HW232232   3.147   1.154   1.144  0.3076  0.6581  2.2479
 7255SOL     OW32233   1.309   7.809   1.142  0.1122 -0.0154  0.0928
 7255SOL    HW132234   1.397   7.798   1.188 -0.2365 -1.0758  0.5163
 7255SOL    HW232235   1.239   7.833   1.210 -0.1802 -0.4560 -0.0552
 7256SOL     OW32236   9.863   7.020   0.905  0.0252 -0.0372  0.5897
 7256SOL    HW132237   9.813   7.077   0.841  1.1781  0.8813  0.4800
 7256SOL    HW232238   9.827   6.927   0.903 -0.3130  0.1135 -0.9899
 7257SOL     OW32239   6.938   9.855   0.520 -0.3034 -0.2428 -0.0850
 7257SOL    HW132240   6.955   9.917   0.597 -1.1379  0.4836 -0.4741
 7257SOL    HW232241   6.851   9.879   0.477 -0.4587 -1.4646 -0.4643
 7258SOL     OW32242   0.199   9.750   0.616  0.0239 -0.3153  0.0751
 7258SOL    HW132243   0.101   9.735   0.606 -0.5579  2.5287  1.0381
 7258SOL    HW232244   0.245   9.662   0.630 -2.7947 -1.4596  2.8675
 7259SOL     OW32245   0.242   9.765   3.983  0.3142  0.5073 -0.0723
 7259SOL    HW132246   0.292   9.848   3.957 -0.8826  0.9282 -1.0544
 7259SOL    HW232247   0.300   9.708   4.041  1.1710  2.0002  0.5564
 7260SOL     OW32248   1.924   2.614   2.662  0.4572  0.1120  0.0764
 7260SOL    HW132249   1.971   2.696   2.631  0.5940  0.3004  0.7818
 7260SOL    HW232250   1.826   2.625   2.649  0.6016 -0.3334 -1.5244
 7261SOL     OW32251   9.558   5.100   2.019 -0.5321 -0.6705  0.2334
 7261SOL    HW132252   9.640   5.050   1.992  0.4422  1.6778 -1.2952
 7261SOL    HW232253   9.579   5.161   2.096 -0.1473  1.7159 -1.6811
 7262SOL     OW32254   1.718   0.206   0.875  0.5991 -0.4852 -0.0258
 7262SOL    HW132255   1.801   0.238   0.830  0.0839 -0.5608 -1.0355
 7262SOL    HW232256   1.646   0.275   0.867  0.4713 -0.5393  0.5920
 7263SOL     OW32257   2.903   4.823   4.210  0.4412 -0.4383  0.5568
 7263SOL    HW132258   2.906   4.916   4.172 -2.6091  0.2289  1.7616
 7263SOL    HW232259   2.965   4.818   4.289  1.6847  0.1490 -0.3628
 7264SOL     OW32260   2.788   8.735   3.255  0.3982  0.0451 -0.5481
 7264SOL    HW132261   2.854   8.735   3.179  0.5189  2.4826 -0.4786
 7264SOL    HW232262   2.769   8.829   3.282 -1.3283 -0.7334  1.0128
 7265SOL     OW32263   9.545   7.766   0.384  0.1017 -0.7524  0.6447
 7265SOL    HW132264   9.493   7.834   0.436 -2.8458 -3.3410  1.2221
 7265SOL    HW232265   9.615   7.725   0.443 -0.7844 -1.0433  1.5025
 7266SOL     OW32266   2.986   1.661   2.156  0.3521 -0.5644  0.1700
 7266SOL    HW132267   3.027   1.618   2.236 -1.8464 -0.5117  1.3625
 7266SOL    HW232268   2.959   1.590   2.091  1.5954 -0.6403 -0.2838
 7267SOL     OW32269   9.335   8.487   0.660  0.2409 -0.2083  0.3440
 7267SOL    HW132270   9.286   8.440   0.734 -1.1011  1.1924  0.3918
 7267SOL    HW232271   9.361   8.579   0.691 -0.7016  0.5456 -1.0265
 7268SOL     OW32272   1.709   7.733   4.776  0.0602 -0.0378  0.2440
 7268SOL    HW132273   1.770   7.707   4.850  0.0020  0.6596  0.5403
 7268SOL    HW232274   1.646   7.804   4.807  0.6626  0.9508 -0.7342
 7269SOL     OW32275   0.501   9.764   0.732  0.1043 -0.5555  0.4251
 7269SOL    HW132276   0.443   9.684   0.751 -0.5693 -0.1516  0.0946
 7269SOL    HW232277   0.468   9.810   0.650  0.1377  0.3889  0.9349
 7270SOL     OW32278   0.624   0.073   4.347 -0.0891  0.2713 -0.6907
 7270SOL    HW132279   0.540   0.099   4.395 -0.3652 -1.5068 -0.1641
 7270SOL    HW232280   0.618  -0.023   4.320  0.7492  0.8084 -2.8742
 7271SOL     OW32281   9.878   0.986   0.051  0.5672  0.4560 -0.0765
 7271SOL    HW132282   9.829   1.020  -0.028 -1.2362  0.1171  0.8750
 7271SOL    HW232283   9.814   0.946   0.116  2.3146 -1.8523  0.2790
 7272SOL     OW32284   0.783   7.187   2.531  0.4463 -0.1891 -0.5568
 7272SOL    HW132285   0.824   7.264   2.580  1.2379 -0.5989 -0.5635
 7272SOL    HW232286   0.692   7.212   2.499  0.0845  0.2271  0.7721
 7273SOL     OW32287   3.640   7.159   2.875 -0.6187  0.5470 -0.1659
 7273SOL    HW132288   3.623   7.230   2.943 -2.1760  1.4361 -1.4576
 7273SOL    HW232289   3.684   7.198   2.795 -1.0767 -0.0297 -0.7028
 7274SOL     OW32290   4.924   0.060   3.810  0.2818 -0.6902 -0.1657
 7274SOL    HW132291   4.987   0.004   3.756  1.5078  1.3556 -0.9366
 7274SOL    HW232292   4.925   0.028   3.905  2.9818 -0.3547 -0.0254
 7275SOL     OW32293   1.956   0.812   1.716 -0.2936  0.2337 -0.0254
 7275SOL    HW132294   1.935   0.831   1.812 -1.1366  0.3357 -0.2283
 7275SOL    HW232295   1.938   0.893   1.661  1.0539  0.4622 -0.1489
 7276SOL     OW32296   9.794   1.172   3.200  0.3237 -0.4862  0.4255
 7276SOL    HW132297   9.795   1.161   3.299  0.3577  1.4478  0.6687
 7276SOL    HW232298   9.701   1.161   3.166  0.2522 -0.7915  0.7168
 7277SOL     OW32299   5.970   9.648   3.434 -0.0727  0.3771  0.5493
 7277SOL    HW132300   5.899   9.693   3.488  1.0759  1.0889  1.4727
 7277SOL    HW232301   5.995   9.706   3.357 -2.2802 -0.9832 -1.2629
 7278SOL     OW32302   1.068   0.900   0.716 -0.0848 -0.1147 -0.0138
 7278SOL    HW132303   1.110   0.903   0.807 -0.2030 -0.3639  0.0512
 7278SOL    HW232304   0.968   0.909   0.726 -0.0576  0.3372 -0.1548
 7279SOL     OW32305   4.366   1.157   4.391  0.9261 -0.2596  0.0918
 7279SOL    HW132306   4.328   1.249   4.396  2.0827  0.2031  0.4391
 7279SOL    HW232307   4.298   1.095   4.351 -0.7670  0.2501  2.0827
 7280SOL     OW32308   1.332   7.262   1.756  0.4567  0.0856  0.1239
 7280SOL    HW132309   1.248   7.254   1.810  0.2771 -1.0514 -0.3033
 7280SOL    HW232310   1.384   7.177   1.764 -0.1813 -0.5908 -2.4774
 7281SOL     OW32311   1.449   1.105   4.040 -0.5350 -0.3518  0.2980
 7281SOL    HW132312   1.416   1.165   4.112  1.1407  1.5199 -0.4317
 7281SOL    HW232313   1.548   1.091   4.051 -0.1470  0.4307 -1.9104
 7282SOL     OW32314   7.923   8.592   1.067  0.2985  0.4613  0.2795
 7282SOL    HW132315   7.908   8.570   0.970 -2.5802 -0.8488  0.9769
 7282SOL    HW232316   7.853   8.658   1.097 -0.0632 -0.6617  1.9603
 7283SOL     OW32317   8.211   7.781   1.209 -0.3568  0.3133 -0.1858
 7283SOL    HW132318   8.173   7.786   1.117  0.7816 -0.0877 -0.6901
 7283SOL    HW232319   8.137   7.765   1.275 -1.3138  1.7988 -0.8885
 7284SOL     OW32320   0.854   2.137   1.104  0.1277 -0.2513 -0.5466
 7284SOL    HW132321   0.766   2.185   1.100 -1.5350 -2.7304  2.9763
 7284SOL    HW232322   0.848   2.054   1.049  0.7420  0.2258 -1.3427
 7285SOL     OW32323   4.616   0.795   4.225 -0.3973  0.6103  0.3368
 7285SOL    HW132324   4.616   0.882   4.275 -0.9353  1.1982 -0.6585
 7285SOL    HW232325   4.523   0.773   4.196  0.0481  0.8911 -1.4122
 7286SOL     OW32326   1.256   7.791   3.265  0.4350 -0.6530 -0.2455
 7286SOL    HW132327   1.335   7.841   3.229  0.0124  0.1228 -0.1036
 7286SOL    HW232328   1.186   7.856   3.295  0.2804 -1.3128  0.8427
 7287SOL     OW32329   3.995   8.701   1.971  0.4462 -0.5014 -0.2496
 7287SOL    HW132330   3.988   8.627   1.905  1.5122  0.9389 -2.0522
 7287SOL    HW232331   4.034   8.667   2.056  1.3548 -1.9268 -1.2155
 7288SOL     OW32332   2.084   9.034   3.649 -0.5824  0.9355  0.7086
 7288SOL    HW132333   1.990   9.014   3.619 -0.0765  1.7961 -1.5227
 7288SOL    HW232334   2.148   9.005   3.579  0.9081 -0.3119  2.5366
 7289SOL     OW32335   3.522   9.089   1.532 -0.3795 -0.3951  0.3216
 7289SOL    HW132336   3.620   9.083   1.551 -0.1438 -0.5613 -0.8859
 7289SOL    HW232337   3.481   9.159   1.589  0.4973 -0.1433  0.6515
 7290SOL     OW32338   3.514   8.688   4.069 -0.1147 -0.5624 -0.4002
 7290SOL    HW132339   3.465   8.652   4.148 -0.0569 -0.1518 -0.1790
 7290SOL    HW232340   3.582   8.755   4.098 -1.8209  1.4846 -0.9916
 7291SOL     OW32341   7.815   6.552   1.597 -0.1842 -0.3293  0.2970
 7291SOL    HW132342   7.888   6.560   1.529  0.2860 -0.4888  0.7803
 7291SOL    HW232343   7.726   6.561   1.551  0.1189 -0.6871 -0.3706
 7292SOL     OW32344   9.454   9.343   4.088 -0.1684  0.5182  0.1344
 7292SOL    HW132345   9.375   9.394   4.122 -0.0468 -0.1264  1.3881
 7292SOL    HW232346   9.428   9.247   4.075 -0.3487  0.8263 -2.0434
 7293SOL     OW32347   6.825   0.921   2.385  0.2484 -0.5847  0.1593
 7293SOL    HW132348   6.771   0.959   2.310  0.4255  1.1481  0.8775
 7293SOL    HW232349   6.766   0.909   2.465  0.4694 -0.6659  0.3082
 7294SOL     OW32350   3.874   4.888   1.605  0.2420 -0.2377  0.0607
 7294SOL    HW132351   3.838   4.897   1.512  1.2270 -2.4802 -0.5784
 7294SOL    HW232352   3.847   4.967   1.659  0.0259  1.3259 -2.2629
 7295SOL     OW32353   1.460   8.753   4.596 -0.4966  0.4798  0.2651
 7295SOL    HW132354   1.483   8.821   4.526 -0.6351  0.1557 -0.0944
 7295SOL    HW232355   1.444   8.664   4.553 -3.1533  0.8440  0.4227
 7296SOL     OW32356   6.906   0.620   2.629 -0.2147  0.7917  0.2618
 7296SOL    HW132357   6.982   0.661   2.578 -0.8848  1.6190 -0.0911
 7296SOL    HW232358   6.821   0.669   2.606 -1.0560 -0.8682 -0.2496
 7297SOL     OW32359   0.872   1.684   1.028  0.4719  0.3337  0.0734
 7297SOL    HW132360   0.802   1.632   1.076  0.7165 -0.1193 -0.0634
 7297SOL    HW232361   0.957   1.632   1.025  0.2012 -0.0428 -1.6403
 7298SOL     OW32362   2.815   9.395   3.250  0.2378  0.5773 -0.8223
 7298SOL    HW132363   2.874   9.468   3.216  0.1144  0.4257 -1.3756
 7298SOL    HW232364   2.721   9.411   3.220  0.0566  0.6502 -0.2143
 7299SOL     OW32365   9.449   0.016   4.606  0.2355 -0.2871 -0.1823
 7299SOL    HW132366   9.433   0.115   4.604  1.7043 -0.0690 -1.5675
 7299SOL    HW232367   9.403  -0.027   4.528 -1.8060 -0.9452  1.3298
 7300SOL     OW32368   9.697   6.606   4.149  0.1099 -0.0091  0.6320
 7300SOL    HW132369   9.788   6.615   4.189 -0.5329  1.9759  1.7277
 7300SOL    HW232370   9.703   6.616   4.050  1.1087 -0.1470  0.6735
 7301SOL     OW32371   9.067   6.801   1.963  0.2577 -0.6352 -0.7632
 7301SOL    HW132372   9.118   6.874   2.009 -0.0356 -1.4453  0.8941
 7301SOL    HW232373   8.992   6.771   2.022 -0.3945 -1.4087 -1.9766
 7302SOL     OW32374   6.736   8.979   3.973 -0.1988  0.8313 -0.6702
 7302SOL    HW132375   6.770   9.060   3.925  1.0913  0.2302 -0.8123
 7302SOL    HW232376   6.705   8.912   3.906  3.3613 -0.7763 -0.8223
 7303SOL     OW32377   1.918   0.578   2.148 -0.0302 -0.3209  0.3980
 7303SOL    HW132378   2.005   0.529   2.136 -0.0010  0.0940 -1.1665
 7303SOL    HW232379   1.909   0.647   2.076 -0.9539  0.6758  1.4638
 7304SOL     OW32380   1.510   2.371   1.549 -0.1924 -0.4242  0.2577
 7304SOL    HW132381   1.476   2.425   1.626  0.3652 -0.3868  0.4864
 7304SOL    HW232382   1.435   2.350   1.487 -0.2318  1.4637 -0.3591
 7305SOL     OW32383   7.397   7.013   1.626  0.3728 -0.3441  0.4036
 7305SOL    HW132384   7.408   7.092   1.567  1.5097 -0.5008  0.4014
 7305SOL    HW232385   7.308   7.017   1.671 -0.4752 -0.1838 -1.2554
 7306SOL     OW32386   4.368   7.581   4.767  0.0652 -0.2024  1.2718
 7306SOL    HW132387   4.400   7.489   4.749 -2.0664 -0.6486 -0.4575
 7306SOL    HW232388   4.446   7.644   4.771  1.4056 -1.8295  1.0074
 7307SOL     OW32389   0.589   8.706   3.928 -0.2405  0.3099  0.0332
 7307SOL    HW132390   0.533   8.652   3.991 -1.7598  0.8583 -0.7967
 7307SOL    HW232391   0.590   8.802   3.958 -0.4197  0.4489 -0.3981
 7308SOL     OW32392   6.344   8.690   2.339 -0.1757  0.7133 -0.2766
 7308SOL    HW132393   6.263   8.749   2.346 -0.3787  0.5752 -1.2773
 7308SOL    HW232394   6.351   8.655   2.245  1.3029  1.0862 -0.3137
 7309SOL     OW32395   2.707   6.891   3.310  0.0474  0.2014 -0.0419
 7309SOL    HW132396   2.607   6.887   3.312 -0.0469  2.1981  4.5143
 7309SOL    HW232397   2.736   6.981   3.277  0.4054 -0.4650 -1.6084
 7310SOL     OW32398   2.968   1.431   3.227 -0.0275 -0.5031  0.1421
 7310SOL    HW132399   2.963   1.531   3.225 -1.2817 -0.5778 -0.5100
 7310SOL    HW232400   2.984   1.396   3.135 -1.0580 -0.9830  0.1439
 7311SOL     OW32401   3.928   9.759   1.098 -0.3506  0.0513  0.4294
 7311SOL    HW132402   4.016   9.728   1.135 -0.0453  0.2107 -0.1491
 7311SOL    HW232403   3.853   9.717   1.149  0.0597 -2.0593 -0.6480
 7312SOL     OW32404   8.443   7.166   3.276  0.1654 -0.2252  0.0150
 7312SOL    HW132405   8.372   7.216   3.227  0.2319  0.8168  0.9624
 7312SOL    HW232406   8.531   7.213   3.265  0.4850 -0.8709 -0.2035
 7313SOL     OW32407   2.009   9.891   3.208  0.0595  0.1744  0.3471
 7313SOL    HW132408   1.954   9.972   3.227  0.2068  0.0904  1.1653
 7313SOL    HW232409   2.042   9.852   3.294  1.4620  0.2700 -0.1208
 7314SOL     OW32410   7.711   9.905   2.306  0.1775  0.0558 -0.1396
 7314SOL    HW132411   7.667   9.960   2.234 -0.7645 -1.0814 -0.4546
 7314SOL    HW232412   7.806   9.935   2.317  0.2634  0.4044 -1.6936
 7315SOL     OW32413   4.223   9.296   0.928  0.5730  0.4997 -0.3433
 7315SOL    HW132414   4.306   9.301   0.872  0.2798  1.1041 -0.7229
 7315SOL    HW232415   4.143   9.310   0.870  0.2209  0.2775  0.0870
 7316SOL     OW32416   6.456   8.296   1.756  0.0696  0.2942 -0.7577
 7316SOL    HW132417   6.406   8.210   1.763  0.3693  0.0324 -1.7422
 7316SOL    HW232418   6.539   8.291   1.811  0.3624 -0.2522 -1.2448
 7317SOL     OW32419   2.031   4.737   4.370 -0.4557  0.0732  0.6216
 7317SOL    HW132420   2.121   4.762   4.335 -1.3832  2.7543 -0.0025
 7317SOL    HW232421   1.970   4.716   4.293 -1.0865  0.9109  0.8876
 7318SOL     OW32422   4.129   3.970   3.711 -0.3961 -0.1703 -0.5679
 7318SOL    HW132423   4.163   3.899   3.649  1.9255  2.0765 -2.0163
 7318SOL    HW232424   4.145   3.943   3.805  0.2881 -1.6703 -1.0969
 7319SOL     OW32425   2.987   0.490   3.664  0.3685  0.7593  0.2506
 7319SOL    HW132426   2.913   0.518   3.603  1.6616  0.6848 -1.3883
 7319SOL    HW232427   2.971   0.396   3.695  1.2009 -0.2978 -2.3957
 7320SOL     OW32428   4.806   0.735   3.203 -0.3392  0.4618  0.4723
 7320SOL    HW132429   4.718   0.709   3.163 -0.3504  0.8947  0.2079
 7320SOL    HW232430   4.877   0.732   3.132 -0.1971  0.3883  0.6180
 7321SOL     OW32431   8.226   6.751   1.574 -0.1151  0.7333 -0.0868
 7321SOL    HW132432   8.149   6.782   1.629  0.2864  0.1058  0.8491
 7321SOL    HW232433   8.308   6.802   1.601 -0.6649  3.2087 -2.8166
 7322SOL     OW32434   0.708   9.577   0.643 -0.0059 -0.1053  0.0212
 7322SOL    HW132435   0.679   9.657   0.695 -0.2685  0.7793 -1.4493
 7322SOL    HW232436   0.804   9.586   0.618 -0.2482  0.1377 -0.8354
 7323SOL     OW32437   1.312   7.915   0.893 -0.4082  0.3360  0.0539
 7323SOL    HW132438   1.247   7.846   0.861 -0.8342  0.7706 -0.0197
 7323SOL    HW232439   1.337   7.897   0.988  0.9576 -1.0425 -0.5355
 7324SOL     OW32440   1.247   3.557   1.434 -0.1580 -0.1560 -0.2574
 7324SOL    HW132441   1.162   3.579   1.483  0.3148  1.1235  0.0039
 7324SOL    HW232442   1.314   3.521   1.499  0.3292  1.1545 -0.0204
 7325SOL     OW32443   2.730   3.270   1.142  0.2384 -0.4695  0.3638
 7325SOL    HW132444   2.683   3.253   1.055  2.5760  0.3650 -1.1194
 7325SOL    HW232445   2.707   3.362   1.175 -1.3466 -1.1156  1.1191
 7326SOL     OW32446   0.635   4.390   2.995  0.7235 -0.5358 -0.0284
 7326SOL    HW132447   0.690   4.469   2.967  0.7048 -0.5578 -0.1271
 7326SOL    HW232448   0.626   4.390   3.095 -0.7406  0.5631 -0.1517
 7327SOL     OW32449   3.721   2.678   1.612  0.5139 -0.1311 -0.2477
 7327SOL    HW132450   3.713   2.757   1.552  0.2905 -1.0731 -1.4857
 7327SOL    HW232451   3.635   2.664   1.661  0.9201  1.0421  0.8067
 7328SOL     OW32452   4.539   1.782   1.318  0.0715 -0.8776 -0.5351
 7328SOL    HW132453   4.505   1.714   1.253  0.2519 -1.2842 -0.2095
 7328SOL    HW232454   4.464   1.839   1.350  0.0357 -0.4767 -1.3392
 7329SOL     OW32455   1.710   6.312   2.774  0.9426 -0.2299  0.5217
 7329SOL    HW132456   1.692   6.409   2.791  1.9799  0.0514  0.0280
 7329SOL    HW232457   1.756   6.301   2.686  0.5627 -1.1992  0.4399
 7330SOL     OW32458   0.250   7.517   1.087  0.1944 -0.4145 -0.2926
 7330SOL    HW132459   0.264   7.427   1.046  0.4168  0.4290 -2.1108
 7330SOL    HW232460   0.158   7.550   1.064 -0.1250 -0.4455  0.9099
 7331SOL     OW32461   5.315   7.470   3.443  0.3417 -0.3322  0.0450
 7331SOL    HW132462   5.275   7.447   3.355  2.5823  2.0423 -1.6510
 7331SOL    HW232463   5.360   7.388   3.481 -1.2979 -1.5614 -0.6106
 7332SOL     OW32464   5.744   0.452   2.850 -0.3593 -0.0684 -0.3963
 7332SOL    HW132465   5.664   0.391   2.843 -0.1996 -0.2217 -0.9154
 7332SOL    HW232466   5.747   0.511   2.770 -1.2957  1.5952  0.7725
 7333SOL     OW32467   9.129   8.283   1.380 -0.5479 -0.4227  0.2959
 7333SOL    HW132468   9.191   8.323   1.447 -0.2057  0.7178 -0.6722
 7333SOL    HW232469   9.055   8.348   1.361 -0.6364 -0.7358 -0.4433
 7334SOL     OW32470   8.521   6.086   2.575  0.4148  0.0764  0.3633
 7334SOL    HW132471   8.450   6.147   2.539  0.0359  0.5368  1.8373
 7334SOL    HW232472   8.569   6.042   2.500 -0.9453  0.3340 -0.6695
 7335SOL     OW32473   4.683   7.007   2.711  0.8451 -0.5117  0.0639
 7335SOL    HW132474   4.617   7.060   2.764  0.1114 -0.9998 -0.3493
 7335SOL    HW232475   4.760   6.981   2.769  0.1056 -0.9464  0.8629
 7336SOL     OW32476   0.244   6.851   1.831  0.3582 -0.1545  0.1848
 7336SOL    HW132477   0.182   6.807   1.895  0.6232  1.0723  1.3141
 7336SOL    HW232478   0.208   6.941   1.807  1.2007  0.1514  0.0669
 7337SOL     OW32479   1.839   8.983   2.137  0.1426  0.5431 -0.1594
 7337SOL    HW132480   1.790   8.917   2.194  2.3203 -1.6747 -0.7686
 7337SOL    HW232481   1.932   8.995   2.172 -0.3447  3.6995  0.2106
 7338SOL     OW32482   1.653   5.183   0.066  0.5432 -0.1651  0.0330
 7338SOL    HW132483   1.670   5.279   0.090 -0.2385 -0.1756  0.6469
 7338SOL    HW232484   1.630   5.176  -0.031 -2.3372  0.6529  0.5978
 7339SOL     OW32485   4.260   3.595   0.786 -0.3612 -0.6213  0.2958
 7339SOL    HW132486   4.190   3.601   0.715 -0.3202  0.1222  0.3104
 7339SOL    HW232487   4.222   3.629   0.872  0.3937  0.9797  0.0165
 7340SOL     OW32488   9.981   1.343   1.436  0.0524  0.5565 -0.4763
 7340SOL    HW132489   9.956   1.278   1.365  0.1927 -0.3429  0.2969
 7340SOL    HW232490   9.920   1.332   1.514  1.7095 -0.4291  0.7083
 7341SOL     OW32491   8.632   6.132   4.176 -0.2994 -0.7643  0.1380
 7341SOL    HW132492   8.617   6.222   4.135 -0.2920 -0.2903  1.1696
 7341SOL    HW232493   8.683   6.075   4.111 -0.9351 -0.2736 -0.8093
 7342SOL     OW32494   3.392   9.360   0.070 -0.0343  0.2195  0.2620
 7342SOL    HW132495   3.467   9.426   0.075 -0.5244  0.7929 -0.0015
 7342SOL    HW232496   3.374   9.323   0.161 -0.4250  1.1854  0.5749
 7343SOL     OW32497   9.926   5.017   2.968 -0.1150 -0.6913  0.5357
 7343SOL    HW132498   9.940   4.920   2.947 -0.3117 -0.4255 -0.8807
 7343SOL    HW232499  10.004   5.070   2.934  0.3274 -0.4332  1.9409
 7344SOL     OW32500   3.425   7.500   4.343 -0.3150  0.4339  0.1856
 7344SOL    HW132501   3.503   7.442   4.318  0.1982  0.3898  1.8155
 7344SOL    HW232502   3.446   7.595   4.319  0.0877  0.3709  0.2868
 7345SOL     OW32503   3.047   6.697   3.090  0.2168 -0.3180 -0.2258
 7345SOL    HW132504   3.134   6.649   3.079 -0.0808 -0.9109 -0.0088
 7345SOL    HW232505   2.999   6.662   3.170 -0.0108  0.3391 -0.0658
 7346SOL     OW32506   2.221   6.484   4.329  0.0805  0.2105  0.6989
 7346SOL    HW132507   2.313   6.463   4.362  0.3569 -0.5218 -0.5126
 7346SOL    HW232508   2.173   6.538   4.398  1.3228  0.3798  1.4551
 7347SOL     OW32509   1.427   2.359   3.986  0.2895  0.2276  0.5678
 7347SOL    HW132510   1.518   2.380   4.023  1.4915  0.1141 -2.1887
 7347SOL    HW232511   1.426   2.378   3.888 -2.2951 -1.0395  0.3085
 7348SOL     OW32512   2.743   3.662   2.956 -0.3798 -0.5399  0.2604
 7348SOL    HW132513   2.698   3.751   2.959  0.0841 -0.3245  0.8544
 7348SOL    HW232514   2.711   3.611   2.875 -2.5751 -0.8629  1.2948
 7349SOL     OW32515   9.550   6.564   2.234  0.3604  0.4059 -0.2912
 7349SOL    HW132516   9.499   6.503   2.173  1.2754  0.5570 -1.2235
 7349SOL    HW232517   9.648   6.554   2.217  0.5414  1.7196 -0.0512
 7350SOL     OW32518   2.124   3.257   3.035  0.0458  0.0633 -0.0192
 7350SOL    HW132519   2.213   3.290   3.067 -0.0818 -0.8594  1.2733
 7350SOL    HW232520   2.058   3.332   3.038  0.5080  0.4691  0.0435
 7351SOL     OW32521   2.243   6.538   0.093 -0.4987 -0.3589 -0.0213
 7351SOL    HW132522   2.297   6.572   0.016 -0.5291 -1.9018 -0.7326
 7351SOL    HW232523   2.170   6.478   0.059 -2.4063  1.3183  0.9537
 7352SOL     OW32524   1.938   4.263   2.965  0.2487 -0.2940 -0.5469
 7352SOL    HW132525   2.005   4.304   2.903 -1.8339  1.6789 -1.5927
 7352SOL    HW232526   1.952   4.299   3.057 -0.6417  1.7730 -1.1737
 7353SOL     OW32527   0.517   3.504   1.126  0.5068  0.1994  0.0673
 7353SOL    HW132528   0.531   3.594   1.086 -2.3881 -0.0652 -1.6481
 7353SOL    HW232529   0.525   3.434   1.055 -1.8197 -0.5064  0.4599
 7354SOL     OW32530   0.905   7.063   1.229 -0.4943 -0.0012 -0.4508
 7354SOL    HW132531   0.813   7.067   1.192  0.2532  1.2038 -2.2429
 7354SOL    HW232532   0.916   6.979   1.283 -2.1706 -0.8645 -1.4273
 7355SOL     OW32533   1.475   6.452   2.555  0.4771  0.0341  0.0007
 7355SOL    HW132534   1.514   6.535   2.596  0.8253 -0.4570  0.6775
 7355SOL    HW232535   1.417   6.477   2.477  0.7886  0.8931  0.0386
 7356SOL     OW32536   2.352   9.428   0.425  0.0889  0.5516 -0.3790
 7356SOL    HW132537   2.299   9.438   0.509 -1.3393  0.6137 -1.2768
 7356SOL    HW232538   2.399   9.340   0.426  1.9417  1.5034  1.5017
 7357SOL     OW32539   0.264   5.641   2.561  0.3823 -0.1821  0.8686
 7357SOL    HW132540   0.284   5.734   2.590  1.1001 -0.8401  2.5380
 7357SOL    HW232541   0.308   5.623   2.473  1.2698  0.6625  1.1369
 7358SOL     OW32542   0.981   5.631   3.423  0.3934  0.4579 -0.2221
 7358SOL    HW132543   0.990   5.570   3.502  0.4836  1.3551  0.4742
 7358SOL    HW232544   1.036   5.713   3.438 -3.1151  2.7546  0.8894
 7359SOL     OW32545   4.654   2.883   2.407 -0.1228 -0.6220 -0.0944
 7359SOL    HW132546   4.666   2.790   2.373 -0.6759 -0.5581 -0.4712
 7359SOL    HW232547   4.653   2.882   2.507  2.3476 -0.7046 -0.0425
 7360SOL     OW32548   5.500   7.032   2.199 -0.2069 -0.5283 -0.6362
 7360SOL    HW132549   5.514   7.074   2.109 -1.0500 -1.5238 -1.2507
 7360SOL    HW232550   5.490   6.933   2.187  1.4732 -0.8838  0.7454
 7361SOL     OW32551   4.499   0.074   2.430  0.5437 -0.1038 -0.0079
 7361SOL    HW132552   4.453  -0.010   2.404  1.6126 -0.6874 -0.0655
 7361SOL    HW232553   4.502   0.081   2.530 -1.6462  1.0589 -0.0094
 7362SOL     OW32554   7.870   8.329   3.714 -0.3535 -0.3208  0.4784
 7362SOL    HW132555   7.954   8.337   3.660  0.4868 -2.8349  1.3398
 7362SOL    HW232556   7.798   8.288   3.659  0.2815 -2.1758  0.9828
 7363SOL     OW32557   1.228   2.325   3.314 -0.0808  0.3375  0.2293
 7363SOL    HW132558   1.291   2.333   3.237 -0.3421  1.1868  0.1005
 7363SOL    HW232559   1.152   2.264   3.290  0.2236  0.0200  0.0748
 7364SOL     OW32560   8.428   0.009   4.733 -0.2334 -0.0413  0.1419
 7364SOL    HW132561   8.428  -0.042   4.647 -1.6877 -1.3662  0.8946
 7364SOL    HW232562   8.433   0.107   4.713 -1.9483 -0.2593 -1.5378
 7365SOL     OW32563   9.025   9.492   2.365 -0.3364 -0.1336  0.0097
 7365SOL    HW132564   8.988   9.415   2.313  0.5374 -0.6971  0.2072
 7365SOL    HW232565   8.950   9.551   2.395 -1.1258 -1.5725  0.9200
 7366SOL     OW32566   0.381   8.477   1.395  0.0677  0.9640 -0.1744
 7366SOL    HW132567   0.295   8.428   1.383  1.2626 -1.0109 -0.8598
 7366SOL    HW232568   0.395   8.496   1.492 -1.2338  1.4805 -0.0787
 7367SOL     OW32569   4.095   8.146   1.398 -0.6605 -0.4174 -0.2520
 7367SOL    HW132570   4.133   8.221   1.451  0.5210  0.0806 -1.7960
 7367SOL    HW232571   4.001   8.168   1.372 -1.3932 -0.8273  1.9145
 7368SOL     OW32572   4.318   7.768   2.708 -0.3140 -0.0869 -0.0553
 7368SOL    HW132573   4.264   7.850   2.726  0.6683  0.0727  2.3635
 7368SOL    HW232574   4.331   7.717   2.793  0.6608 -1.7782 -1.1890
 7369SOL     OW32575   3.307   5.204   3.953 -0.0343  0.7129 -0.1278
 7369SOL    HW132576   3.350   5.248   3.874 -1.3249  0.8248 -0.7838
 7369SOL    HW232577   3.288   5.108   3.932  1.3138  0.2567  0.7215
 7370SOL     OW32578   3.807   1.411   2.571 -0.0320  0.8521 -0.0226
 7370SOL    HW132579   3.887   1.471   2.578  0.8279 -0.4085  1.2011
 7370SOL    HW232580   3.726   1.459   2.604  0.5981  1.4318  0.6969
 7371SOL     OW32581   3.190   8.545   0.811 -0.0994 -0.1413 -0.2729
 7371SOL    HW132582   3.111   8.604   0.799  0.2217  0.4593  0.5090
 7371SOL    HW232583   3.239   8.537   0.724 -1.1386 -0.7002 -0.8130
 7372SOL     OW32584   1.185   3.071   3.388 -0.4542 -0.1360  0.4280
 7372SOL    HW132585   1.099   3.120   3.396  0.2369  1.5832 -2.1750
 7372SOL    HW232586   1.187   3.018   3.303  0.8643 -0.5346  0.6801
 7373SOL     OW32587   2.482   8.762   1.581 -0.1501  0.6012  0.1655
 7373SOL    HW132588   2.512   8.715   1.664 -0.0262  1.7834  0.8010
 7373SOL    HW232589   2.529   8.724   1.502 -0.2110 -0.4815  0.6361
 7374SOL     OW32590   2.229   5.680   3.014  0.6407  0.7741 -0.2414
 7374SOL    HW132591   2.261   5.724   2.931 -1.0141  1.6982 -0.3960
 7374SOL    HW232592   2.129   5.674   3.013  0.6389  0.2523  1.4094
 7375SOL     OW32593   2.351   1.655   3.743  0.2181  0.1561  0.0851
 7375SOL    HW132594   2.323   1.734   3.797 -2.3701 -1.5181  1.2665
 7375SOL    HW232595   2.399   1.590   3.801 -0.6160 -0.6475 -0.1150
 7376SOL     OW32596   5.955   8.510   2.513  0.0589  0.0275  0.1646
 7376SOL    HW132597   5.876   8.563   2.547  2.0783  4.1237 -1.2083
 7376SOL    HW232598   5.957   8.514   2.413 -0.1776 -3.4734 -0.0328
 7377SOL     OW32599   8.376   6.309   1.118 -0.8641 -0.1221  0.5550
 7377SOL    HW132600   8.393   6.302   1.020  1.3759  0.4575  0.8832
 7377SOL    HW232601   8.313   6.384   1.135 -0.4820  0.4179 -0.3642
 7378SOL     OW32602   1.763   4.838   3.909 -0.0168  0.4550  0.6080
 7378SOL    HW132603   1.686   4.898   3.888  0.8723  2.3855  2.7350
 7378SOL    HW232604   1.757   4.755   3.852 -2.6623  1.3664 -0.5082
 7379SOL     OW32605   0.879   2.209   0.448  0.5166 -0.5266  0.5490
 7379SOL    HW132606   0.936   2.132   0.477  0.9922 -0.3720  0.0162
 7379SOL    HW232607   0.842   2.191   0.357  0.9467  0.0509  0.2587
 7380SOL     OW32608   9.967   8.429   2.970  0.5384  0.4359 -0.4779
 7380SOL    HW132609   9.899   8.379   3.023  0.2735  0.6882 -0.5814
 7380SOL    HW232610  10.029   8.364   2.925 -0.1614  0.1902 -1.0869
 7381SOL     OW32611   0.183   9.832   2.421 -0.6099  0.0170  0.4569
 7381SOL    HW132612   0.247   9.907   2.405  0.5800 -0.3515  3.2954
 7381SOL    HW232613   0.115   9.830   2.347  1.0726  2.0407 -1.1962
 7382SOL     OW32614   3.594   9.220   3.317 -0.4856  0.2233  0.2767
 7382SOL    HW132615   3.608   9.126   3.349 -1.6475  0.2041  0.7612
 7382SOL    HW232616   3.636   9.231   3.227  0.3471 -0.5300  0.5603
 7383SOL     OW32617   2.370   3.536   2.887  0.1485  0.0992 -0.0169
 7383SOL    HW132618   2.304   3.610   2.893 -0.4010 -0.4213  0.3458
 7383SOL    HW232619   2.427   3.536   2.969  0.9841  0.9025 -0.5827
 7384SOL     OW32620   9.194   6.524   2.926  0.2674 -0.3176  0.2352
 7384SOL    HW132621   9.287   6.546   2.898  0.5336 -1.0497  0.5248
 7384SOL    HW232622   9.174   6.571   3.013 -0.4490  1.6914 -0.9805
 7385SOL     OW32623   2.555   7.212   4.169  0.0026  0.1024 -0.3454
 7385SOL    HW132624   2.527   7.306   4.149  0.1887  0.7305  2.1558
 7385SOL    HW232625   2.504   7.149   4.111 -1.3202  1.6516 -0.9045
 7386SOL     OW32626   0.629   6.915   3.699 -0.7588  0.6970  0.2228
 7386SOL    HW132627   0.679   6.998   3.721 -1.4615  1.2419 -0.2448
 7386SOL    HW232628   0.531   6.929   3.716 -1.1324  0.6439 -1.8221
 7387SOL     OW32629   1.326   7.194   1.168  0.5889  0.3917  0.2043
 7387SOL    HW132630   1.342   7.260   1.241  1.0469  0.8697 -0.3267
 7387SOL    HW232631   1.340   7.101   1.203  0.2383  0.5884  0.8706
 7388SOL     OW32632   5.682   9.505   1.247  0.4094 -0.0809 -0.9291
 7388SOL    HW132633   5.707   9.481   1.153 -1.3038 -0.7899 -1.2348
 7388SOL    HW232634   5.651   9.423   1.295  1.9227  0.1496  0.4850
 7389SOL     OW32635   1.627   2.999   0.927 -0.2415 -0.7558  0.7116
 7389SOL    HW132636   1.680   3.064   0.982 -0.8085 -1.2356  1.8351
 7389SOL    HW232637   1.541   3.042   0.899 -1.1393 -1.3866  2.4238
 7390SOL     OW32638   9.771   8.579   2.427  0.4933  0.2470 -0.0616
 7390SOL    HW132639   9.736   8.650   2.488  2.0796  1.2181 -0.2524
 7390SOL    HW232640   9.832   8.519   2.477 -2.3479 -2.2387  0.5932
 7391SOL     OW32641   1.169   4.841   4.088 -0.5219  0.6412 -0.5288
 7391SOL    HW132642   1.072   4.843   4.064 -0.7462 -0.6542  0.2225
 7391SOL    HW232643   1.202   4.934   4.100 -1.5729  1.1100 -1.1688
 7392SOL     OW32644   3.326   2.709   2.198  0.2106  0.1855 -0.4602
 7392SOL    HW132645   3.272   2.778   2.246  0.1703  0.7388 -1.3085
 7392SOL    HW232646   3.419   2.710   2.233 -0.4395 -1.1395  1.3936
 7393SOL     OW32647   1.183   6.867   0.437  0.2959  0.5253 -0.2052
 7393SOL    HW132648   1.218   6.773   0.437 -0.7591  0.1066 -1.6795
 7393SOL    HW232649   1.105   6.873   0.374  0.6444  2.4999 -0.4764
 7394SOL     OW32650   9.464   0.305   0.059 -0.4376 -0.6430 -0.1295
 7394SOL    HW132651   9.364   0.307   0.066 -0.3902  1.1697  0.2264
 7394SOL    HW232652   9.491   0.314  -0.037 -0.5986  0.6974 -0.0609
 7395SOL     OW32653   8.121   5.583   2.101  0.1073 -0.9667  0.5401
 7395SOL    HW132654   8.067   5.644   2.043  0.1332 -0.3401  1.1650
 7395SOL    HW232655   8.179   5.525   2.044  0.7291  0.2002 -0.0333
 7396SOL     OW32656   1.025   0.754   3.437 -0.8576  0.0813 -0.0621
 7396SOL    HW132657   1.012   0.740   3.535 -0.3989  0.5899  0.0781
 7396SOL    HW232658   0.964   0.694   3.385 -2.1486  0.8495  0.5470
 7397SOL     OW32659   5.424   9.936   2.637 -0.6756  0.2637  0.0832
 7397SOL    HW132660   5.424   9.943   2.537  0.0916  0.1750  0.0759
 7397SOL    HW232661   5.367  10.008   2.675 -3.4955 -1.5544 -0.5486
 7398SOL     OW32662   1.842   1.013   1.363  0.3925  0.1489  0.0591
 7398SOL    HW132663   1.849   0.928   1.312 -1.6793 -0.5413  0.8482
 7398SOL    HW232664   1.911   1.014   1.436  0.4197 -0.8750  0.0598
 7399SOL     OW32665   0.353   3.361   2.339  0.3704  0.3954  0.4642
 7399SOL    HW132666   0.346   3.386   2.435  1.4637 -0.2183  0.7143
 7399SOL    HW232667   0.272   3.308   2.312  0.0309  0.6311  1.0231
 7400SOL     OW32668   4.102   0.127   3.047  0.0315  0.1675 -0.0157
 7400SOL    HW132669   4.168   0.161   3.114  0.4314 -0.3251 -0.1587
 7400SOL    HW232670   4.012   0.166   3.066 -0.2146 -1.2304  1.8005
 7401SOL     OW32671   2.172   6.785   2.456 -0.4031  0.0778  0.1582
 7401SOL    HW132672   2.263   6.827   2.450 -0.8781  0.8629 -2.2283
 7401SOL    HW232673   2.158   6.750   2.549  0.9843  3.0277  1.5823
 7402SOL     OW32674   3.293   3.909   3.342 -0.8205  0.1799 -0.3275
 7402SOL    HW132675   3.212   3.886   3.289 -0.7079 -0.5771 -0.1784
 7402SOL    HW232676   3.370   3.854   3.311 -0.5468  0.3561  0.0365
 7403SOL     OW32677   1.706   0.764   4.295 -0.4401 -0.2210  0.2731
 7403SOL    HW132678   1.751   0.704   4.360  1.0171  0.9960  0.4079
 7403SOL    HW232679   1.676   0.847   4.342  0.3444  0.5292 -0.5260
 7404SOL     OW32680   7.797   8.382   1.584  0.5332 -0.5320  0.7268
 7404SOL    HW132681   7.886   8.419   1.610  1.0451  0.2259 -1.9488
 7404SOL    HW232682   7.809   8.314   1.511 -0.8333 -2.6337  2.4091
 7405SOL     OW32683   5.861   9.411   2.600  0.4461  0.0447  0.0993
 7405SOL    HW132684   5.766   9.433   2.579  0.3636 -0.3431  0.0613
 7405SOL    HW232685   5.905   9.374   2.518  0.5816  0.0632  0.1648
 7406SOL     OW32686   5.831   6.827   2.340  0.1454 -0.3946 -0.0240
 7406SOL    HW132687   5.868   6.848   2.249  1.2456  1.8208  0.8974
 7406SOL    HW232688   5.782   6.906   2.375 -1.0026 -1.5243  0.9893
 7407SOL     OW32689   9.262   6.579   3.970 -0.0060  0.9232 -0.0156
 7407SOL    HW132690   9.319   6.657   3.946  1.8082 -0.5245 -0.5323
 7407SOL    HW232691   9.278   6.555   4.066  0.9250 -0.0095 -0.3933
 7408SOL     OW32692   0.967   4.016   2.135 -0.4632 -0.0966 -0.0011
 7408SOL    HW132693   1.060   3.988   2.113  0.1431  0.1799  2.0536
 7408SOL    HW232694   0.917   3.938   2.174 -0.7754  0.0090 -0.1863
 7409SOL     OW32695   4.538   0.654   1.597 -0.3995 -0.6433 -0.2791
 7409SOL    HW132696   4.480   0.714   1.653  0.0212 -1.2263  0.7968
 7409SOL    HW232697   4.569   0.704   1.516  2.0270  1.5213  1.8732
 7410SOL     OW32698   0.537   8.496   1.800 -0.4641 -0.0837  0.5063
 7410SOL    HW132699   0.558   8.505   1.897 -0.5732  1.5061  0.3987
 7410SOL    HW232700   0.614   8.453   1.753 -0.6270 -1.3419  1.3702
 7411SOL     OW32701   3.887   2.023   1.199  1.4068 -0.3693  0.0701
 7411SOL    HW132702   3.977   1.983   1.212  0.4427 -2.1861  1.4490
 7411SOL    HW232703   3.843   2.037   1.288 -1.4334 -3.7974 -0.6415
 7412SOL     OW32704   4.233   1.614   1.872 -0.1030 -0.0411 -0.0617
 7412SOL    HW132705   4.176   1.685   1.911  1.9997  2.4989 -1.4421
 7412SOL    HW232706   4.239   1.536   1.935 -2.3414  1.0330  1.5143
 7413SOL     OW32707   1.006   5.826   2.546  0.2753  0.2982 -0.2191
 7413SOL    HW132708   1.034   5.828   2.450 -0.5179 -0.3756 -0.4653
 7413SOL    HW232709   0.965   5.914   2.570 -0.3869  0.1346 -0.7573
 7414SOL     OW32710   0.763   0.805   1.777  0.3855  0.4609 -0.0885
 7414SOL    HW132711   0.712   0.841   1.855 -0.1899 -0.2486 -0.1221
 7414SOL    HW232712   0.816   0.878   1.735  0.7287  0.8370  0.9894
 7415SOL     OW32713   1.028   5.106   3.332  0.7916  0.3419 -0.5840
 7415SOL    HW132714   0.940   5.113   3.380  0.8964  0.8681 -0.4655
 7415SOL    HW232715   1.067   5.197   3.321  1.9982 -0.0241  0.6071
 7416SOL     OW32716   3.215   9.167   2.715  0.4353 -0.2006 -0.0684
 7416SOL    HW132717   3.308   9.194   2.740  0.8322 -2.2462  0.7240
 7416SOL    HW232718   3.212   9.069   2.696 -1.6798 -0.2846  0.5108
 7417SOL     OW32719   8.914   0.357   1.073 -0.3493  0.2705 -0.0424
 7417SOL    HW132720   8.893   0.355   1.171 -1.0438  1.4517 -0.1587
 7417SOL    HW232721   8.861   0.287   1.026  1.7442 -1.9189  0.7366
 7418SOL     OW32722   1.912   3.297   0.077 -0.0719  0.3737  0.0452
 7418SOL    HW132723   1.971   3.216   0.073  0.3101  0.6547  0.0213
 7418SOL    HW232724   1.817   3.267   0.084  0.0239 -0.0798 -0.5083
 7419SOL     OW32725   3.245   0.492   0.458  0.1051  0.0783  0.6567
 7419SOL    HW132726   3.157   0.538   0.452  1.4022  2.4891 -0.4268
 7419SOL    HW232727   3.257   0.430   0.381  0.3403  1.5728 -0.5283
 7420SOL     OW32728   1.821   2.084   2.338 -0.5805 -0.1157  0.0654
 7420SOL    HW132729   1.890   2.100   2.408  0.2633  0.2451 -0.8430
 7420SOL    HW232730   1.833   2.149   2.263 -0.9682 -1.0144 -0.7944
 7421SOL     OW32731   1.416   6.316   2.929 -0.7014  0.8496 -0.0415
 7421SOL    HW132732   1.357   6.283   2.856 -2.4177  1.8249  0.8895
 7421SOL    HW232733   1.467   6.396   2.898 -0.5687  0.5725 -0.5394
 7422SOL     OW32734   0.054   5.951   3.445 -0.7341  0.2702 -0.5407
 7422SOL    HW132735   0.022   6.015   3.376  0.0952  0.7477 -0.4804
 7422SOL    HW232736  -0.017   5.881   3.460 -1.2395  0.6092 -1.2956
 7423SOL     OW32737   0.576   6.183   3.582  0.2022  0.1742  0.3109
 7423SOL    HW132738   0.506   6.252   3.564  0.5099  1.0724  2.4189
 7423SOL    HW232739   0.664   6.228   3.595  0.7537 -0.7718 -0.0883
 7424SOL     OW32740   0.912   2.614   4.670  0.1024  0.3828 -0.1101
 7424SOL    HW132741   0.820   2.631   4.634 -0.1006  1.2988  0.8028
 7424SOL    HW232742   0.908   2.541   4.739 -0.0079  0.6664  0.1871
 7425SOL     OW32743   9.525   8.058   2.943  0.7592  0.5144  0.5184
 7425SOL    HW132744   9.456   8.074   3.014  0.3664 -0.9839  0.4991
 7425SOL    HW232745   9.551   8.145   2.902  0.8560  1.3909  2.3687
 7426SOL     OW32746   1.542   9.259   0.627  0.0112 -0.0575  0.4938
 7426SOL    HW132747   1.524   9.324   0.701 -1.8425  0.3413 -0.2681
 7426SOL    HW232748   1.495   9.289   0.544 -0.7748 -2.2910  0.0805
 7427SOL     OW32749   2.438   7.164   3.000 -0.1999 -0.2706 -0.2951
 7427SOL    HW132750   2.480   7.209   3.078  1.1754  0.1445 -1.2451
 7427SOL    HW232751   2.457   7.066   3.004 -1.0158 -0.4042  0.4267
 7428SOL     OW32752   9.577   0.319   3.590 -0.1151 -0.0901  0.3800
 7428SOL    HW132753   9.521   0.377   3.648 -1.5020 -0.8549 -0.1491
 7428SOL    HW232754   9.541   0.321   3.496  1.5450  0.4345 -0.2676
 7429SOL     OW32755   6.561   9.951   0.741 -0.0121  0.2117 -0.0308
 7429SOL    HW132756   6.560   9.889   0.663  0.6993  0.6404 -0.3899
 7429SOL    HW232757   6.479  10.008   0.741  0.2600  0.6040 -0.7880
 7430SOL     OW32758   9.751   0.658   1.017 -0.1121 -0.2292  0.0875
 7430SOL    HW132759   9.652   0.672   1.022 -0.2997 -1.7474  1.5972
 7430SOL    HW232760   9.798   0.728   1.070 -0.2763  1.3186 -1.7821
 7431SOL     OW32761   9.955   1.192   1.158  0.8398  0.8537 -0.3269
 7431SOL    HW132762  10.015   1.271   1.153 -0.1300  1.6535  0.4661
 7431SOL    HW232763   9.976   1.128   1.083  2.2168  1.4328 -0.4331
 7432SOL     OW32764   8.498   0.135   0.372 -0.3513  0.7532 -0.0924
 7432SOL    HW132765   8.525   0.100   0.462 -0.5104 -1.9099 -1.0442
 7432SOL    HW232766   8.404   0.168   0.376 -0.6627 -0.1992  0.4793
 7433SOL     OW32767   0.092   5.353   4.072 -0.5664 -0.0757 -0.1866
 7433SOL    HW132768  -0.002   5.367   4.040 -0.8166 -0.3199  0.4242
 7433SOL    HW232769   0.098   5.379   4.168 -0.0701 -0.3175 -0.1520
 7434SOL     OW32770   1.889   4.269   2.347 -0.1772  0.4406 -0.4560
 7434SOL    HW132771   1.948   4.333   2.395 -0.2714 -0.0743  0.3635
 7434SOL    HW232772   1.857   4.310   2.262 -0.1882  1.4510  0.0293
 7435SOL     OW32773   4.619   7.101   1.859  0.2524 -0.0982  0.1412
 7435SOL    HW132774   4.707   7.149   1.853  0.3815 -0.3325  0.1876
 7435SOL    HW232775   4.617   7.043   1.940  0.2832 -0.5533 -0.1803
 7436SOL     OW32776   3.503   1.264   2.331 -0.3777 -0.0934  0.6830
 7436SOL    HW132777   3.603   1.265   2.324 -0.4268 -0.1159 -0.0125
 7436SOL    HW232778   3.468   1.177   2.295 -0.7164  0.3111  0.0339
 7437SOL     OW32779   2.873   8.428   2.186  0.0610 -0.1412  0.4072
 7437SOL    HW132780   2.775   8.441   2.170 -0.5136 -3.4723  0.8700
 7437SOL    HW232781   2.888   8.407   2.283  1.2118  0.1665  0.2997
 7438SOL     OW32782   8.698   6.859   1.210 -0.6308 -0.6622  0.1815
 7438SOL    HW132783   8.736   6.951   1.225  1.1985 -1.4417  0.3915
 7438SOL    HW232784   8.736   6.796   1.277 -1.1271 -1.7844 -0.5786
 7439SOL     OW32785   4.767   8.885   4.048  0.3747 -0.9152 -0.2870
 7439SOL    HW132786   4.688   8.826   4.063  0.1090 -0.7312 -0.9302
 7439SOL    HW232787   4.778   8.947   4.127  0.8484 -2.0282  0.5273
 7440SOL     OW32788   0.779   8.467   4.417 -0.4929 -0.4834  0.1596
 7440SOL    HW132789   0.780   8.373   4.382 -2.1155  0.0952 -1.5265
 7440SOL    HW232790   0.689   8.508   4.401  0.2042  1.3773  0.8539
 7441SOL     OW32791   0.302   5.483   3.392 -0.3030 -0.9582  0.1652
 7441SOL    HW132792   0.267   5.393   3.369 -2.1679 -0.3131  0.4360
 7441SOL    HW232793   0.252   5.520   3.470  0.5669  0.2413  0.1786
 7442SOL     OW32794   3.567   1.913   3.367 -0.2567  0.5812 -0.2242
 7442SOL    HW132795   3.498   1.916   3.440 -0.7169  0.3854 -0.6503
 7442SOL    HW232796   3.535   1.854   3.293  0.3732  0.4843 -0.4263
 7443SOL     OW32797   2.618   2.113   0.232 -0.1788 -0.2033 -0.1977
 7443SOL    HW132798   2.531   2.071   0.256 -0.4993  0.6347  0.1146
 7443SOL    HW232799   2.654   2.165   0.309  0.2393  0.0577 -0.5596
 7444SOL     OW32800   1.310   4.361   3.003 -0.0986  0.4277  0.0085
 7444SOL    HW132801   1.256   4.327   3.080 -1.0384  0.9322 -0.4312
 7444SOL    HW232802   1.402   4.321   3.007 -0.8529 -1.3450  0.1027
 7445SOL     OW32803   2.166   7.817   3.841  0.0431 -0.0569  0.6654
 7445SOL    HW132804   2.241   7.814   3.774  0.7621 -1.0434  1.5015
 7445SOL    HW232805   2.184   7.751   3.913 -0.8373  0.8635  1.7321
 7446SOL     OW32806   2.161   3.245   2.015  0.1257 -0.1228  0.4753
 7446SOL    HW132807   2.147   3.318   2.082  0.1817  0.7507 -0.4505
 7446SOL    HW232808   2.254   3.250   1.978 -0.1028 -0.2118 -0.1236
 7447SOL     OW32809   0.488   5.745   1.714 -0.6595 -0.4106  0.2568
 7447SOL    HW132810   0.424   5.800   1.766 -2.4913  1.4175 -3.6956
 7447SOL    HW232811   0.437   5.683   1.654  1.3450 -2.0899  0.2348
 7448SOL     OW32812   0.618   8.352   4.626 -0.2476  0.2566  0.7896
 7448SOL    HW132813   0.521   8.329   4.634  0.0419 -1.2749  0.0671
 7448SOL    HW232814   0.631   8.449   4.645 -2.1015  0.7599 -0.3629
 7449SOL     OW32815   1.299   1.061   1.211 -0.3580  0.5912 -0.1628
 7449SOL    HW132816   1.238   1.121   1.263  1.4173  2.3844 -0.0923
 7449SOL    HW232817   1.360   1.013   1.273 -1.3383 -0.8247 -0.2709
 7450SOL     OW32818   6.879   9.762   2.710  0.1479 -0.3383  0.4895
 7450SOL    HW132819   6.827   9.833   2.663  0.2214 -0.5315  0.1160
 7450SOL    HW232820   6.950   9.804   2.766  0.2693 -0.1237  0.1714
 7451SOL     OW32821   1.165   1.720   2.899  0.0589 -0.0686 -0.0815
 7451SOL    HW132822   1.086   1.671   2.934  0.0129 -0.3105 -0.5193
 7451SOL    HW232823   1.245   1.659   2.899  0.0962 -0.0209 -0.2352
 7452SOL     OW32824   0.487   7.615   0.984  1.1020  0.4877  0.1543
 7452SOL    HW132825   0.476   7.639   0.888 -0.1389  1.4348  0.5260
 7452SOL    HW232826   0.405   7.568   1.017  1.2282  0.7827  0.9217
 7453SOL     OW32827   1.320   6.064   4.760 -0.0711  0.1052  0.1623
 7453SOL    HW132828   1.336   6.162   4.772 -0.9955  0.2744  0.0828
 7453SOL    HW232829   1.343   6.038   4.667 -1.1133  0.5255 -0.2241
 7454SOL     OW32830   2.328   5.709   2.398  0.2512 -0.4760  0.0296
 7454SOL    HW132831   2.257   5.754   2.344  0.4021 -0.2275  0.0388
 7454SOL    HW232832   2.289   5.674   2.483  0.5426  1.4083  0.9676
 7455SOL     OW32833   3.775   9.127   4.343 -0.1471 -0.9553 -0.2788
 7455SOL    HW132834   3.786   9.045   4.399 -0.5194 -0.0961  1.0910
 7455SOL    HW232835   3.735   9.102   4.255 -1.7295 -2.0660  0.7253
 7456SOL     OW32836   0.216   7.025   0.157  0.2644  0.4189  0.8535
 7456SOL    HW132837   0.300   7.078   0.164  0.8329 -0.1828 -1.0246
 7456SOL    HW232838   0.151   7.071   0.097  0.8551 -1.0649 -0.9898
 7457SOL     OW32839   2.082   0.227   3.311  0.5721  0.1858 -0.0610
 7457SOL    HW132840   2.083   0.307   3.251 -1.1146  1.5372  1.6546
 7457SOL    HW232841   1.997   0.225   3.363 -0.3078 -3.8254 -1.4688
 7458SOL     OW32842   4.695   9.857   2.776  0.3063  0.0950 -0.3646
 7458SOL    HW132843   4.645   9.798   2.839  0.7117  0.0295 -0.1006
 7458SOL    HW232844   4.670   9.835   2.682  0.7661 -0.7730 -0.2835
 7459SOL     OW32845   4.163   3.616   3.171  0.1573 -0.3058  0.2785
 7459SOL    HW132846   4.178   3.691   3.107  0.4525 -0.9005 -0.3501
 7459SOL    HW232847   4.079   3.568   3.147 -0.6766  0.5421  1.3957
 7460SOL     OW32848   8.436   6.998   1.411 -0.1486 -0.4525  0.4106
 7460SOL    HW132849   8.425   7.073   1.476  0.2131  0.2258 -0.2921
 7460SOL    HW232850   8.478   7.033   1.327  1.1029 -1.6807  0.5053
 7461SOL     OW32851   8.204   9.868   0.060  0.0760 -0.1132  0.0189
 7461SOL    HW132852   8.277   9.934   0.041  0.5504 -0.3552  0.9161
 7461SOL    HW232853   8.132   9.912   0.114  0.7334 -0.4964  1.2352
 7462SOL     OW32854   6.844   8.021   2.636  0.0070 -0.5777  0.2559
 7462SOL    HW132855   6.925   7.983   2.590 -0.1154 -1.1330  0.4965
 7462SOL    HW232856   6.858   8.020   2.735  0.4684  1.0720  0.2149
 7463SOL     OW32857   3.826   1.717   1.528  0.2718 -0.2322 -0.0226
 7463SOL    HW132858   3.750   1.654   1.515 -0.0968  0.0017  0.9611
 7463SOL    HW232859   3.818   1.793   1.463 -1.9177  1.2681  1.8961
 7464SOL     OW32860   0.105   8.956   3.060 -0.4357  0.2611 -0.4703
 7464SOL    HW132861   0.073   8.862   3.066  0.2607  0.0586  0.1351
 7464SOL    HW232862   0.201   8.961   3.087 -0.3693  1.0875 -0.8359
 7465SOL     OW32863   2.568   2.280   2.219  0.6378 -0.8982  0.3552
 7465SOL    HW132864   2.567   2.337   2.137 -1.2324 -0.3962  0.7099
 7465SOL    HW232865   2.495   2.309   2.281  1.7688 -1.5467  2.0180
 7466SOL     OW32866   0.105   0.916   4.278  0.4936 -0.5107  0.2550
 7466SOL    HW132867   0.189   0.970   4.278 -0.4288  0.9550 -0.2486
 7466SOL    HW232868   0.099   0.862   4.194  1.0273 -0.7860  0.3921
 7467SOL     OW32869   1.774   1.534   1.230  0.1728  0.8656  0.8442
 7467SOL    HW132870   1.778   1.440   1.263 -2.8974  1.1252  2.1941
 7467SOL    HW232871   1.864   1.563   1.199  1.0393 -2.7313 -0.2492
 7468SOL     OW32872   2.194   1.819   1.534  0.2420  0.3304  0.1355
 7468SOL    HW132873   2.155   1.731   1.562 -0.2932  0.0245 -1.5605
 7468SOL    HW232874   2.291   1.822   1.558  0.5890 -1.2577 -1.0013
 7469SOL     OW32875   3.551   4.876   1.925  0.3627 -0.5827  0.1032
 7469SOL    HW132876   3.611   4.956   1.925 -0.3761 -0.0295  0.2855
 7469SOL    HW232877   3.586   4.809   1.859 -1.2723  1.5905 -3.0831
 7470SOL     OW32878   7.522   0.623   1.751 -0.1945  0.1771  0.0125
 7470SOL    HW132879   7.549   0.691   1.684 -1.3676  2.7828  2.0728
 7470SOL    HW232880   7.430   0.589   1.729  0.2206 -0.4408 -0.7811
 7471SOL     OW32881   1.896   7.202   2.080 -0.1536  0.0635  0.5210
 7471SOL    HW132882   1.798   7.183   2.078  0.2283 -1.8979 -0.0343
 7471SOL    HW232883   1.938   7.154   2.157  0.2697  1.5050  1.2105
 7472SOL     OW32884   9.263   0.648   0.274  0.6710  0.5292  0.3366
 7472SOL    HW132885   9.311   0.605   0.350  0.7265 -0.9837 -0.5371
 7472SOL    HW232886   9.192   0.587   0.240  0.1214  1.5141 -0.3216
 7473SOL     OW32887   0.322   8.553   2.576  0.4099 -0.6441 -0.2086
 7473SOL    HW132888   0.354   8.633   2.524 -1.5493 -0.3386 -1.0043
 7473SOL    HW232889   0.269   8.493   2.515  1.4365 -2.3111  0.5065
 7474SOL     OW32890   4.545   7.674   1.378 -0.0452  0.1264  0.0511
 7474SOL    HW132891   4.518   7.697   1.284 -0.5055  1.7329  0.5625
 7474SOL    HW232892   4.512   7.583   1.401 -1.5803  0.4746 -0.6989
 7475SOL     OW32893   6.980   8.985   0.018  0.4330 -0.4047 -0.1254
 7475SOL    HW132894   6.896   8.944  -0.018  0.9027 -0.9247 -0.6366
 7475SOL    HW232895   7.056   8.921   0.006  1.1477  0.5642 -0.7917
 7476SOL     OW32896   0.531   2.253   2.694 -0.3860 -0.1584 -0.3607
 7476SOL    HW132897   0.496   2.246   2.600  1.3361  0.2404 -1.0603
 7476SOL    HW232898   0.502   2.340   2.734  1.2566  1.0051 -1.5917
 7477SOL     OW32899   1.582   1.432   3.063  0.8507  0.1890 -0.8349
 7477SOL    HW132900   1.665   1.443   3.118 -1.0107  0.8226  1.9293
 7477SOL    HW232901   1.516   1.376   3.113 -1.0748  1.1446 -2.2468
 7478SOL     OW32902   8.953   8.478   1.621 -0.6133 -0.3379 -0.1565
 7478SOL    HW132903   8.990   8.429   1.700 -0.8037 -1.8731 -1.0026
 7478SOL    HW232904   8.869   8.433   1.591 -2.5341  2.3844  0.9804
 7479SOL     OW32905   0.494   2.706   3.830  0.4633 -0.0954 -0.5253
 7479SOL    HW132906   0.446   2.792   3.811 -1.7533 -1.1245  0.2068
 7479SOL    HW232907   0.550   2.717   3.912 -0.3370  0.4527 -0.0424
 7480SOL     OW32908   2.185   1.753   4.439  0.5693  0.4643 -0.1427
 7480SOL    HW132909   2.257   1.758   4.370  0.5221 -0.5395 -0.2695
 7480SOL    HW232910   2.103   1.714   4.398 -0.1643  1.9230 -0.0883
 7481SOL     OW32911   2.054   4.097   2.641 -0.3180  0.5362  0.1293
 7481SOL    HW132912   2.081   4.109   2.546 -0.0796  0.7005  0.2173
 7481SOL    HW232913   1.967   4.049   2.645 -0.7526  1.2843 -0.2010
 7482SOL     OW32914   1.703   8.571   3.901  0.8240 -0.2457 -0.2816
 7482SOL    HW132915   1.639   8.624   3.957  0.0961  0.2916 -1.5834
 7482SOL    HW232916   1.759   8.633   3.847 -0.0212 -0.7668 -1.8052
 7483SOL     OW32917   4.146   1.597   3.893 -0.2249  0.4556  0.1419
 7483SOL    HW132918   4.206   1.675   3.874  0.1695 -0.1262 -1.0702
 7483SOL    HW232919   4.055   1.616   3.857 -0.9109  1.5055  2.3348
 7484SOL     OW32920   9.976   5.272   4.392 -0.0827 -0.1486 -0.0609
 7484SOL    HW132921   9.939   5.184   4.363  0.4916 -0.7598  1.0285
 7484SOL    HW232922   9.919   5.346   4.356  1.3424 -0.7872 -3.8725
 7485SOL     OW32923   3.148   7.502   0.004 -0.2284  0.9366  0.3922
 7485SOL    HW132924   3.051   7.517  -0.016 -0.1841  0.8187  0.0796
 7485SOL    HW232925   3.194   7.470  -0.079 -0.5197 -1.9006  1.2661
 7486SOL     OW32926   3.666   7.786   2.014  0.3583  0.1749  0.3860
 7486SOL    HW132927   3.678   7.719   2.087  2.3339  0.2548  0.1630
 7486SOL    HW232928   3.632   7.872   2.052 -0.9437 -0.5251  0.8504
 7487SOL     OW32929   8.904   8.058   0.891  0.1843  0.1463  0.1689
 7487SOL    HW132930   8.919   7.997   0.814 -1.0083 -0.1786  0.1923
 7487SOL    HW232931   8.833   8.125   0.868 -0.2261  0.0055  1.0067
 7488SOL     OW32932   8.324   7.176   1.589  0.0559 -0.1549 -0.3339
 7488SOL    HW132933   8.409   7.229   1.596 -0.5356  1.1785 -2.7737
 7488SOL    HW232934   8.253   7.219   1.645  0.3949 -0.0669  0.0273
 7489SOL     OW32935   9.357   7.698   1.063 -0.3319 -0.3269  0.1679
 7489SOL    HW132936   9.311   7.648   0.990 -0.3907  0.5302 -0.3926
 7489SOL    HW232937   9.344   7.796   1.050  1.9654 -0.0454 -0.2128
 7490SOL     OW32938   3.167   8.577   0.163 -0.5650  0.1041 -0.1196
 7490SOL    HW132939   3.129   8.503   0.107  2.3424 -0.0733 -1.9644
 7490SOL    HW232940   3.197   8.651   0.104  0.9104  0.7205  1.3655
 7491SOL     OW32941   0.928   1.212   2.526  0.1404 -0.0402  0.0327
 7491SOL    HW132942   0.894   1.219   2.619 -0.6427 -1.3400 -0.1346
 7491SOL    HW232943   0.883   1.135   2.480  1.4398 -0.2003 -1.0107
 7492SOL     OW32944   2.227   8.082   2.818 -0.6706 -0.2096 -0.1591
 7492SOL    HW132945   2.195   8.095   2.912 -0.3019 -0.8771  0.0672
 7492SOL    HW232946   2.306   8.141   2.802 -1.4246  0.7411 -0.4184
 7493SOL     OW32947   0.568   1.648   0.333  0.3447  0.3388 -0.3941
 7493SOL    HW132948   0.514   1.732   0.341  0.9421  0.6514  0.4065
 7493SOL    HW232949   0.550   1.605   0.245 -0.8253  0.7121 -0.3522
 7494SOL     OW32950   3.421   0.930   0.615  0.0039 -0.5791  0.4545
 7494SOL    HW132951   3.368   0.957   0.535  0.0664  0.7453  0.8560
 7494SOL    HW232952   3.405   0.994   0.690  1.2285 -0.8594  0.9803
 7495SOL     OW32953   3.510   4.073   4.667  0.0293  0.0222 -0.1175
 7495SOL    HW132954   3.411   4.067   4.657 -0.0039 -0.9007  0.6446
 7495SOL    HW232955   3.539   4.169   4.659 -0.8768  0.2555 -0.6781
 7496SOL     OW32956   1.298   0.224   3.881  0.1451  0.6492  0.1142
 7496SOL    HW132957   1.326   0.254   3.972  0.0584  0.5524  0.1717
 7496SOL    HW232958   1.199   0.235   3.870  0.2017  0.9746 -0.0851
 7497SOL     OW32959   7.630   9.956   2.876  0.1567  0.0090 -0.0365
 7497SOL    HW132960   7.729   9.970   2.887  0.4164 -1.0962 -0.8843
 7497SOL    HW232961   7.614   9.893   2.801 -1.2637  1.3766 -0.9142
 7498SOL     OW32962   0.185   5.890   3.701 -0.4899 -0.1416 -0.0018
 7498SOL    HW132963   0.172   5.909   3.603 -2.7919 -0.9390  0.1152
 7498SOL    HW232964   0.251   5.816   3.712  1.1055  1.1322 -0.8701
 7499SOL     OW32965   7.785   8.752   3.414  0.1474 -0.4782 -0.2352
 7499SOL    HW132966   7.698   8.704   3.421  0.7506 -1.3426  1.9350
 7499SOL    HW232967   7.793   8.817   3.489  0.9575  0.3046 -0.9911
 7500SOL     OW32968   8.056   7.176   4.501  0.4101 -0.0374  0.1226
 7500SOL    HW132969   8.086   7.090   4.460  1.3587  0.3136  0.0673
 7500SOL    HW232970   8.081   7.252   4.442  3.1553  0.5992  2.0081
 7501SOL     OW32971   6.841   8.639   2.938 -0.0563 -0.3286  0.0806
 7501SOL    HW132972   6.771   8.568   2.939  0.0014 -0.3804  0.5473
 7501SOL    HW232973   6.802   8.725   2.969 -0.3762  0.0877 -1.4291
 7502SOL     OW32974   0.853   6.775   2.749 -0.4412 -0.2626  0.0976
 7502SOL    HW132975   0.864   6.698   2.812  0.1464  0.3458  0.7538
 7502SOL    HW232976   0.855   6.861   2.801 -0.4076  0.2218 -0.6981
 7503SOL     OW32977   4.255   8.786   0.176 -0.3756 -0.2610 -0.1887
 7503SOL    HW132978   4.281   8.826   0.264 -0.8941 -1.8099  0.6881
 7503SOL    HW232979   4.183   8.841   0.134 -1.0892 -0.2529  1.0042
 7504SOL     OW32980   0.778   0.075   1.417 -0.2593 -0.4875  0.3072
 7504SOL    HW132981   0.810   0.154   1.468 -0.2719  0.4296 -1.0791
 7504SOL    HW232982   0.851   0.006   1.413  0.8995  0.7949 -1.2005
 7505SOL     OW32983   1.325   4.378   2.295  0.5203  0.4627 -0.0515
 7505SOL    HW132984   1.268   4.337   2.365  3.1061 -0.3708  1.6449
 7505SOL    HW232985   1.323   4.322   2.212 -0.3822 -0.0391  0.3094
 7506SOL     OW32986   3.320   9.347   3.633 -0.6651 -0.2196  0.3276
 7506SOL    HW132987   3.292   9.282   3.562 -1.7536  0.3236  0.2489
 7506SOL    HW232988   3.420   9.347   3.641 -0.5159 -0.1435 -1.3433
 7507SOL     OW32989   5.390   8.295   3.877 -0.1489  0.8129  0.1398
 7507SOL    HW132990   5.375   8.263   3.784 -1.8491  0.7735  0.4219
 7507SOL    HW232991   5.481   8.266   3.908  0.0920  0.1171 -1.1929
 7508SOL     OW32992   2.113   0.061   3.934 -0.0931 -0.2914 -0.0275
 7508SOL    HW132993   2.035   0.007   3.901 -0.4200 -0.0997  0.4297
 7508SOL    HW232994   2.179   0.073   3.860 -0.4431 -0.5565 -0.3830
 7509SOL     OW32995   0.936   5.138   1.528  0.1519 -0.5501  0.3979
 7509SOL    HW132996   1.022   5.101   1.562  0.6482 -0.2124 -0.4795
 7509SOL    HW232997   0.887   5.067   1.477 -0.3233 -0.8856  1.3090
 7510SOL     OW32998   0.652   1.290   2.366  0.8827  0.4837 -0.7448
 7510SOL    HW132999   0.592   1.284   2.445  1.5424  1.4280 -0.1531
 7510SOL    HW233000   0.728   1.226   2.376  1.0856  0.7594 -0.4982
 7511SOL     OW33001   9.568   9.796   0.769  0.2476  0.0378 -0.1788
 7511SOL    HW133002   9.481   9.755   0.742 -0.5898  0.6220  1.5443
 7511SOL    HW233003   9.624   9.814   0.688 -2.4702  2.4151 -1.5955
 7512SOL     OW33004   4.197   4.660   1.146  0.2809  0.1235  1.4577
 7512SOL    HW133005   4.097   4.662   1.150  0.1192 -1.1759 -1.2303
 7512SOL    HW233006   4.229   4.724   1.078  1.1069 -1.6025  0.1827
 7513SOL     OW33007   5.289   8.563   3.927  0.7052 -0.1015  0.3416
 7513SOL    HW133008   5.313   8.467   3.942  1.2056 -0.2467 -1.3663
 7513SOL    HW233009   5.333   8.596   3.844  0.0691  1.4531  0.6108
 7514SOL     OW33010   1.676   7.443   3.387  0.1926  0.1792 -0.2079
 7514SOL    HW133011   1.620   7.414   3.465 -1.6589  1.1321 -1.1419
 7514SOL    HW233012   1.715   7.533   3.406  1.8823 -0.7156  0.6617
 7515SOL     OW33013   0.711   7.720   4.376  0.5692 -0.4030 -0.9123
 7515SOL    HW133014   0.686   7.816   4.370  0.7880 -0.2613  0.1992
 7515SOL    HW233015   0.629   7.664   4.391  0.6824 -0.1457  0.7419
 7516SOL     OW33016   9.753   4.946   3.251 -0.0120 -0.3973 -0.2200
 7516SOL    HW133017   9.717   5.020   3.194 -2.6233 -0.9206  0.6527
 7516SOL    HW233018   9.778   4.868   3.194  3.3057  1.3218 -1.2046
 7517SOL     OW33019   1.016   0.159   2.480  0.2955 -0.5742 -0.2909
 7517SOL    HW133020   0.969   0.174   2.394  0.5474  0.4749 -0.2558
 7517SOL    HW233021   1.096   0.219   2.485 -1.7140  2.0825  2.2038
 7518SOL     OW33022   0.319   5.559   1.925  0.1142  0.3495 -0.3842
 7518SOL    HW133023   0.343   5.656   1.938  0.0091  0.2922  0.2420
 7518SOL    HW233024   0.395   5.502   1.957  0.0917  0.2227 -0.5612
 7519SOL     OW33025   0.072   0.461   4.559  0.1865  0.1404 -0.2830
 7519SOL    HW133026   0.091   0.559   4.568 -1.5505  0.4879 -0.0995
 7519SOL    HW233027   0.152   0.414   4.522  1.1576  1.5750 -0.0379
 7520SOL     OW33028   0.230   2.437   2.345  0.5704 -0.0063  0.2708
 7520SOL    HW133029   0.164   2.491   2.398 -0.8263  0.1805 -1.5826
 7520SOL    HW233030   0.322   2.458   2.375 -0.1605  0.5890  2.1502
 7521SOL     OW33031   0.605   3.835   1.036 -0.3085  0.2008  0.0338
 7521SOL    HW133032   0.562   3.846   1.125  1.9566 -0.1842  1.2247
 7521SOL    HW233033   0.686   3.894   1.031  0.6979 -1.2376 -1.0349
 7522SOL     OW33034   1.295   0.586   0.507  0.1055  0.2652  0.3243
 7522SOL    HW133035   1.253   0.500   0.537  1.0139 -0.5760 -0.7713
 7522SOL    HW233036   1.225   0.642   0.462  0.1969 -1.3224 -1.9082
 7523SOL     OW33037   1.587   3.414   3.999  0.1834  0.2129  0.1367
 7523SOL    HW133038   1.527   3.433   4.077  0.0716  2.0407 -0.3656
 7523SOL    HW233039   1.661   3.481   3.997 -0.0206  0.4156 -1.5277
 7524SOL     OW33040   3.264   4.497   4.453 -0.3823  0.6091 -0.5654
 7524SOL    HW133041   3.276   4.399   4.437 -0.5007  0.4876  0.0759
 7524SOL    HW233042   3.290   4.520   4.546 -0.3778  1.1888 -0.7026
 7525SOL     OW33043   3.193   8.317   4.317 -0.1111 -0.2951  0.0064
 7525SOL    HW133044   3.099   8.351   4.322 -0.4247 -1.2050  0.2559
 7525SOL    HW233045   3.248   8.381   4.263 -1.5041 -1.1680 -2.5593
 7526SOL     OW33046   6.759   8.908   3.061  0.2752  0.1420  0.1166
 7526SOL    HW133047   6.734   8.937   2.969  0.4838  0.6836  0.2252
 7526SOL    HW233048   6.676   8.891   3.115  0.1550 -0.2835 -0.2050
 7527SOL     OW33049   3.744   3.613   2.669  0.1306 -0.0010  0.0767
 7527SOL    HW133050   3.815   3.593   2.737  1.1897  2.2761 -0.2992
 7527SOL    HW233051   3.786   3.625   2.579 -1.0196 -0.9479 -0.6010
 7528SOL     OW33052   9.770   5.833   1.611 -0.1463  0.0861  0.2895
 7528SOL    HW133053   9.823   5.918   1.600 -1.9009  1.2647  0.6090
 7528SOL    HW233054   9.688   5.838   1.554 -0.3159 -1.3480  0.4095
 7529SOL     OW33055   5.968   0.313   1.916 -0.1565 -0.8751  0.1514
 7529SOL    HW133056   5.912   0.267   1.984  0.2239 -2.2025 -0.4150
 7529SOL    HW233057   5.910   0.360   1.851 -0.5346  0.0508  1.1467
 7530SOL     OW33058   1.085   9.696   0.218  0.0829  0.5488 -0.1622
 7530SOL    HW133059   1.070   9.753   0.137 -0.4653  0.9185  0.1996
 7530SOL    HW233060   1.116   9.754   0.294 -2.3440  0.6794  0.7700
 7531SOL     OW33061   3.725   4.581   1.989 -0.1740  0.4076 -0.0882
 7531SOL    HW133062   3.805   4.628   2.026  0.2988 -0.6834  0.2644
 7531SOL    HW233063   3.706   4.615   1.897  2.4182 -1.3957 -1.3183
 7532SOL     OW33064   1.482   4.082   1.698 -0.0820  0.0798 -0.4005
 7532SOL    HW133065   1.533   4.037   1.624 -1.4101 -1.4553 -0.4106
 7532SOL    HW233066   1.424   4.153   1.658  2.6596  2.5008 -0.2942
 7533SOL     OW33067   2.547   7.571   1.680  0.2646 -0.1993  0.1009
 7533SOL    HW133068   2.603   7.568   1.597  1.0091  2.8898  0.4082
 7533SOL    HW233069   2.607   7.566   1.760 -0.3191 -1.5758  0.4663
 7534SOL     OW33070   2.705   3.280   4.421  0.1086 -0.1361  0.5343
 7534SOL    HW133071   2.778   3.301   4.357 -0.9034  0.7003 -0.3748
 7534SOL    HW233072   2.731   3.202   4.478  1.8810  0.4565  0.5549
 7535SOL     OW33073   5.204   8.770   4.126  0.1038  0.5734  0.7553
 7535SOL    HW133074   5.209   8.855   4.075 -2.1079  1.5446  2.0519
 7535SOL    HW233075   5.237   8.694   4.070 -0.5713  1.8663 -1.4255
 7536SOL     OW33076   5.343   8.723   3.688 -0.0307 -0.1945  0.2005
 7536SOL    HW133077   5.325   8.642   3.631  1.6157 -2.2490  2.4918
 7536SOL    HW233078   5.257   8.765   3.715 -1.0528 -2.9667  1.4093
 7537SOL     OW33079   1.315   3.333   1.266 -0.3810 -1.1697  0.4794
 7537SOL    HW133080   1.233   3.329   1.210  0.0602 -0.7494 -0.2109
 7537SOL    HW233081   1.312   3.413   1.325  1.3411  1.2019 -2.4641
 7538SOL     OW33082   8.529   7.128   4.586  0.3519  0.0253  0.6038
 7538SOL    HW133083   8.519   7.128   4.486  1.1815 -1.7430  0.4954
 7538SOL    HW233084   8.439   7.138   4.629 -0.0309  0.6110 -0.3150
 7539SOL     OW33085   2.731   4.316   0.175 -0.9107 -0.5915  0.3871
 7539SOL    HW133086   2.762   4.359   0.090  0.5349 -0.5190  0.9409
 7539SOL    HW233087   2.808   4.306   0.238 -2.1455  0.3156  2.1021
 7540SOL     OW33088   6.915   8.977   3.415  0.2368 -0.1217  0.1251
 7540SOL    HW133089   6.942   8.989   3.510 -0.7278 -0.3206  0.4268
 7540SOL    HW233090   6.899   9.066   3.373  3.3053  0.1311 -0.6468
 7541SOL     OW33091   1.090   4.708   0.812  0.3987 -0.0390 -1.0163
 7541SOL    HW133092   1.029   4.737   0.738  1.0504 -0.7125 -1.8198
 7541SOL    HW233093   1.168   4.770   0.818  0.3910 -0.0362 -0.9402
 7542SOL     OW33094   9.521   5.604   1.586  0.2927 -0.3547  0.6364
 7542SOL    HW133095   9.482   5.585   1.677 -0.0304 -0.3494  0.4991
 7542SOL    HW233096   9.556   5.520   1.546  0.8437 -0.2841  0.9534
 7543SOL     OW33097   7.164   9.332   0.760  0.0364  0.4996 -0.2584
 7543SOL    HW133098   7.132   9.391   0.686  1.1114  0.3711 -0.8356
 7543SOL    HW233099   7.087   9.282   0.799 -0.2810 -0.9659 -2.6644
 7544SOL     OW33100   1.689   5.252   2.791  0.1003  0.0475 -0.5917
 7544SOL    HW133101   1.742   5.245   2.875  0.1057 -2.1322 -0.7542
 7544SOL    HW233102   1.592   5.266   2.814  0.1049 -0.5199 -0.2205
 7545SOL     OW33103   1.212   8.503   3.177 -0.5700  0.3414 -0.4009
 7545SOL    HW133104   1.218   8.599   3.204  1.9887 -0.3864  1.8509
 7545SOL    HW233105   1.203   8.446   3.259 -1.5435 -1.3814 -1.6727
 7546SOL     OW33106   8.817   6.658   1.385  0.0794  0.0427 -0.3966
 7546SOL    HW133107   8.747   6.596   1.420 -0.1457  1.0368  0.9680
 7546SOL    HW233108   8.893   6.605   1.347 -0.7115 -1.0490 -0.4700
 7547SOL     OW33109   2.188   1.098   3.114 -0.2842  0.2014 -0.1085
 7547SOL    HW133110   2.095   1.117   3.081 -0.2811  0.9565  0.3010
 7547SOL    HW233111   2.182   1.047   3.200 -0.3082 -0.5561 -0.5579
 7548SOL     OW33112   7.983   9.002   4.166 -0.0123 -0.3212  0.0086
 7548SOL    HW133113   7.933   8.922   4.132  0.0714  0.3087 -1.6387
 7548SOL    HW233114   8.075   9.002   4.128 -0.4406  1.2519 -1.0865
 7549SOL     OW33115   1.054   3.687   3.949 -0.3748 -0.6010 -0.3589
 7549SOL    HW133116   1.001   3.757   3.901 -0.1375  0.4223  0.8539
 7549SOL    HW233117   1.150   3.714   3.951 -0.7769  0.9116  3.2917
 7550SOL     OW33118   5.236   7.101   3.283  0.1384  0.6687 -0.3073
 7550SOL    HW133119   5.244   7.189   3.234 -0.6482  0.1255 -1.4414
 7550SOL    HW233120   5.328   7.066   3.303  0.4670  2.1196  0.8633
 7551SOL     OW33121   7.837   7.842   4.184 -0.2391 -0.8168 -0.6630
 7551SOL    HW133122   7.840   7.903   4.105  0.1598  0.8220  0.6071
 7551SOL    HW233123   7.757   7.782   4.176 -2.2221  1.7260 -0.5941
 7552SOL     OW33124   3.081   9.405   2.923  0.0313  0.2614  0.1338
 7552SOL    HW133125   3.040   9.315   2.903  2.1480 -0.2855 -1.9564
 7552SOL    HW233126   3.120   9.443   2.839  2.0478  1.6693  1.6708
 7553SOL     OW33127   0.596   1.001   3.802  0.5204 -0.5347  0.1955
 7553SOL    HW133128   0.546   0.915   3.798 -0.0081 -0.2483  0.6371
 7553SOL    HW233129   0.609   1.028   3.897  0.0929  0.2201  0.0379
 7554SOL     OW33130   4.468   9.672   2.838 -0.3687  0.1005  0.0066
 7554SOL    HW133131   4.437   9.580   2.812 -1.0828  0.0737  0.9295
 7554SOL    HW233132   4.398   9.739   2.813  1.1108  0.6731 -2.7150
 7555SOL     OW33133   4.080   8.613   2.693 -0.2549  0.3048 -0.1187
 7555SOL    HW133134   3.999   8.669   2.676 -0.9265 -0.4314  0.6051
 7555SOL    HW233135   4.093   8.603   2.791  1.1187  0.9888 -0.2259
 7556SOL     OW33136   4.001   1.855   0.968 -0.0366 -0.0578 -0.3240
 7556SOL    HW133137   4.012   1.757   0.986 -0.8659 -0.0693  0.1599
 7556SOL    HW233138   3.946   1.896   1.040  0.5767  0.8331 -0.3590
 7557SOL     OW33139   0.475   9.530   0.265 -0.0379 -0.0028  0.1915
 7557SOL    HW133140   0.451   9.463   0.195  0.9238 -0.8421  0.6465
 7557SOL    HW233141   0.435   9.503   0.352  0.4931 -0.0845  0.4144
 7558SOL     OW33142   2.228   1.655   0.378 -0.6558  0.0030  0.1752
 7558SOL    HW133143   2.193   1.686   0.466  0.9299 -0.6475  1.0548
 7558SOL    HW233144   2.328   1.664   0.376 -0.6255 -0.4104 -1.3841
 7559SOL     OW33145   2.043   7.436   3.452  0.1622 -0.7665  0.0368
 7559SOL    HW133146   1.991   7.437   3.367  1.1386  1.5298 -0.5750
 7559SOL    HW233147   2.105   7.357   3.453  0.6272 -0.4464 -1.6994
 7560SOL     OW33148   4.360   8.285   1.903 -0.1702 -0.0365 -0.1570
 7560SOL    HW133149   4.371   8.332   1.815 -0.5918  0.2274 -0.0725
 7560SOL    HW233150   4.333   8.190   1.887 -1.0099  0.2170 -0.3116
 7561SOL     OW33151   2.790   2.545   2.164  0.0733  0.6995  0.1665
 7561SOL    HW133152   2.730   2.467   2.143 -1.6638  1.7735  1.0297
 7561SOL    HW233153   2.802   2.552   2.263  0.4824  1.3426  0.0745
 7562SOL     OW33154   1.640   5.452   0.103 -0.3208 -0.6689  0.1849
 7562SOL    HW133155   1.600   5.479   0.015  1.4890 -0.1782 -0.5163
 7562SOL    HW233156   1.608   5.514   0.174  1.7242  1.8471 -0.9511
 7563SOL     OW33157   2.664   8.001   4.781 -0.6683 -0.2070  0.0588
 7563SOL    HW133158   2.706   7.913   4.803 -2.5038 -1.8123 -2.5774
 7563SOL    HW233159   2.596   8.024   4.850  0.4876 -0.3717  1.2683
 7564SOL     OW33160   9.981   7.766   4.557 -0.8060 -0.3250  0.1196
 7564SOL    HW133161   9.949   7.820   4.635  0.4900 -1.9447  1.8041
 7564SOL    HW233162  10.062   7.714   4.583 -0.4529 -1.0235 -2.2702
 7565SOL     OW33163   0.978   1.558   2.187 -0.0286  0.2256 -0.5512
 7565SOL    HW133164   0.898   1.503   2.165  0.6418  0.1543 -2.9017
 7565SOL    HW233165   1.035   1.510   2.254 -1.4031 -0.1663  0.3676
 7566SOL     OW33166   2.441   8.742   2.676  0.9060  0.0790  0.4137
 7566SOL    HW133167   2.480   8.805   2.742 -1.3696  0.7336  1.1793
 7566SOL    HW233168   2.492   8.656   2.677  1.0668  0.1740  2.8448
 7567SOL     OW33169   4.571   2.088   1.576  0.1929  0.2635 -0.3720
 7567SOL    HW133170   4.649   2.026   1.574 -0.4320 -0.5477 -0.2888
 7567SOL    HW233171   4.513   2.065   1.654 -0.3875  0.5153 -0.7263
 7568SOL     OW33172   4.201   3.380   3.751 -0.2741  0.4612 -0.4347
 7568SOL    HW133173   4.195   3.460   3.692 -0.7324 -0.3428 -1.5037
 7568SOL    HW233174   4.271   3.318   3.715  0.0664  0.3720  0.3775
 7569SOL     OW33175   8.120   0.165   4.685  1.0019  0.2458  0.0363
 7569SOL    HW133176   8.111   0.084   4.743  1.2522  1.1067  1.2940
 7569SOL    HW233177   8.029   0.200   4.664  0.9023 -0.1884 -0.2603
 7570SOL     OW33178   2.457   0.329   0.211 -0.1341  0.1098  0.0521
 7570SOL    HW133179   2.497   0.418   0.187 -0.2333 -0.3032 -1.6973
 7570SOL    HW233180   2.379   0.311   0.151  0.1712 -1.3620  0.0970
 7571SOL     OW33181   2.388   1.565   1.513 -0.2565  0.8429 -0.1597
 7571SOL    HW133182   2.421   1.646   1.561  0.7325 -0.3384  1.1908
 7571SOL    HW233183   2.379   1.489   1.577 -2.5054  0.2391 -1.1411
 7572SOL     OW33184   0.090   0.603   2.844  0.1499 -0.8564  0.5089
 7572SOL    HW133185   0.048   0.513   2.832  0.0385 -0.8834  1.0802
 7572SOL    HW233186   0.189   0.593   2.853  0.2277 -0.8395 -0.3308
 7573SOL     OW33187   1.890   6.750   2.944  0.1126  0.4144  0.3282
 7573SOL    HW133188   1.865   6.847   2.949 -1.9058 -0.1953  3.2875
 7573SOL    HW233189   1.823   6.696   2.996  2.7125 -2.2711  0.9811
 7574SOL     OW33190   0.948   5.025   0.690  0.3425  0.6298  0.2104
 7574SOL    HW133191   0.869   5.019   0.629  1.1171  0.0378 -0.7363
 7574SOL    HW233192   0.922   4.990   0.780 -0.8068  1.5225  0.2428
 7575SOL     OW33193   8.170   8.126   2.372  0.5529 -0.7132 -0.3458
 7575SOL    HW133194   8.158   8.118   2.273  0.6212  0.0318 -0.4183
 7575SOL    HW233195   8.255   8.176   2.391 -0.7112  1.3708  0.0425
 7576SOL     OW33196   3.121   1.305   1.042  0.4706  1.1915  0.0959
 7576SOL    HW133197   3.218   1.327   1.053  1.6850 -2.9901 -1.3408
 7576SOL    HW233198   3.099   1.304   0.945 -0.3573 -0.3717  0.2902
 7577SOL     OW33199   4.813   0.286   3.462 -0.3770 -0.3335 -0.3031
 7577SOL    HW133200   4.871   0.298   3.543  1.8354 -0.2971 -1.8518
 7577SOL    HW233201   4.749   0.211   3.478 -0.5403  0.2340  1.8043
 7578SOL     OW33202   1.290   1.210   2.579  0.1251  0.3538  0.1092
 7578SOL    HW133203   1.264   1.307   2.577 -0.1328  0.2858  0.2243
 7578SOL    HW233204   1.318   1.182   2.487  1.5398  0.9047  0.3549
 7579SOL     OW33205   0.581   3.767   2.480 -0.0137  0.0942 -0.5348
 7579SOL    HW133206   0.653   3.702   2.459  0.3515  0.3327 -0.0277
 7579SOL    HW233207   0.541   3.746   2.569 -0.2562  0.2446 -0.6050
 7580SOL     OW33208   3.375   1.764   2.216 -0.6111  0.2571  0.5771
 7580SOL    HW133209   3.317   1.820   2.276  1.1719  1.6473  1.0465
 7580SOL    HW233210   3.352   1.783   2.121 -0.1731  1.6203  0.7387
 7581SOL     OW33211   9.363   0.076   3.612 -0.0449  0.1633  0.3189
 7581SOL    HW133212   9.321   0.162   3.581 -0.9923  0.2658  1.8626
 7581SOL    HW233213   9.326   0.051   3.701  1.1952 -1.1784  0.4688
 7582SOL     OW33214   0.506   8.649   0.175 -0.0099  0.3126  0.8495
 7582SOL    HW133215   0.593   8.626   0.217  0.7379  0.7830 -0.3909
 7582SOL    HW233216   0.514   8.738   0.128 -1.3134  0.6218  1.1972
 7583SOL     OW33217   2.910   8.821   1.051 -0.2028  0.3105  0.2394
 7583SOL    HW133218   2.849   8.898   1.032 -0.4246 -0.4271 -2.1068
 7583SOL    HW233219   2.986   8.853   1.107 -1.2066  1.8643  0.7504
 7584SOL     OW33220   2.095   1.167   0.907 -0.1909 -0.0932  0.2508
 7584SOL    HW133221   2.095   1.126   0.815  0.0144  2.0360 -0.7339
 7584SOL    HW233222   2.024   1.237   0.912  1.0348  1.1122  1.1168
 7585SOL     OW33223   7.060   8.590   3.495  0.3100 -0.3755 -0.6086
 7585SOL    HW133224   7.148   8.612   3.536  1.4191 -2.1709 -1.9252
 7585SOL    HW233225   7.044   8.491   3.501  0.5044 -0.7216 -4.3358
 7586SOL     OW33226   7.817   8.277   3.383 -0.2731 -0.4945  0.1839
 7586SOL    HW133227   7.842   8.181   3.371 -1.9348 -0.9815  0.5188
 7586SOL    HW233228   7.796   8.317   3.294  1.1254 -0.2187 -0.0433
 7587SOL     OW33229   2.856   3.432   4.223 -0.5485  0.9882 -0.2617
 7587SOL    HW133230   2.886   3.512   4.273 -2.0608  1.1551  0.3886
 7587SOL    HW233231   2.899   3.432   4.132  1.8270  0.9220  0.8127
 7588SOL     OW33232   2.771   5.075   3.061 -0.4757 -0.0131 -0.2181
 7588SOL    HW133233   2.824   5.160   3.067  1.3915 -0.8475 -3.6873
 7588SOL    HW233234   2.702   5.074   3.133  2.7739  2.1067  3.1211
 7589SOL     OW33235   6.207   9.594   2.286 -0.0828  0.2286  0.4961
 7589SOL    HW133236   6.261   9.669   2.248 -1.8205  1.8068  1.0260
 7589SOL    HW233237   6.164   9.624   2.371 -1.7830 -0.9737  0.0857
 7590SOL     OW33238   7.140   0.253   3.939  0.6189 -0.5360 -0.0918
 7590SOL    HW133239   7.189   0.168   3.960  1.1676 -0.1863  0.0556
 7590SOL    HW233240   7.202   0.330   3.947 -0.2630  0.0588  1.4357
 7591SOL     OW33241   3.282   7.355   0.905 -0.1078 -0.0395  0.2258
 7591SOL    HW133242   3.197   7.368   0.854  0.2420 -0.1608 -0.3999
 7591SOL    HW233243   3.328   7.444   0.916 -0.1836 -0.0129  0.3223
 7592SOL     OW33244   1.833   1.630   2.228 -0.2647  0.0353  0.7411
 7592SOL    HW133245   1.915   1.621   2.285 -0.1792 -0.0595  0.6041
 7592SOL    HW233246   1.767   1.559   2.252 -1.2224  1.4303  2.3678
 7593SOL     OW33247   7.371   8.985   1.521  0.0084 -0.3987  0.2622
 7593SOL    HW133248   7.393   9.081   1.508 -0.8036  0.4018  4.1665
 7593SOL    HW233249   7.453   8.929   1.510  0.7027  0.8538 -0.9277
 7594SOL     OW33250   4.991   9.266   3.091  0.3147  0.4412 -0.3736
 7594SOL    HW133251   4.900   9.283   3.052  0.6644  0.9821 -0.9566
 7594SOL    HW233252   5.019   9.173   3.070 -0.3734  0.0626  0.3495
 7595SOL     OW33253   1.217   9.061   3.864 -0.0592 -0.3160  0.1482
 7595SOL    HW133254   1.224   9.150   3.819 -1.2486  0.4910  1.5225
 7595SOL    HW233255   1.136   9.013   3.831  1.2745 -1.4924 -1.5636
 7596SOL     OW33256   4.571   8.696   4.768  0.1868  0.3493  0.3262
 7596SOL    HW133257   4.560   8.787   4.807  0.5247  0.8227 -0.6789
 7596SOL    HW233258   4.491   8.640   4.792 -0.7690  1.3880 -0.3793
 7597SOL     OW33259   4.666   2.468   1.696 -0.5358 -0.2286  0.0520
 7597SOL    HW133260   4.634   2.512   1.780 -1.8578  1.0433 -1.1109
 7597SOL    HW233261   4.588   2.446   1.638  0.4740  0.1268 -1.4580
 7598SOL     OW33262   3.886   1.595   3.784  0.4713  0.2460 -0.4901
 7598SOL    HW133263   3.842   1.679   3.813  1.6514  1.6911 -2.6733
 7598SOL    HW233264   3.827   1.517   3.805 -0.9360  1.6685  0.9700
 7599SOL     OW33265   1.437   1.417   3.397 -0.1911 -0.7498 -0.2991
 7599SOL    HW133266   1.401   1.503   3.434 -0.9552 -0.9141 -0.6518
 7599SOL    HW233267   1.522   1.434   3.349 -0.4055 -0.1666 -0.4745
 7600SOL     OW33268   1.711   8.035   2.697  0.2013  0.2638  0.4096
 7600SOL    HW133269   1.795   8.053   2.646  1.5687 -0.2078  2.4179
 7600SOL    HW233270   1.719   8.074   2.789 -2.8648  2.5324 -0.2184
 7601SOL     OW33271   0.533   7.194   1.254  0.2587 -0.1576  0.2040
 7601SOL    HW133272   0.579   7.146   1.179  0.8261  1.6231 -0.6138
 7601SOL    HW233273   0.455   7.140   1.285  0.1365 -1.0319 -1.5364
 7602SOL     OW33274   7.947   7.329   3.106 -0.5872  0.5178  0.3500
 7602SOL    HW133275   7.899   7.411   3.075  1.6443  1.5866 -0.3661
 7602SOL    HW233276   7.974   7.340   3.202  0.1512  0.8454  0.1093
 7603SOL     OW33277   2.989   1.577   2.556 -0.9925 -0.1207  0.0322
 7603SOL    HW133278   2.905   1.575   2.610 -2.6048  1.0857 -2.3584
 7603SOL    HW233279   2.970   1.550   2.462  1.4758 -0.6950 -0.3416
 7604SOL     OW33280   2.422   3.053   3.308  0.2416 -0.5605  0.1427
 7604SOL    HW133281   2.464   2.964   3.327  0.6638 -1.0956 -2.9769
 7604SOL    HW233282   2.355   3.044   3.235 -1.1878  1.3649  1.1526
 7605SOL     OW33283   7.402   8.199   3.778  0.0519  0.6304 -0.2063
 7605SOL    HW133284   7.416   8.296   3.799 -0.4108  1.0965 -1.9547
 7605SOL    HW233285   7.406   8.146   3.863  1.7654  1.9922  0.5958
 7606SOL     OW33286   6.873   0.647   1.988  0.3377  1.1010  0.8953
 7606SOL    HW133287   6.912   0.715   2.051 -1.2562  2.3431  0.5755
 7606SOL    HW233288   6.802   0.595   2.035  0.8408  0.3421  0.8288
 7607SOL     OW33289   2.034   3.905   0.904 -0.5179 -0.0757 -0.5378
 7607SOL    HW133290   2.019   3.831   0.838 -0.0683  0.0419 -0.7751
 7607SOL    HW233291   2.040   3.992   0.855 -0.5375  0.0551 -0.3072
 7608SOL     OW33292   1.239   1.978   4.771  0.3540 -0.2279  0.2930
 7608SOL    HW133293   1.301   1.900   4.762 -1.3960 -1.6380  0.0226
 7608SOL    HW233294   1.245   2.015   4.864  1.8141 -0.1401  0.1698
 7609SOL     OW33295   9.580   0.011   2.715 -0.0475 -0.4942 -0.2580
 7609SOL    HW133296   9.542  -0.065   2.661 -0.9381  0.2524 -0.6937
 7609SOL    HW233297   9.611  -0.024   2.804  1.3401 -1.7175 -1.2000
 7610SOL     OW33298   4.099   1.378   0.877  0.6858  0.1540 -0.4498
 7610SOL    HW133299   4.109   1.309   0.806 -1.0376 -0.3643 -0.2273
 7610SOL    HW233300   4.012   1.365   0.925 -0.4443  3.3958 -1.4455
 7611SOL     OW33301   0.509   0.635   3.089  0.0137 -0.2880 -0.0032
 7611SOL    HW133302   0.532   0.731   3.106  1.8084 -0.7401  0.3062
 7611SOL    HW233303   0.434   0.628   3.024  0.0291  1.3215 -0.1906
 7612SOL     OW33304   3.649   1.910   2.573 -0.0137 -0.3043 -0.7086
 7612SOL    HW133305   3.711   1.867   2.639 -0.0834  0.0420 -0.4157
 7612SOL    HW233306   3.648   2.009   2.588  0.9674 -0.0654 -2.0538
 7613SOL     OW33307   4.659   0.380   3.986  0.0719  0.0204  0.7718
 7613SOL    HW133308   4.617   0.382   3.896  1.6662  0.2681  0.0179
 7613SOL    HW233309   4.688   0.472   4.012  0.5501 -0.2203  1.0947
 7614SOL     OW33310   3.849   2.995   1.821  0.3804 -0.0510 -0.0093
 7614SOL    HW133311   3.861   3.076   1.878  0.9500 -0.7071  0.8260
 7614SOL    HW233312   3.886   3.012   1.729  0.5115  0.6240  0.1714
 7615SOL     OW33313   1.127   7.277   4.116 -0.4320  0.4831  0.4243
 7615SOL    HW133314   1.083   7.317   4.036 -2.0937  0.3583  1.2351
 7615SOL    HW233315   1.202   7.218   4.087 -0.0680  1.5878 -0.9450
 7616SOL     OW33316   2.764   3.037   0.394 -0.4842  0.1767 -0.5053
 7616SOL    HW133317   2.714   3.105   0.340  0.8756 -0.6114 -2.8019
 7616SOL    HW233318   2.758   2.948   0.349  0.1257 -0.6421  1.0034
 7617SOL     OW33319   7.653   8.178   3.619 -0.0126  0.0338 -0.2804
 7617SOL    HW133320   7.589   8.183   3.696  0.8462  0.7619  0.3975
 7617SOL    HW233321   7.604   8.148   3.537 -1.1087  0.0744  0.3462
 7618SOL     OW33322   2.225   9.677   2.674  0.0955  0.3541 -0.0746
 7618SOL    HW133323   2.315   9.656   2.636  0.3869 -0.4359  1.0140
 7618SOL    HW233324   2.212   9.776   2.677  1.6656  0.5376  1.4112
 7619SOL     OW33325   1.210   4.490   3.773  0.3517 -0.1649 -0.2666
 7619SOL    HW133326   1.297   4.540   3.777  1.0878 -1.3738 -0.7678
 7619SOL    HW233327   1.224   4.397   3.806 -1.2821  0.3101  1.7843
 7620SOL     OW33328   7.918   8.033   3.990 -0.3496  0.2267 -0.6708
 7620SOL    HW133329   7.976   8.109   4.019 -0.6830  1.5175 -3.2703
 7620SOL    HW233330   7.975   7.960   3.953 -0.0194 -0.8757  1.9532
 7621SOL     OW33331   9.966   7.423   1.703 -0.2712 -0.1435  0.0258
 7621SOL    HW133332  10.059   7.449   1.677 -0.3530 -1.0117 -1.1797
 7621SOL    HW233333   9.900   7.471   1.644 -0.4620 -1.9567 -1.2909
 7622SOL     OW33334   4.859   8.173   2.640 -0.1537  0.1280  0.4439
 7622SOL    HW133335   4.761   8.176   2.623 -0.1150  2.1815  0.4456
 7622SOL    HW233336   4.893   8.266   2.654  1.9584 -0.4580 -0.5648
 7623SOL     OW33337   3.376   5.522   3.161 -0.5196 -0.2317  0.0628
 7623SOL    HW133338   3.452   5.546   3.101 -0.6013  0.3488  0.1882
 7623SOL    HW233339   3.300   5.487   3.107 -0.4325 -0.1270 -0.1285
 7624SOL     OW33340   9.432   8.300   2.191 -0.1340 -0.1676  0.0638
 7624SOL    HW133341   9.429   8.378   2.129 -1.3475 -0.3422 -0.1040
 7624SOL    HW233342   9.463   8.330   2.281  0.4416  0.3086 -0.2927
 7625SOL     OW33343   0.548   0.286   1.299  0.6062 -0.7224  0.2188
 7625SOL    HW133344   0.502   0.281   1.210 -0.7634 -0.4448  0.8905
 7625SOL    HW233345   0.567   0.382   1.321 -0.2084 -0.6823  0.7836
 7626SOL     OW33346   8.375   8.600   1.398 -1.2607 -0.1413 -0.3435
 7626SOL    HW133347   8.379   8.506   1.365 -0.5026 -0.7885  1.4846
 7626SOL    HW233348   8.280   8.631   1.399 -1.5780 -1.0890 -0.4238
 7627SOL     OW33349   2.297   8.434   0.832 -0.0056 -0.0504  0.0518
 7627SOL    HW133350   2.395   8.448   0.819  0.2686 -0.5962  1.3873
 7627SOL    HW233351   2.247   8.514   0.797  0.7615 -0.5905 -2.3736
 7628SOL     OW33352   3.030   5.398   0.383  0.0715  1.0759 -0.2067
 7628SOL    HW133353   3.062   5.336   0.312  0.8016  1.4624 -0.2197
 7628SOL    HW233354   3.017   5.489   0.344 -2.4992  0.5877 -0.5501
 7629SOL     OW33355   8.312   6.606   2.305  0.4950  0.1780  0.2638
 7629SOL    HW133356   8.394   6.551   2.290 -0.3733 -1.2144  0.5325
 7629SOL    HW233357   8.241   6.578   2.241  0.6472  2.2979 -0.8825
 7630SOL     OW33358   8.107   7.161   4.107 -0.0775  0.4376  0.9201
 7630SOL    HW133359   8.126   7.120   4.196 -0.5060 -1.0230  0.3449
 7630SOL    HW233360   8.190   7.160   4.052  0.1499  1.2098  1.2316
 7631SOL     OW33361   8.689   0.369   4.032 -0.0252 -0.2457  0.0500
 7631SOL    HW133362   8.597   0.398   4.008 -0.6507 -1.1832  1.2614
 7631SOL    HW233363   8.713   0.288   3.978 -0.4358 -0.8052  0.6975
 7632SOL     OW33364   4.701   8.330   3.623  0.3321  0.4518  0.8781
 7632SOL    HW133365   4.718   8.243   3.670  0.6051 -0.3518 -0.6497
 7632SOL    HW233366   4.780   8.390   3.633  1.3318 -0.6065 -0.4436
 7633SOL     OW33367   0.933   6.339   1.120 -0.4423  0.7170 -0.7086
 7633SOL    HW133368   0.952   6.317   1.024  2.9133  1.0819 -0.1940
 7633SOL    HW233369   0.947   6.258   1.176 -1.5972  0.7185 -0.4058
 7634SOL     OW33370   3.286   7.992   0.731 -0.2143 -0.0947  0.1140
 7634SOL    HW133371   3.365   7.976   0.673  0.5263  2.8272  0.2795
 7634SOL    HW233372   3.212   8.032   0.677 -0.5049  0.0308  0.6030
 7635SOL     OW33373   9.639   5.652   3.096  0.1052 -0.4516  0.3806
 7635SOL    HW133374   9.540   5.647   3.094  0.0662  0.3712 -0.2632
 7635SOL    HW233375   9.667   5.747   3.115  0.7503 -1.1442  3.1387
 7636SOL     OW33376   2.730   8.769   1.938 -0.0168 -0.1436 -0.4444
 7636SOL    HW133377   2.766   8.825   2.013  0.5559 -0.6791 -0.3117
 7636SOL    HW233378   2.635   8.794   1.919  0.6527  1.8262 -1.3096
 7637SOL     OW33379   7.680   0.489   4.462  0.2111 -0.3063 -0.0997
 7637SOL    HW133380   7.662   0.391   4.453  2.8426 -0.9728  1.1230
 7637SOL    HW233381   7.735   0.520   4.385  0.2644 -0.0475  0.0424
 7638SOL     OW33382   3.531   0.733   1.244  0.1071  0.0582 -0.2472
 7638SOL    HW133383   3.621   0.726   1.201  0.1092  0.2341 -0.2760
 7638SOL    HW233384   3.503   0.829   1.245  0.0289  0.0332 -0.0123
 7639SOL     OW33385   1.560   2.049   1.774 -0.5643 -0.4443  0.3010
 7639SOL    HW133386   1.523   2.124   1.829 -0.5505  0.3019 -0.6863
 7639SOL    HW233387   1.489   1.981   1.759 -0.7248 -0.3857  0.7840
 7640SOL     OW33388   2.187   0.008   4.350 -0.3109  0.0781  0.1968
 7640SOL    HW133389   2.162  -0.056   4.277  1.1303  0.5990 -0.7776
 7640SOL    HW233390   2.253   0.074   4.315 -0.9617  1.4378  1.5031
 7641SOL     OW33391   1.312   1.470   4.058 -0.0740 -0.7305 -0.2384
 7641SOL    HW133392   1.349   1.405   4.124 -0.6015 -0.5448  0.2500
 7641SOL    HW233393   1.354   1.456   3.969  1.0910 -0.5913  0.2828
 7642SOL     OW33394   2.145   4.900   4.584  0.9820 -0.6614 -0.5386
 7642SOL    HW133395   2.229   4.851   4.608 -0.5421 -2.6187  0.9465
 7642SOL    HW233396   2.107   4.861   4.500 -0.1935 -2.0146  0.6047
 7643SOL     OW33397   8.766   0.030   4.220 -0.3190 -0.3220  0.5608
 7643SOL    HW133398   8.731   0.113   4.265 -0.9600 -1.1354  1.5968
 7643SOL    HW233399   8.858   0.011   4.252 -0.9947 -1.2389  2.0593
 7644SOL     OW33400   7.945   6.702   1.076  0.0478 -0.1540  0.0723
 7644SOL    HW133401   7.883   6.763   1.026 -1.6036 -1.3941  0.5531
 7644SOL    HW233402   7.976   6.748   1.160 -0.1464  0.5156 -0.2184
 7645SOL     OW33403   4.202   3.974   0.511  0.4187  0.7882  0.0310
 7645SOL    HW133404   4.207   4.038   0.434 -1.5637  1.6862  0.6132
 7645SOL    HW233405   4.221   4.022   0.596  2.3132 -0.1478  0.1616
 7646SOL     OW33406   9.068   5.240   0.482  0.1056 -0.0940  0.0144
 7646SOL    HW133407   9.071   5.285   0.572 -1.5354 -0.9730  0.5238
 7646SOL    HW233408   8.979   5.256   0.440 -0.4552 -2.7575  0.1437
 7647SOL     OW33409   0.111   7.099   1.391 -0.3263  0.4382  0.0033
 7647SOL    HW133410   0.099   7.152   1.475  0.4082  0.0452  0.3556
 7647SOL    HW233411   0.024   7.095   1.342 -0.5414  1.4305  0.2946
 7648SOL     OW33412   3.524   4.702   4.634  0.5353  0.3389  0.2763
 7648SOL    HW133413   3.578   4.641   4.693  0.0525  0.1144  0.4828
 7648SOL    HW233414   3.573   4.716   4.548  1.0743  0.3812  0.5866
 7649SOL     OW33415   1.036   3.123   0.344  0.5646 -1.0349 -0.3176
 7649SOL    HW133416   1.119   3.179   0.354  0.9651 -1.6682 -0.0319
 7649SOL    HW233417   0.984   3.154   0.265  1.5307 -1.2049 -1.0310
 7650SOL     OW33418   0.873   8.094   2.431  0.7367 -0.5726 -0.5568
 7650SOL    HW133419   0.917   8.164   2.374 -0.4414  0.9887  0.4172
 7650SOL    HW233420   0.774   8.097   2.417  0.4747 -0.4853  1.2261
 7651SOL     OW33421   0.758   4.022   1.319 -0.2709  0.4210  0.6261
 7651SOL    HW133422   0.671   4.052   1.358 -0.4002  0.5210  0.2594
 7651SOL    HW233423   0.788   4.087   1.249 -1.4093 -1.1811 -1.4096
 7652SOL     OW33424   9.323   8.722   1.180  0.4087  0.6392 -0.3128
 7652SOL    HW133425   9.278   8.651   1.126  0.7260  0.1408  0.0707
 7652SOL    HW233426   9.404   8.755   1.131  0.4806  0.4605 -0.3168
 7653SOL     OW33427   0.065   1.192   4.578 -0.0151 -0.3560 -0.0528
 7653SOL    HW133428  -0.018   1.157   4.534 -0.6550  0.3315  0.6030
 7653SOL    HW233429   0.133   1.119   4.583 -0.7554 -1.0594 -0.1527
 7654SOL     OW33430   2.640   9.827   2.148  0.4448 -0.6901 -0.1734
 7654SOL    HW133431   2.568   9.759   2.136  0.1836 -0.2506 -1.1545
 7654SOL    HW233432   2.707   9.817   2.075  0.3956  0.1096 -0.3301
 7655SOL     OW33433   3.125   7.724   1.351  0.3650 -0.2385 -0.1547
 7655SOL    HW133434   3.134   7.803   1.412  1.9616  0.1869 -0.9072
 7655SOL    HW233435   3.035   7.726   1.307  0.4391  1.2473 -0.2746
 7656SOL     OW33436   8.268   0.192   4.127  0.5167  0.0671  0.5683
 7656SOL    HW133437   8.174   0.224   4.116  1.2236  3.0044  2.4030
 7656SOL    HW233438   8.271   0.093   4.117 -2.5782  0.0320 -0.6014
 7657SOL     OW33439   2.094   1.055   0.096  0.1690  0.1322  0.0771
 7657SOL    HW133440   2.042   1.064   0.182  0.2896 -0.9605  0.2819
 7657SOL    HW233441   2.093   0.959   0.068 -0.2176  0.5482 -1.3742
 7658SOL     OW33442   1.589   0.534   3.202  0.1290  0.0998  0.2487
 7658SOL    HW133443   1.610   0.631   3.209 -0.5025  0.1954  0.7964
 7658SOL    HW233444   1.536   0.518   3.119 -0.2319  0.3021  0.4402
 7659SOL     OW33445   0.466   3.435   2.593 -0.5505  0.0581  0.1777
 7659SOL    HW133446   0.444   3.529   2.619 -1.1383 -0.1691  0.5249
 7659SOL    HW233447   0.452   3.374   2.672 -0.7930 -0.4072 -0.2204
 7660SOL     OW33448   0.422   9.989   0.569 -0.1800 -0.4022 -0.2216
 7660SOL    HW133449   0.475  10.000   0.486  1.5582 -2.9100  0.4808
 7660SOL    HW233450   0.330   9.956   0.547 -0.6034  1.4744 -1.2849
 7661SOL     OW33451   6.159   9.338   2.328  0.1542 -0.2630  0.2144
 7661SOL    HW133452   6.086   9.320   2.262 -1.1104  0.4586  1.3763
 7661SOL    HW233453   6.191   9.432   2.316 -1.2238  0.4299  1.6623
 7662SOL     OW33454   9.255   6.314   3.349  0.3490 -0.3752 -0.0023
 7662SOL    HW133455   9.189   6.328   3.275  0.9705 -1.1686 -0.7264
 7662SOL    HW233456   9.298   6.401   3.373  1.1891 -0.3412 -1.5796
 7663SOL     OW33457   2.019   5.259   0.790  0.2479  0.3582  0.0093
 7663SOL    HW133458   1.957   5.181   0.796  0.9482 -0.5773 -3.4485
 7663SOL    HW233459   2.102   5.240   0.843  0.1296 -0.9866 -0.2719
 7664SOL     OW33460   0.114   0.709   0.588  0.6304 -0.4013  1.2806
 7664SOL    HW133461   0.111   0.620   0.635 -0.3647 -1.3561 -0.5077
 7664SOL    HW233462   0.142   0.695   0.493  0.7726  1.2425  1.0720
 7665SOL     OW33463   4.412   8.018   0.746 -0.2285  0.2208 -0.1907
 7665SOL    HW133464   4.353   7.958   0.692  0.8208 -0.3211 -0.7807
 7665SOL    HW233465   4.357   8.080   0.800 -1.3716 -1.8292  1.0580
 7666SOL     OW33466   1.915   0.838   2.005  0.3106 -0.2468 -0.3969
 7666SOL    HW133467   2.008   0.871   2.021 -0.2727 -0.1588  3.2226
 7666SOL    HW233468   1.853   0.916   1.994  0.2964 -0.2804 -0.5621
 7667SOL     OW33469   2.083   5.772   1.409 -0.3176  0.0520 -0.1226
 7667SOL    HW133470   2.013   5.700   1.405  0.8710 -1.1198 -0.1095
 7667SOL    HW233471   2.174   5.731   1.403  0.3589  1.6445 -0.9866
 7668SOL     OW33472   4.719   9.780   4.151 -0.0948  0.1607 -0.0831
 7668SOL    HW133473   4.722   9.704   4.086 -0.8752 -0.0678  0.1343
 7668SOL    HW233474   4.700   9.865   4.102 -0.9422 -0.0508 -0.1328
 7669SOL     OW33475   9.740   9.831   0.174 -0.1641  0.3564 -0.3231
 7669SOL    HW133476   9.767   9.914   0.224  0.3080  1.0595 -1.7179
 7669SOL    HW233477   9.641   9.831   0.162 -0.1223  0.9355 -0.6898
 7670SOL     OW33478   2.920   8.419   3.794  0.0910 -0.1499  0.1709
 7670SOL    HW133479   2.970   8.475   3.728  1.5813 -0.7576  0.7733
 7670SOL    HW233480   2.962   8.329   3.800 -3.7235 -2.2352 -2.5574
 7671SOL     OW33481   3.908   4.485   0.106 -0.1050 -0.3718 -0.1867
 7671SOL    HW133482   4.000   4.453   0.084 -0.3247 -1.2552  0.1565
 7671SOL    HW233483   3.908   4.530   0.195 -0.2445 -1.5227  0.4105
 7672SOL     OW33484   5.941   9.692   2.821  0.0954  0.1995 -0.0395
 7672SOL    HW133485   5.973   9.768   2.764 -0.7517  1.1707  0.7507
 7672SOL    HW233486   5.939   9.608   2.768  0.6167  0.8263 -1.0561
 7673SOL     OW33487   1.886   0.505   0.632  0.3480 -0.2503 -0.2309
 7673SOL    HW133488   1.789   0.507   0.609  0.1657  1.5536  0.5897
 7673SOL    HW233489   1.907   0.579   0.695  2.2919 -0.5344 -0.4975
 7674SOL     OW33490   5.647   8.790   1.812 -0.2080 -0.2724  0.1704
 7674SOL    HW133491   5.627   8.872   1.758 -0.9995 -0.5095  0.0848
 7674SOL    HW233492   5.561   8.749   1.842  0.2331 -0.1405  1.6288
 7675SOL     OW33493   8.500   0.048   0.611  0.1650 -0.0418  0.2884
 7675SOL    HW133494   8.496   0.077   0.706 -0.7883 -0.8702  0.4986
 7675SOL    HW233495   8.464  -0.045   0.602 -0.1700  0.1959 -0.9477
 7676SOL     OW33496   0.788   4.265   1.917  0.3422  0.1667  0.2026
 7676SOL    HW133497   0.862   4.254   1.984  0.6509  0.5368 -0.0760
 7676SOL    HW233498   0.808   4.210   1.836  0.2631  0.1992  0.1612
 7677SOL     OW33499   2.050   9.967   2.087  0.5522  0.6407 -0.7058
 7677SOL    HW133500   1.973   9.980   2.024  0.3076 -3.3988 -1.3770
 7677SOL    HW233501   2.129   9.933   2.036  0.8581 -1.0895  0.8979
 7678SOL     OW33502   0.905   7.334   2.925  0.2771 -0.2062  0.0885
 7678SOL    HW133503   0.940   7.240   2.925 -1.2892 -0.8107  0.7172
 7678SOL    HW233504   0.805   7.332   2.926  0.2320  1.4685  1.4356
 7679SOL     OW33505   6.659   7.602   2.459 -0.1266 -0.5056 -0.4180
 7679SOL    HW133506   6.635   7.695   2.484  0.6986 -0.4547  0.2433
 7679SOL    HW233507   6.576   7.547   2.450 -0.5838  0.1530 -0.2525
 7680SOL     OW33508   4.432   2.851   1.431 -0.3361 -0.2179 -0.0886
 7680SOL    HW133509   4.434   2.810   1.522 -2.1278 -0.0149  0.0661
 7680SOL    HW233510   4.464   2.784   1.363 -0.0570 -0.7347  0.5504
 7681SOL     OW33511   3.081   3.592   0.769  0.5945  0.2272 -0.2139
 7681SOL    HW133512   3.162   3.537   0.789  0.8531 -0.1045 -2.0138
 7681SOL    HW233513   3.109   3.684   0.742  0.2843  0.5723  0.6386
 7682SOL     OW33514   0.646   5.934   3.386 -0.2923  0.1786 -0.3547
 7682SOL    HW133515   0.576   5.937   3.457  0.9690 -0.6226  0.9677
 7682SOL    HW233516   0.636   5.850   3.332 -0.0986 -0.1561  0.1208
 7683SOL     OW33517   0.412   0.247   1.066  0.0366  0.3008  0.2893
 7683SOL    HW133518   0.421   0.172   1.001  0.5432  0.6970 -0.0994
 7683SOL    HW233519   0.353   0.318   1.027 -1.2709 -0.3405  1.0646
 7684SOL     OW33520   7.498   0.019   3.113 -0.7855 -0.1293  0.1102
 7684SOL    HW133521   7.565   0.038   3.185 -1.0031  2.2712 -0.2953
 7684SOL    HW233522   7.546   0.004   3.026 -0.7009  0.1730  0.1052
 7685SOL     OW33523   8.923   6.429   0.681  0.6471  0.0480  0.2341
 7685SOL    HW133524   8.990   6.394   0.616  0.4261  0.4257 -0.2001
 7685SOL    HW233525   8.936   6.385   0.770  2.6577  1.4756  0.6673
 7686SOL     OW33526   3.168   8.810   4.561  0.5470  0.3250  0.3736
 7686SOL    HW133527   3.166   8.858   4.649 -0.3133  0.2133  0.4164
 7686SOL    HW233528   3.215   8.723   4.572  0.4554  0.3175  0.7244
 7687SOL     OW33529   9.412   8.308   1.442  0.4874  0.2109 -0.2488
 7687SOL    HW133530   9.449   8.362   1.519  1.4078 -0.5679 -0.1329
 7687SOL    HW233531   9.377   8.221   1.477 -0.9220  0.6821 -0.4498
 7688SOL     OW33532   2.029   9.731   1.004  0.0137 -0.1176 -0.4524
 7688SOL    HW133533   2.091   9.654   1.020 -0.7159 -0.8562 -1.1133
 7688SOL    HW233534   1.955   9.729   1.071  0.9608  1.0527  0.6505
 7689SOL     OW33535   0.617   3.640   2.160  0.0738  1.0095 -0.0515
 7689SOL    HW133536   0.715   3.647   2.147  0.2036 -1.1845 -0.4782
 7689SOL    HW233537   0.573   3.727   2.136  1.7320  1.4780 -1.4568
 7690SOL     OW33538   1.883   5.629   0.040  0.1986 -0.2880 -0.4920
 7690SOL    HW133539   1.809   5.693   0.016 -0.2771 -0.8601 -0.5651
 7690SOL    HW233540   1.848   5.562   0.106  0.5026 -0.9049 -0.9605
 7691SOL     OW33541   6.177   7.511   3.101 -0.0093 -0.4231 -0.3073
 7691SOL    HW133542   6.207   7.419   3.126  0.5971 -0.9699 -2.8765
 7691SOL    HW233543   6.202   7.576   3.173  3.4750 -1.5768 -0.4211
 7692SOL     OW33544   0.554   6.352   1.400  0.1417 -0.1086  0.2628
 7692SOL    HW133545   0.569   6.413   1.323 -0.2134 -1.6174 -1.0312
 7692SOL    HW233546   0.609   6.382   1.478  0.0792  1.7511 -0.3905
 7693SOL     OW33547   5.366   0.413   4.259  0.5162 -0.3618  0.0614
 7693SOL    HW133548   5.329   0.362   4.182  0.9722 -0.7956  0.1282
 7693SOL    HW233549   5.369   0.354   4.340  0.4638 -0.0453  0.2946
 7694SOL     OW33550   7.013   8.497   2.166  0.2199  0.4191  0.1541
 7694SOL    HW133551   6.939   8.560   2.143  0.3362  0.1119 -1.1014
 7694SOL    HW233552   7.062   8.531   2.247 -1.2928  0.6136  1.0138
 7695SOL     OW33553   9.438   9.946   3.382  0.3273 -0.3718  0.2832
 7695SOL    HW133554   9.429   9.951   3.481 -0.9120  0.2119  0.1566
 7695SOL    HW233555   9.531   9.969   3.355  0.8884 -1.3179  1.3629
 7696SOL     OW33556   2.518   8.932   2.847  0.2881  0.5587  0.1531
 7696SOL    HW133557   2.584   8.905   2.917  0.6468  1.0433  0.0078
 7696SOL    HW233558   2.470   9.015   2.876 -0.2277  0.2351  0.2372
 7697SOL     OW33559   3.621   8.053   1.301 -0.2626  0.2750 -0.0582
 7697SOL    HW133560   3.628   7.992   1.380  0.8680 -3.1433 -2.6731
 7697SOL    HW233561   3.525   8.058   1.271 -0.7974  2.1111  1.8616
 7698SOL     OW33562   5.233   8.281   2.697  0.4922  0.3592  0.1299
 7698SOL    HW133563   5.313   8.293   2.755 -0.0467  0.0430  0.9613
 7698SOL    HW233564   5.251   8.211   2.628  0.3814 -0.9234  1.3631
 7699SOL     OW33565   2.367   2.303   0.476 -0.4395  0.3067  0.0304
 7699SOL    HW133566   2.305   2.262   0.543 -0.8643  1.4758  0.3583
 7699SOL    HW233567   2.316   2.366   0.417  0.0550 -0.2154 -0.9770
 7700SOL     OW33568   3.747   2.824   1.236  0.2196 -0.1673 -0.1097
 7700SOL    HW133569   3.741   2.724   1.243  1.1364 -0.3260 -1.3787
 7700SOL    HW233570   3.727   2.851   1.142  1.2860  0.7362 -0.0833
 7701SOL     OW33571   0.896   9.593   4.296 -0.3474 -0.4202 -0.6223
 7701SOL    HW133572   0.865   9.627   4.207 -1.4643 -0.4365 -0.2423
 7701SOL    HW233573   0.928   9.499   4.286  0.3560 -0.1322 -1.1721
 7702SOL     OW33574   2.777   9.657   3.809 -0.3114 -0.0485  0.1543
 7702SOL    HW133575   2.721   9.579   3.837 -0.6258  0.1834  0.1731
 7702SOL    HW233576   2.779   9.725   3.882  0.8478 -0.5209  0.5612
 7703SOL     OW33577   3.189   4.143   2.814 -0.2241 -0.3058 -0.2529
 7703SOL    HW133578   3.145   4.074   2.756 -0.3691  0.4754 -1.0741
 7703SOL    HW233579   3.198   4.228   2.764 -2.3051  1.0437  1.5831
 7704SOL     OW33580   1.896   6.411   0.827  0.2588  0.2594 -0.1975
 7704SOL    HW133581   1.908   6.486   0.762  0.9649  1.2121  0.9903
 7704SOL    HW233582   1.799   6.403   0.850 -0.2821 -1.4127 -2.8597
 7705SOL     OW33583   1.746   8.646   4.256  0.2793 -0.0429 -0.5395
 7705SOL    HW133584   1.740   8.744   4.236 -1.6959  0.0523  0.3671
 7705SOL    HW233585   1.801   8.601   4.187 -0.8809  1.3273 -2.3987
 7706SOL     OW33586   0.073   9.924   1.904 -0.4490 -0.1591 -0.3936
 7706SOL    HW133587   0.137   9.871   1.849 -0.8604 -1.0198 -0.0609
 7706SOL    HW233588  -0.014   9.933   1.855 -0.3291  0.3484 -0.5170
 7707SOL     OW33589   5.233   9.636   3.100  0.0598 -0.1170 -0.1604
 7707SOL    HW133590   5.157   9.572   3.099 -0.8700  0.9664 -0.5937
 7707SOL    HW233591   5.209   9.717   3.046  1.0792  0.7307  0.6291
 7708SOL     OW33592   0.006   8.844   2.637  0.2547 -0.4462 -0.0490
 7708SOL    HW133593  -0.080   8.891   2.660  0.8077  0.1009  0.9613
 7708SOL    HW233594   0.017   8.765   2.698 -0.1617 -1.2864 -1.0520
 7709SOL     OW33595   1.636   0.659   2.778 -0.0016  0.1296  0.0299
 7709SOL    HW133596   1.713   0.597   2.793 -0.0142  0.1902  0.3549
 7709SOL    HW233597   1.586   0.672   2.864  0.6342  1.4383  0.2169
 7710SOL     OW33598   0.463   2.441   4.231 -0.7097 -0.6170  0.4043
 7710SOL    HW133599   0.491   2.532   4.201  1.3851 -0.2623  3.1874
 7710SOL    HW233600   0.426   2.448   4.324  0.9730 -2.8169  1.2583
 7711SOL     OW33601   3.561   7.712   1.069 -0.2232 -0.1851 -0.5525
 7711SOL    HW133602   3.478   7.721   1.125  0.9126  0.6139  1.0478
 7711SOL    HW233603   3.617   7.637   1.104  1.5368  1.6974  0.7940
 7712SOL     OW33604   2.964   6.746   1.185 -0.4853  0.2037 -0.1019
 7712SOL    HW133605   2.885   6.767   1.242 -0.4407 -1.0692  0.4403
 7712SOL    HW233606   3.048   6.773   1.233 -0.4554 -0.7393  0.3852
 7713SOL     OW33607   5.875   8.899   3.408  0.1824 -0.0372 -0.6609
 7713SOL    HW133608   5.959   8.891   3.355 -0.6574 -0.2625 -1.9951
 7713SOL    HW233609   5.897   8.910   3.505  1.7375 -0.0413 -1.0025
 7714SOL     OW33610   1.436   6.752   1.553  0.7260  0.2729 -0.1448
 7714SOL    HW133611   1.512   6.716   1.607  1.3880 -0.2536 -1.3911
 7714SOL    HW233612   1.351   6.711   1.584  1.1645 -0.4457  0.1218
 7715SOL     OW33613   0.899   8.568   1.018  0.0611  0.0296 -0.1150
 7715SOL    HW133614   0.821   8.532   1.068 -1.4339  3.7898  0.4733
 7715SOL    HW233615   0.974   8.585   1.081 -0.1050  0.2240  0.0308
 7716SOL     OW33616   6.517   0.476   3.437  0.3373 -0.0004  0.4671
 7716SOL    HW133617   6.602   0.445   3.479  0.1965 -1.2769 -0.1955
 7716SOL    HW233618   6.518   0.456   3.339 -1.3014 -1.2980  0.7014
 7717SOL     OW33619   4.124   2.582   2.287  0.1782 -0.0523 -0.3124
 7717SOL    HW133620   4.112   2.482   2.285 -1.4428  0.0713  1.5728
 7717SOL    HW233621   4.121   2.618   2.194 -0.0238 -1.6812 -0.9518
 7718SOL     OW33622   3.613   4.399   2.253  0.4460  0.3735 -0.0542
 7718SOL    HW133623   3.543   4.455   2.210  0.1086  0.3975  0.5197
 7718SOL    HW233624   3.662   4.347   2.183 -2.6753 -2.5525 -0.1579
 7719SOL     OW33625   8.588   8.213   3.791  0.1326  0.2033 -0.3967
 7719SOL    HW133626   8.633   8.287   3.841 -0.2034  0.8505 -1.0311
 7719SOL    HW233627   8.489   8.220   3.802  0.1061 -0.2367 -0.3469
 7720SOL     OW33628   0.333   9.454   1.940  0.4752 -0.1875 -0.4979
 7720SOL    HW133629   0.418   9.404   1.928  0.6999  0.7020 -2.9470
 7720SOL    HW233630   0.266   9.396   1.985  1.7784 -1.5287 -0.2574
 7721SOL     OW33631   3.043   1.388   2.063 -0.2723  0.0301  0.2210
 7721SOL    HW133632   3.043   1.372   1.965  0.0617  0.0419  0.2176
 7721SOL    HW233633   3.085   1.310   2.110 -2.0897 -0.8035  0.4957
 7722SOL     OW33634   0.339   4.729   3.703  0.2934  0.6816 -0.4406
 7722SOL    HW133635   0.363   4.632   3.694 -1.7630  0.2910 -2.0836
 7722SOL    HW233636   0.291   4.744   3.790  0.9066  0.2883 -0.0359
 7723SOL     OW33637   0.278   1.660   0.203 -0.1078 -0.5558  0.3409
 7723SOL    HW133638   0.221   1.594   0.253 -0.3093 -0.1232  0.6878
 7723SOL    HW233639   0.337   1.708   0.268 -0.2918 -0.0660  0.1473
 7724SOL     OW33640   2.033   3.466   2.447 -0.6396  0.1792  0.4260
 7724SOL    HW133641   1.981   3.409   2.510  0.1137 -0.0788  0.8212
 7724SOL    HW233642   2.038   3.560   2.482 -0.4402  0.0953  0.6209
 7725SOL     OW33643   3.868   8.709   2.365 -0.4444  0.1140 -1.0187
 7725SOL    HW133644   3.923   8.677   2.441  0.0258  1.1450 -0.9088
 7725SOL    HW233645   3.879   8.648   2.287  0.3482 -0.0382 -0.7888
 7726SOL     OW33646   1.407   2.932   4.757 -0.0690  0.7684 -0.4084
 7726SOL    HW133647   1.423   2.942   4.659  2.6732  2.5583  0.1633
 7726SOL    HW233648   1.483   2.883   4.798 -1.4747 -0.4820  0.7635
 7727SOL     OW33649   3.172   9.611   2.240 -0.4461  0.1517 -0.0366
 7727SOL    HW133650   3.205   9.678   2.173 -1.4362  0.7464  0.0674
 7727SOL    HW233651   3.096   9.650   2.292 -0.5425 -0.7852  0.5377
 7728SOL     OW33652   0.674   1.781   2.210 -0.2633 -0.1449  0.1697
 7728SOL    HW133653   0.704   1.874   2.229  0.9326 -0.5524  0.3394
 7728SOL    HW233654   0.709   1.719   2.280 -0.1473 -0.8722 -0.5104
 7729SOL     OW33655   0.709   8.298   3.345  0.2714  0.1174 -0.6146
 7729SOL    HW133656   0.726   8.337   3.255  0.6329  0.5797 -0.3485
 7729SOL    HW233657   0.784   8.235   3.369  1.6482  2.1402  0.5509
 7730SOL     OW33658   8.956   9.436   0.680  0.0413  0.6365  0.0051
 7730SOL    HW133659   8.881   9.413   0.743 -0.3780  1.2112 -0.2874
 7730SOL    HW233660   8.929   9.513   0.623  0.4986  0.2322 -0.7554
 7731SOL     OW33661   3.345   8.674   4.300 -0.1687  0.2272  0.0416
 7731SOL    HW133662   3.352   8.771   4.327  0.9583  0.2481 -0.3238
 7731SOL    HW233663   3.305   8.622   4.376 -0.4513  0.9171  0.3731
 7732SOL     OW33664   8.120   5.825   2.230 -0.5734  0.1069  0.2615
 7732SOL    HW133665   8.124   5.737   2.183  0.0986  0.4066 -0.2447
 7732SOL    HW233666   8.034   5.831   2.281 -0.3671 -1.0719  0.7606
 7733SOL     OW33667   4.835   8.514   3.995  0.0677  0.4963 -0.0995
 7733SOL    HW133668   4.870   8.567   4.072  0.8491 -0.4868  0.2175
 7733SOL    HW233669   4.897   8.525   3.917  1.8161 -2.2682  0.8491
 7734SOL     OW33670   1.093   1.501   3.751 -0.5681  0.0474  0.3530
 7734SOL    HW133671   1.033   1.422   3.765 -0.9709  0.4433  0.8749
 7734SOL    HW233672   1.179   1.471   3.710 -0.0886 -0.8936  2.0047
 7735SOL     OW33673   2.001   0.777   2.610  0.1430  0.3429  0.0751
 7735SOL    HW133674   2.021   0.800   2.514 -2.1554  1.1547 -0.2314
 7735SOL    HW233675   1.922   0.830   2.641  0.3896 -0.4943  2.1977
 7736SOL     OW33676   9.494   9.901   0.061  0.2033 -0.5625  0.2290
 7736SOL    HW133677   9.488   9.910  -0.039 -2.4941  0.2575  0.4254
 7736SOL    HW233678   9.507   9.991   0.102  0.1546 -0.7691  0.6943
 7737SOL     OW33679   6.578   8.949   1.239  0.2509 -0.0099 -0.3843
 7737SOL    HW133680   6.561   9.004   1.157  1.2940 -0.4051 -0.8749
 7737SOL    HW233681   6.609   8.858   1.212  0.4361 -0.1964  0.4448
 7738SOL     OW33682   8.622   6.945   3.719  0.3979 -0.4090  0.1062
 7738SOL    HW133683   8.611   7.008   3.642  1.1234  2.9546  2.6153
 7738SOL    HW233684   8.542   6.885   3.725 -1.4243  1.7996 -1.0594
 7739SOL     OW33685   0.241   7.958   0.304  0.3049 -0.8415 -0.0916
 7739SOL    HW133686   0.226   8.001   0.393  1.2207 -0.9285  0.1090
 7739SOL    HW233687   0.156   7.959   0.251 -0.0922 -0.2740  0.5610
 7740SOL     OW33688   1.851   5.337   0.466  0.1246  0.4166  0.2144
 7740SOL    HW133689   1.936   5.285   0.467 -0.1558 -0.0440  0.5033
 7740SOL    HW233690   1.809   5.333   0.557  0.1574  1.2413  0.2661
 7741SOL     OW33691   3.911   1.678   3.324  0.2155 -0.1995  0.5677
 7741SOL    HW133692   3.948   1.754   3.271 -0.4467  0.1997  0.6687
 7741SOL    HW233693   3.877   1.713   3.412 -2.6021 -0.1517 -0.4927
 7742SOL     OW33694   8.386   8.772   4.468 -0.0579 -0.2697  0.4396
 7742SOL    HW133695   8.308   8.831   4.449  0.1201  0.2974  1.4166
 7742SOL    HW233696   8.466   8.828   4.487  0.8070 -0.8628 -1.4412
 7743SOL     OW33697   2.551   7.361   0.681 -0.2512 -0.2137 -0.4491
 7743SOL    HW133698   2.647   7.388   0.687 -0.3675  0.5614 -1.8059
 7743SOL    HW233699   2.532   7.289   0.748  0.4751  1.8889  2.0670
 7744SOL     OW33700   9.885   0.341   3.528 -0.1092 -0.6797  0.4040
 7744SOL    HW133701   9.809   0.404   3.513 -0.1637 -1.3253 -2.1711
 7744SOL    HW233702   9.971   0.392   3.532 -0.4901 -0.1162  1.8037
 7745SOL     OW33703   8.310   8.045   1.875 -0.6863  0.2271  0.5670
 7745SOL    HW133704   8.319   7.947   1.895 -1.5455 -0.3856 -1.8137
 7745SOL    HW233705   8.385   8.072   1.814 -0.2059  1.1639  1.5691
 7746SOL     OW33706   3.593   3.429   1.496 -0.0052  0.1487  0.0080
 7746SOL    HW133707   3.628   3.522   1.510 -0.4265 -0.0295  2.6118
 7746SOL    HW233708   3.644   3.366   1.555 -1.3070 -0.8870  0.0377
 7747SOL     OW33709   0.204   0.151   4.602  0.6266  0.9336 -0.3730
 7747SOL    HW133710   0.213   0.249   4.622  0.8984  0.9269 -0.4681
 7747SOL    HW233711   0.107   0.126   4.604  0.6521  0.9198  0.9802
 7748SOL     OW33712   5.972   8.855   1.717 -1.0520 -0.2002  0.1258
 7748SOL    HW133713   5.990   8.946   1.681  1.7754 -0.5251  0.5793
 7748SOL    HW233714   5.902   8.860   1.787 -0.2071  1.8098  0.8585
 7749SOL     OW33715   0.743   6.919   1.419  0.2012 -0.3985 -0.0528
 7749SOL    HW133716   0.793   6.996   1.457  2.1332 -0.7872 -1.7560
 7749SOL    HW233717   0.770   6.835   1.467 -0.2498 -0.3477  0.2990
 7750SOL     OW33718   7.683   6.977   4.263 -0.4362  0.3381 -0.1493
 7750SOL    HW133719   7.615   7.006   4.330 -1.2446  1.4679 -1.4407
 7750SOL    HW233720   7.657   7.010   4.172  1.0979 -0.4303 -0.8872
 7751SOL     OW33721   9.744   5.452   3.271  0.4545 -0.3702  0.2312
 7751SOL    HW133722   9.683   5.486   3.199 -0.4915 -0.4572  0.9689
 7751SOL    HW233723   9.818   5.517   3.286  0.8627 -0.5254 -1.0643
 7752SOL     OW33724   1.315   7.105   4.038  0.2003  0.0201 -0.3124
 7752SOL    HW133725   1.327   7.166   3.960 -0.4274  2.8053  1.6993
 7752SOL    HW233726   1.404   7.070   4.067  0.5750  0.0453 -1.4307
 7753SOL     OW33727   6.293   9.182   1.598  0.3740  0.1590  0.1514
 7753SOL    HW133728   6.331   9.098   1.561  0.2278 -0.3101  1.0777
 7753SOL    HW233729   6.330   9.260   1.547 -0.5372 -0.5246 -1.6222
 7754SOL     OW33730   3.214   2.290   4.365 -0.1641  0.0303 -0.0479
 7754SOL    HW133731   3.161   2.264   4.285 -0.9441 -1.9797  1.0750
 7754SOL    HW233732   3.157   2.342   4.428 -0.4086 -0.8886  0.5024
 7755SOL     OW33733   1.769   1.803   3.870  0.2624  0.1435  0.1180
 7755SOL    HW133734   1.715   1.886   3.880  3.1646  2.1193  0.1054
 7755SOL    HW233735   1.776   1.756   3.958  0.3384  1.0579  0.6078
 7756SOL     OW33736   3.191   9.213   3.136 -0.5373  0.1707  0.0220
 7756SOL    HW133737   3.219   9.301   3.099  1.5143 -1.1475 -1.6614
 7756SOL    HW233738   3.108   9.181   3.089  0.2595 -0.0313 -1.2674
 7757SOL     OW33739   9.424   6.081   2.073 -0.1461 -0.3220  0.1049
 7757SOL    HW133740   9.359   6.005   2.079  0.3009 -0.6185  1.3148
 7757SOL    HW233741   9.517   6.044   2.068 -0.0287  0.1114 -1.0593
 7758SOL     OW33742   2.067   4.700   2.869  0.4226  0.2260  0.0193
 7758SOL    HW133743   1.976   4.733   2.898 -0.4711 -0.4588 -1.9294
 7758SOL    HW233744   2.069   4.600   2.873  0.8968  0.2133 -0.5310
 7759SOL     OW33745   0.880   2.856   0.884 -0.3912  0.2013 -0.5389
 7759SOL    HW133746   0.815   2.901   0.823 -0.1257  1.1803 -0.1032
 7759SOL    HW233747   0.866   2.757   0.880 -2.5525  0.4458  0.2742
 7760SOL     OW33748   1.029   3.365   2.909 -0.5630  0.2052 -0.0547
 7760SOL    HW133749   1.053   3.462   2.909 -0.3950  0.1734  1.1060
 7760SOL    HW233750   1.033   3.329   2.816 -1.1245  1.4347 -0.5604
 7761SOL     OW33751   0.364   2.974   0.592 -0.1114  0.5036 -0.2089
 7761SOL    HW133752   0.414   3.023   0.663  2.2803 -1.6593 -0.3224
 7761SOL    HW233753   0.321   3.039   0.529  1.7888  2.4171  0.4301
 7762SOL     OW33754   1.365   5.721   4.436  0.0752  0.5923 -0.4989
 7762SOL    HW133755   1.464   5.737   4.431  0.3433 -0.9574 -0.3480
 7762SOL    HW233756   1.319   5.805   4.466  1.5234  0.8049  1.2216
 7763SOL     OW33757   0.727   7.642   0.788 -1.0096  0.5403 -0.3935
 7763SOL    HW133758   0.754   7.605   0.877 -0.0526  0.0618 -0.8778
 7763SOL    HW233759   0.796   7.706   0.755 -1.2948  0.6143 -0.8577
 7764SOL     OW33760   1.956   0.104   1.309 -0.0275  0.2034 -0.3930
 7764SOL    HW133761   2.006   0.036   1.255 -0.5504  0.3491 -1.0531
 7764SOL    HW233762   1.942   0.187   1.255  0.4216  0.7678  0.3389
 7765SOL     OW33763   7.928   8.579   1.406  0.7363  0.6613 -0.2402
 7765SOL    HW133764   7.865   8.623   1.342  0.6268  0.6601 -0.1340
 7765SOL    HW233765   7.975   8.503   1.359  0.5503  0.5683 -0.2784
 7766SOL     OW33766   2.295   5.982   1.144  0.6551  0.1343  0.7154
 7766SOL    HW133767   2.355   6.050   1.102  1.6611 -0.2020  1.5826
 7766SOL    HW233768   2.242   5.936   1.073 -0.6092  2.3440  0.1898
 7767SOL     OW33769   1.168   5.537   4.532 -0.3182  0.2991  0.0737
 7767SOL    HW133770   1.079   5.583   4.531 -0.9627 -0.9336  0.6413
 7767SOL    HW233771   1.234   5.592   4.480 -1.4648  1.0808 -0.5790
 7768SOL     OW33772   2.483   9.676   0.545  0.3639 -0.1836 -0.0069
 7768SOL    HW133773   2.441   9.600   0.496 -1.3412  0.9905 -0.3832
 7768SOL    HW233774   2.506   9.749   0.480 -0.0026  0.5286  0.6629
 7769SOL     OW33775   1.701   9.323   3.598  0.0766 -0.2028 -0.1802
 7769SOL    HW133776   1.693   9.401   3.535  0.9349  0.2711  0.2835
 7769SOL    HW233777   1.636   9.252   3.572 -0.8161  0.7271 -0.5346
 7770SOL     OW33778   2.005   9.113   4.065  0.5309  0.0302 -0.0100
 7770SOL    HW133779   1.949   9.119   4.147 -0.6710 -1.0693 -0.7388
 7770SOL    HW233780   2.071   9.038   4.074 -0.3896 -0.8536 -0.5074
 7771SOL     OW33781   0.484   5.016   2.131  0.0122  0.1932  0.2707
 7771SOL    HW133782   0.567   4.975   2.168 -0.6243  0.5271  2.1046
 7771SOL    HW233783   0.476   4.993   2.034  1.5671 -0.9214  0.3909
 7772SOL     OW33784   9.924   7.840   2.830 -0.1678  0.0249  0.1714
 7772SOL    HW133785  10.020   7.813   2.836  0.0175  0.4665 -0.7275
 7772SOL    HW233786   9.894   7.878   2.918  0.3928 -0.3838  0.5433
 7773SOL     OW33787   5.639   9.681   3.277  1.2169 -0.5923 -0.0321
 7773SOL    HW133788   5.725   9.692   3.228 -0.3216  2.2434 -2.3124
 7773SOL    HW233789   5.612   9.769   3.316 -0.2324 -1.6491  1.4183
 7774SOL     OW33790   8.071   9.289   1.987  0.0695  0.3097 -0.7732
 7774SOL    HW133791   8.136   9.276   2.061 -0.5898 -1.7136 -0.5209
 7774SOL    HW233792   8.038   9.384   1.988  0.1474  0.3460  1.4513
 7775SOL     OW33793   7.384   9.951   1.449  0.5771  0.8985 -0.2137
 7775SOL    HW133794   7.365  10.049   1.457  1.4362  0.9504  1.3919
 7775SOL    HW233795   7.427   9.932   1.361 -0.0129  1.8900 -0.7185
 7776SOL     OW33796   3.952   2.945   2.916 -0.2581 -0.1602 -0.4315
 7776SOL    HW133797   3.855   2.937   2.890  0.1249 -0.6763 -1.7569
 7776SOL    HW233798   3.959   2.955   3.015 -1.6453 -0.6866 -0.2651
 7777SOL     OW33799   2.145   2.431   3.074 -0.1993 -0.6948 -0.2509
 7777SOL    HW133800   2.063   2.386   3.109 -0.0097  0.1085  1.2701
 7777SOL    HW233801   2.184   2.377   2.999 -2.1701 -1.0260 -1.0695
 7778SOL     OW33802   8.132   7.660   4.692  0.1181  0.2766  0.6078
 7778SOL    HW133803   8.085   7.637   4.777  0.4345 -0.5079  0.5701
 7778SOL    HW233804   8.213   7.603   4.682 -1.5571 -1.7881 -1.6896
 7779SOL     OW33805   2.085   5.905   0.539 -0.3466  0.0311  0.3210
 7779SOL    HW133806   2.004   5.848   0.553  0.2421 -0.8074  0.3660
 7779SOL    HW233807   2.057   5.999   0.521 -1.3622 -0.4277 -0.5535
 7780SOL     OW33808   7.090   9.920   2.764  0.2555 -0.7258 -0.1781
 7780SOL    HW133809   7.062   9.925   2.668  2.1246 -0.8727 -0.7528
 7780SOL    HW233810   7.183   9.884   2.770  0.2818 -0.4110  1.6703
 7781SOL     OW33811   0.348   8.953   0.557 -0.7013 -0.1834 -0.5365
 7781SOL    HW133812   0.371   8.967   0.654 -0.2528 -1.6852 -0.4197
 7781SOL    HW233813   0.299   8.867   0.547  1.5234 -1.3126 -1.9840
 7782SOL     OW33814   9.997   0.769   1.082  1.0143  0.0851  0.2686
 7782SOL    HW133815  10.009   0.784   1.180 -1.2442  2.7519  0.1777
 7782SOL    HW233816  10.077   0.720   1.046  1.5452 -1.6217  3.5322
 7783SOL     OW33817   0.970   4.821   2.959  0.1307  0.4227  0.0915
 7783SOL    HW133818   1.066   4.816   2.986 -0.4514 -1.6513  1.9214
 7783SOL    HW233819   0.926   4.897   3.006  0.6878  0.9668 -0.2444
 7784SOL     OW33820   5.449   9.786   4.014  1.0630 -0.2376  0.5620
 7784SOL    HW133821   5.393   9.746   4.087  1.9671 -1.0464  0.8144
 7784SOL    HW233822   5.418   9.750   3.926  1.4956 -1.0647  0.7422
 7785SOL     OW33823   9.553   9.631   0.443  0.5900  0.1440 -0.1374
 7785SOL    HW133824   9.519   9.634   0.349 -2.7836  1.2371  1.0703
 7785SOL    HW233825   9.591   9.720   0.467  1.6952 -0.2127 -0.5041
 7786SOL     OW33826   1.358   7.779   3.538  0.6491  0.1109  0.1645
 7786SOL    HW133827   1.324   7.795   3.446 -1.8485 -0.9912  0.8660
 7786SOL    HW233828   1.380   7.681   3.550 -0.4374 -0.0269  1.1683
 7787SOL     OW33829   1.614   0.611   0.634  0.3925 -0.1881 -0.5305
 7787SOL    HW133830   1.591   0.634   0.539  1.3336  1.2502 -0.4316
 7787SOL    HW233831   1.606   0.693   0.690 -1.3648 -1.3075  0.8922
 7788SOL     OW33832   9.721   4.479   1.264 -0.5906  1.1725  0.1412
 7788SOL    HW133833   9.707   4.385   1.295  0.4061  0.7641 -0.6185
 7788SOL    HW233834   9.791   4.480   1.193  0.8617  2.7274  1.5487
 7789SOL     OW33835   1.635   0.803   2.492  0.3648 -0.0476 -0.2327
 7789SOL    HW133836   1.597   0.765   2.576 -1.4838  0.2384 -0.9262
 7789SOL    HW233837   1.695   0.735   2.449  2.1186  0.1506  1.7834
 7790SOL     OW33838   7.063   9.532   1.477  0.0242  0.2724  0.0490
 7790SOL    HW133839   6.989   9.559   1.416 -0.8628 -1.8399  0.1688
 7790SOL    HW233840   7.026   9.512   1.568  0.8112 -0.3290  0.2391
 7791SOL     OW33841   9.096   9.515   2.881 -0.1859  0.0041  0.0009
 7791SOL    HW133842   9.061   9.542   2.970  0.2315  1.5741 -0.3007
 7791SOL    HW233843   9.069   9.581   2.812  2.0206  0.4309 -0.5071
 7792SOL     OW33844   5.776   8.783   2.329  0.0963  0.3409  0.0581
 7792SOL    HW133845   5.769   8.755   2.424  0.2867 -1.6670 -0.5039
 7792SOL    HW233846   5.771   8.883   2.323  1.3138  0.5569  2.2732
 7793SOL     OW33847   3.044   7.436   3.066 -0.2407 -0.4249  0.1409
 7793SOL    HW133848   3.057   7.340   3.088  3.7897 -0.1570 -0.6908
 7793SOL    HW233849   3.027   7.488   3.150 -0.4129 -1.5641  0.8185
 7794SOL     OW33850   4.641   1.340   0.934 -0.1726 -0.3111 -0.0464
 7794SOL    HW133851   4.728   1.387   0.951 -0.7731  0.2397  1.5444
 7794SOL    HW233852   4.646   1.294   0.845  1.2299  0.8821 -0.6191
 7795SOL     OW33853   2.501   8.417   2.932 -0.5316  0.1725 -0.9661
 7795SOL    HW133854   2.403   8.396   2.937  0.1269 -2.7176  0.7408
 7795SOL    HW233855   2.524   8.484   3.003 -1.3096  1.1179 -1.5914
 7796SOL     OW33856   3.988   0.787   4.364 -0.7404 -0.2053  0.1384
 7796SOL    HW133857   3.946   0.776   4.454 -0.3422  0.9080  0.4612
 7796SOL    HW233858   3.960   0.711   4.305 -1.0536 -0.9083  1.1752
 7797SOL     OW33859   2.541   8.169   0.645  0.6284  0.2862  0.2580
 7797SOL    HW133860   2.570   8.255   0.604  2.4577 -0.6653 -0.5553
 7797SOL    HW233861   2.455   8.181   0.694  0.5690  2.4166 -0.3508
 7798SOL     OW33862   0.516   3.248   1.287 -0.3204  0.1681  0.5988
 7798SOL    HW133863   0.555   3.187   1.217 -2.3243 -1.5495  0.9402
 7798SOL    HW233864   0.511   3.341   1.250  0.1597 -0.3945 -0.9477
 7799SOL     OW33865   2.055   9.813   2.325  0.2162  0.2220 -0.2309
 7799SOL    HW133866   2.025   9.857   2.241 -0.2107  1.6746  0.6760
 7799SOL    HW233867   2.001   9.846   2.402  0.9784 -0.6774  0.7093
 7800SOL     OW33868   4.191   0.574   3.447  0.1111 -0.0525 -0.1589
 7800SOL    HW133869   4.242   0.496   3.411 -0.8037 -0.1864 -1.1999
 7800SOL    HW233870   4.171   0.638   3.373 -0.9136  0.1693  0.2993
 7801SOL     OW33871   0.979   9.934   3.205  0.3910 -0.5102  0.5594
 7801SOL    HW133872   0.922   9.865   3.160  0.9621 -1.2713  0.9757
 7801SOL    HW233873   1.002  10.006   3.140  0.5827 -1.2194 -0.1695
 7802SOL     OW33874   7.871   0.209   3.825  0.2174  0.3422  0.0530
 7802SOL    HW133875   7.797   0.194   3.891  0.1939 -0.1741 -0.0908
 7802SOL    HW233876   7.832   0.232   3.736  0.1740 -1.6796 -0.4759
 7803SOL     OW33877   7.707   7.346   2.770  0.2656 -0.0438  0.7422
 7803SOL    HW133878   7.798   7.319   2.739  0.2355  0.0330  0.5866
 7803SOL    HW233879   7.696   7.321   2.867  1.1381  1.6811  1.3061
 7804SOL     OW33880   2.564   1.510   1.844 -0.2890  0.0715 -0.8565
 7804SOL    HW133881   2.508   1.549   1.917 -0.6763 -1.1974 -0.4635
 7804SOL    HW233882   2.513   1.438   1.797  0.2947  0.2512 -1.7858
 7805SOL     OW33883   5.209   8.056   3.248 -0.1570  0.1707  0.3551
 7805SOL    HW133884   5.266   7.980   3.278  0.6604 -0.9363 -3.6874
 7805SOL    HW233885   5.268   8.130   3.215 -0.9952  1.5382  1.8838
 7806SOL     OW33886   2.032   6.470   2.279  0.3482  0.0205 -0.4323
 7806SOL    HW133887   2.087   6.398   2.234  2.0360  0.6682  0.5522
 7806SOL    HW233888   2.087   6.515   2.349 -1.8221 -0.0453  1.3680
 7807SOL     OW33889   3.201   5.342   4.452  0.4437  0.3200 -0.4204
 7807SOL    HW133890   3.164   5.319   4.362  2.5473  2.0397 -1.7620
 7807SOL    HW233891   3.264   5.269   4.481 -0.9074 -0.6636  0.0722
 7808SOL     OW33892   2.956   3.055   2.068  0.0140 -0.7987  0.1276
 7808SOL    HW133893   2.955   3.081   1.972 -1.3738  3.0063  1.0693
 7808SOL    HW233894   2.874   3.001   2.088 -0.7052  0.0449 -0.4647
 7809SOL     OW33895   4.430   1.903   2.357 -0.3020 -0.1907  0.3745
 7809SOL    HW133896   4.335   1.909   2.326 -1.1715 -1.1048  2.7610
 7809SOL    HW233897   4.482   1.978   2.317 -1.2927 -1.3799 -3.3707
 7810SOL     OW33898   8.221   7.216   1.333 -0.3255 -0.0800  0.6314
 7810SOL    HW133899   8.291   7.180   1.272 -0.4884 -1.4409  1.2310
 7810SOL    HW233900   8.236   7.181   1.426  0.0551  2.1453  1.4439
 7811SOL     OW33901   2.211   1.268   0.484 -0.0961  0.0895 -0.2308
 7811SOL    HW133902   2.248   1.342   0.542  2.0653 -1.6238  0.6477
 7811SOL    HW233903   2.219   1.294   0.388  1.7628  0.5297  0.0236
 7812SOL     OW33904   1.787   5.687   1.684  0.7331  0.5457 -0.0096
 7812SOL    HW133905   1.829   5.610   1.636 -0.3216 -0.3857  0.5242
 7812SOL    HW233906   1.845   5.715   1.760  0.3036 -0.8683  0.8567
 7813SOL     OW33907   2.367   2.985   0.273  0.2222 -0.1461 -0.3512
 7813SOL    HW133908   2.306   3.025   0.340 -0.6033 -1.0474 -0.5512
 7813SOL    HW233909   2.355   3.030   0.184  0.9875  0.7357 -0.0169
 7814SOL     OW33910   2.763   7.570   4.453  0.1926 -0.8614 -0.0480
 7814SOL    HW133911   2.784   7.498   4.387 -2.2934 -0.5112 -1.2588
 7814SOL    HW233912   2.798   7.657   4.419 -0.1693 -0.8584 -0.4161
 7815SOL     OW33913   4.323   4.415   0.579 -0.1326  0.0009 -0.7180
 7815SOL    HW133914   4.299   4.441   0.673 -1.7838 -0.4349 -1.0041
 7815SOL    HW233915   4.404   4.358   0.580  0.1664  0.4282  0.4009
 7816SOL     OW33916   1.828   1.024   3.664  0.1593 -0.1150  0.2815
 7816SOL    HW133917   1.856   0.944   3.611 -1.0005 -0.8106  0.6957
 7816SOL    HW233918   1.778   0.995   3.746  0.6755  0.9954  1.0125
 7817SOL     OW33919   4.628   1.393   1.956  0.1331 -0.2825  0.0459
 7817SOL    HW133920   4.593   1.309   1.915 -0.0263  0.1424 -0.7086
 7817SOL    HW233921   4.583   1.409   2.044 -1.4574  0.1592 -0.8305
 7818SOL     OW33922   4.076   0.728   3.631 -0.1546  0.4783  0.6391
 7818SOL    HW133923   4.078   0.825   3.608  0.7966 -0.0119 -1.4617
 7818SOL    HW233924   4.121   0.675   3.559 -1.1142 -1.5854  1.4968
 7819SOL     OW33925   9.877   7.900   3.114 -0.1044  0.4224 -0.1163
 7819SOL    HW133926   9.926   7.980   3.148  0.8071 -0.2442  0.1473
 7819SOL    HW233927   9.817   7.865   3.186  1.1022 -0.4102  0.4936
 7820SOL     OW33928   1.547   8.777   4.018 -0.3238  0.0930 -0.5614
 7820SOL    HW133929   1.599   8.810   4.097  1.0289  1.3532 -1.9558
 7820SOL    HW233930   1.461   8.735   4.050  0.3736  0.2355  1.5871
 7821SOL     OW33931   7.232   8.177   1.335 -0.0058  0.1382 -0.4432
 7821SOL    HW133932   7.326   8.208   1.321 -0.4925  0.2468 -3.7204
 7821SOL    HW233933   7.215   8.167   1.433  3.3645  0.2571  0.2187
 7822SOL     OW33934   0.011   1.797   0.469  0.1506 -0.5447 -0.2560
 7822SOL    HW133935   0.021   1.735   0.392  0.1648 -0.0886 -0.6239
 7822SOL    HW233936  -0.005   1.745   0.553 -3.5270 -0.9585 -1.1368
 7823SOL     OW33937   1.274   2.129   3.784  0.0253 -0.4631  0.4062
 7823SOL    HW133938   1.208   2.057   3.804  1.7817 -2.7339 -1.6192
 7823SOL    HW233939   1.352   2.121   3.847  0.5831 -0.8323 -0.3291
 7824SOL     OW33940   7.531   7.057   2.997 -0.3625 -0.0446 -0.3582
 7824SOL    HW133941   7.528   6.958   2.980 -0.8941  0.0212 -0.6354
 7824SOL    HW233942   7.501   7.075   3.091 -0.6920 -0.1055 -0.4520
 7825SOL     OW33943   0.758   6.206   0.510  0.0451  0.7252  0.1820
 7825SOL    HW133944   0.707   6.266   0.448 -0.1490  0.4299  0.0539
 7825SOL    HW233945   0.702   6.126   0.533  0.9042 -0.2240 -0.9580
 7826SOL     OW33946   6.811   9.368   0.028  0.1893  0.3283 -0.6331
 7826SOL    HW133947   6.891   9.417  -0.006  0.4582 -0.1358 -0.6615
 7826SOL    HW233948   6.757   9.334  -0.049  1.3108 -1.5697 -0.6080
 7827SOL     OW33949   3.397   8.148   3.462 -0.1563 -0.5017 -0.4365
 7827SOL    HW133950   3.373   8.097   3.379 -0.5398  0.6490 -1.0365
 7827SOL    HW233951   3.489   8.122   3.491  0.6298  0.2728 -2.1610
 7828SOL     OW33952   9.456   6.549   2.849  0.0371 -0.5536 -0.1918
 7828SOL    HW133953   9.503   6.547   2.937  0.2213 -1.2110 -0.3051
 7828SOL    HW233954   9.508   6.497   2.781  0.0549  0.2056 -0.7691
 7829SOL     OW33955   1.484   2.406   3.716 -0.0104  0.0627  0.3238
 7829SOL    HW133956   1.584   2.397   3.706  0.0184 -0.7632  1.3176
 7829SOL    HW233957   1.439   2.364   3.638  0.4826  3.5111 -1.9647
 7830SOL     OW33958   5.563   7.365   2.748  0.3356  0.1619 -0.4882
 7830SOL    HW133959   5.494   7.336   2.681 -0.3991 -0.5129  0.5392
 7830SOL    HW233960   5.610   7.447   2.715 -2.5368  1.9847 -0.1768
 7831SOL     OW33961   2.166   7.200   2.918  0.0777 -0.5437  0.1589
 7831SOL    HW133962   2.261   7.202   2.949  0.4020 -1.0980 -0.7695
 7831SOL    HW233963   2.149   7.116   2.867 -0.3699  0.4183 -1.3147
 7832SOL     OW33964   5.198   6.799   2.707 -0.0948 -0.5668 -1.0627
 7832SOL    HW133965   5.286   6.798   2.659 -0.7114  2.3015 -2.3939
 7832SOL    HW233966   5.132   6.854   2.655 -1.5531  0.5282  1.7903
 7833SOL     OW33967   8.203   7.631   1.530  0.6174  0.0246  0.2251
 7833SOL    HW133968   8.156   7.552   1.491  3.1552 -1.4946  0.1069
 7833SOL    HW233969   8.298   7.631   1.499  0.9724  2.4451  1.2329
 7834SOL     OW33970   0.123   1.467   0.301  0.3821 -0.0150 -0.5574
 7834SOL    HW133971   0.201   1.404   0.295  0.2810 -0.2936  0.9082
 7834SOL    HW233972   0.038   1.414   0.299  0.3107 -0.0100  1.4748
 7835SOL     OW33973   8.891   7.308   1.018  0.4587 -0.2620  0.1763
 7835SOL    HW133974   8.914   7.231   0.959  1.5040 -0.4430  0.8062
 7835SOL    HW233975   8.976   7.351   1.051 -0.0972  1.5011 -0.6110
 7836SOL     OW33976   9.962   9.673   2.564 -0.2138  0.2209  0.4350
 7836SOL    HW133977   9.973   9.657   2.465  0.9664 -0.4610  0.6653
 7836SOL    HW233978  10.018   9.750   2.591  2.1062 -1.6524  1.1501
 7837SOL     OW33979   4.105   0.704   2.125 -0.0568  0.7183 -0.3165
 7837SOL    HW133980   4.104   0.726   2.222 -0.3077  2.3206 -0.6721
 7837SOL    HW233981   4.016   0.668   2.097  0.9126 -2.6566  0.6629
 7838SOL     OW33982   9.087   6.879   4.463  0.7252 -0.0992 -0.3893
 7838SOL    HW133983   9.115   6.898   4.557  0.0335  1.7696 -0.5303
 7838SOL    HW233984   9.154   6.918   4.400 -0.7590  2.0492 -0.6918
 7839SOL     OW33985   5.548   6.760   2.263  0.1747 -0.2282 -0.7201
 7839SOL    HW133986   5.621   6.751   2.332  0.6694  1.8420 -0.9382
 7839SOL    HW233987   5.531   6.671   2.221  1.8674 -0.9492  0.0584
 7840SOL     OW33988   0.793   2.889   3.953  0.1885 -0.0309 -0.5177
 7840SOL    HW133989   0.839   2.851   4.033  0.6504 -0.8551 -1.1597
 7840SOL    HW233990   0.833   2.978   3.930 -1.2470  1.1127  1.3037
 7841SOL     OW33991   1.715   1.411   3.313  0.3128 -0.7161  0.5046
 7841SOL    HW133992   1.803   1.414   3.266  1.3169  0.1086  2.3961
 7841SOL    HW233993   1.729   1.379   3.407 -1.4083 -0.5746  0.8170
 7842SOL     OW33994   2.967   7.199   3.667  0.4200 -0.1652  0.7324
 7842SOL    HW133995   3.062   7.191   3.636  0.3665 -1.2562  0.8381
 7842SOL    HW233996   2.910   7.230   3.590  0.5128 -1.5671  0.0924
 7843SOL     OW33997   4.752   2.004   2.287 -0.5272 -0.2778 -0.1693
 7843SOL    HW133998   4.786   1.923   2.334  0.2124 -0.1701 -0.5141
 7843SOL    HW233999   4.745   1.984   2.189 -0.3857  0.0577 -0.2479
 7844SOL     OW34000   6.272   7.905   2.995  0.1950 -0.3968 -0.6032
 7844SOL    HW134001   6.247   7.842   2.923  1.9702 -1.6284 -0.1823
 7844SOL    HW234002   6.211   7.984   2.994 -0.3006 -0.7905 -2.9063
 7845SOL     OW34003   0.860   4.698   1.184  0.3623 -0.5457  0.1676
 7845SOL    HW134004   0.925   4.652   1.124  0.1060 -2.0495  1.0245
 7845SOL    HW234005   0.812   4.630   1.239 -1.2075  0.6307  0.2714
 7846SOL     OW34006   1.156   1.951   3.259 -0.3980 -0.1775 -0.2191
 7846SOL    HW134007   1.235   1.980   3.204 -0.2047  0.8461  0.5802
 7846SOL    HW234008   1.094   2.029   3.270 -0.2321 -0.2614  1.3595
 7847SOL     OW34009   0.012   5.509   2.809 -0.4115  0.2358  0.2647
 7847SOL    HW134010   0.094   5.505   2.752 -0.0248 -1.0638  0.9085
 7847SOL    HW234011   0.036   5.541   2.901 -0.6165 -0.2065  0.4724
 7848SOL     OW34012   1.591   1.969   2.286  0.1075 -0.2377  0.9851
 7848SOL    HW134013   1.681   2.008   2.304 -0.6488  1.0667  2.1192
 7848SOL    HW234014   1.588   1.875   2.318  0.8308 -0.0249  1.6977
 7849SOL     OW34015   1.053   0.322   3.757 -0.4936  0.1118  0.2874
 7849SOL    HW134016   1.120   0.392   3.782  2.3150 -1.2731 -2.9039
 7849SOL    HW234017   0.968   0.367   3.727  1.5708  2.3408 -2.6223
 7850SOL     OW34018   0.802   0.215   0.565  0.0335  0.6154 -0.2120
 7850SOL    HW134019   0.838   0.201   0.473 -1.4342  0.4261 -0.7707
 7850SOL    HW234020   0.709   0.249   0.559  0.6897  2.7297  1.2125
 7851SOL     OW34021   2.960   3.381   3.973 -0.1204 -0.4725 -0.0791
 7851SOL    HW134022   2.960   3.450   3.901 -1.0640  0.0816  0.4426
 7851SOL    HW234023   2.878   3.324   3.965 -1.4751  1.0993  1.9441
 7852SOL     OW34024   9.783   7.541   3.136  0.4214  0.4712 -0.5968
 7852SOL    HW134025   9.733   7.459   3.164  2.8637 -0.3649  1.5621
 7852SOL    HW234026   9.848   7.517   3.064  1.4189  0.3924  0.3158
 7853SOL     OW34027   1.256   7.538   3.142  0.0023 -0.7501 -0.0968
 7853SOL    HW134028   1.338   7.486   3.164 -0.2635 -1.8536 -1.6616
 7853SOL    HW234029   1.258   7.625   3.191  0.9896 -1.7424  1.6585
 7854SOL     OW34030   3.148   6.124   4.299 -0.5370  0.4102 -0.0449
 7854SOL    HW134031   3.139   6.037   4.348  0.7822 -0.6975 -1.7532
 7854SOL    HW234032   3.075   6.131   4.231 -0.1228  0.2484 -0.5044
 7855SOL     OW34033   3.181   2.084   0.625 -0.5843  0.0301  0.2073
 7855SOL    HW134034   3.106   2.097   0.689 -0.8688 -0.0575 -0.1059
 7855SOL    HW234035   3.242   2.012   0.658 -0.6634  0.0699  0.4385
 7856SOL     OW34036   9.587   7.347   2.228 -0.0819 -0.0739 -0.3595
 7856SOL    HW134037   9.537   7.431   2.205  0.2240 -0.0731 -1.0202
 7856SOL    HW234038   9.673   7.344   2.177  0.1353 -0.5552  0.0336
 7857SOL     OW34039   2.060   9.623   3.937  0.0507 -0.3347 -0.8545
 7857SOL    HW134040   2.014   9.655   3.854 -0.2858 -1.0353 -0.9405
 7857SOL    HW234041   2.021   9.536   3.966  0.4948 -0.3343 -0.2305
 7858SOL     OW34042   3.949   4.786   1.250  0.2833  0.5229 -1.0131
 7858SOL    HW134043   3.858   4.817   1.275  0.1874  0.4409 -1.2589
 7858SOL    HW234044   4.006   4.864   1.227  1.1458  0.8334  1.9693
 7859SOL     OW34045   1.213   7.726   4.130 -0.5492 -0.4980  0.8514
 7859SOL    HW134046   1.135   7.702   4.188 -0.9921 -2.5584 -0.5097
 7859SOL    HW234047   1.268   7.644   4.112 -0.1871  0.1684 -1.2608
 7860SOL     OW34048   4.503   1.690   2.986 -0.4152 -0.3982 -0.8022
 7860SOL    HW134049   4.527   1.722   2.894  0.1062  0.8587 -0.2382
 7860SOL    HW234050   4.406   1.708   3.003 -1.1409 -2.9617 -2.0475
 7861SOL     OW34051   5.381   9.343   1.798  0.1608  0.8869  1.1143
 7861SOL    HW134052   5.466   9.304   1.835 -1.1885 -0.2716  3.0504
 7861SOL    HW234053   5.366   9.433   1.837 -0.4910  0.2751  2.3229
 7862SOL     OW34054   0.993   9.384   2.072 -0.2544 -0.3208 -0.4138
 7862SOL    HW134055   0.974   9.408   1.976 -0.1689  0.2770 -0.2868
 7862SOL    HW234056   0.909   9.393   2.126 -0.0297  0.5310 -0.2020
 7863SOL     OW34057   4.304   3.932   1.231 -0.6909 -0.0754  0.0500
 7863SOL    HW134058   4.256   4.000   1.285 -0.8038 -0.1536  0.0467
 7863SOL    HW234059   4.340   3.975   1.148 -2.3077 -0.4097 -0.8470
 7864SOL     OW34060   1.481   1.501   0.007 -0.4681  0.1028 -0.4414
 7864SOL    HW134061   1.499   1.555   0.089  1.7897 -1.1527 -0.0671
 7864SOL    HW234062   1.547   1.426   0.001 -1.9225 -1.0792 -2.3054
 7865SOL     OW34063   0.072   8.027   2.420 -0.0863  0.2189 -0.5254
 7865SOL    HW134064   0.058   7.941   2.371 -1.9031  0.4810 -0.5245
 7865SOL    HW234065  -0.004   8.041   2.484  1.8789  0.2339  1.8752
 7866SOL     OW34066   1.635   7.064   2.042  0.1433  0.2028  0.5111
 7866SOL    HW134067   1.544   7.081   2.080 -0.3168  1.6626 -1.2075
 7866SOL    HW234068   1.651   6.965   2.039 -2.4855 -0.2162 -1.6639
 7867SOL     OW34069   1.394   3.081   0.783  0.3447 -0.5210 -0.0470
 7867SOL    HW134070   1.370   2.984   0.792 -1.2261 -0.1302  0.1342
 7867SOL    HW234071   1.324   3.137   0.828  0.6159  0.7562 -1.1977
 7868SOL     OW34072   7.827   8.844   4.671  0.0628 -0.1615  0.0165
 7868SOL    HW134073   7.865   8.882   4.755  1.7349  1.0189 -1.2390
 7868SOL    HW234074   7.745   8.895   4.645 -0.1569 -0.1943  0.6273
 7869SOL     OW34075   7.693   6.635   3.599 -0.6529  0.7696 -0.3537
 7869SOL    HW134076   7.668   6.727   3.571 -0.0173  0.7243 -1.1001
 7869SOL    HW234077   7.690   6.628   3.699  0.9038  2.0764 -0.1870
 7870SOL     OW34078   7.614   8.856   1.537 -0.2616 -0.3969  0.4924
 7870SOL    HW134079   7.650   8.921   1.471  1.1882 -2.0039 -0.3500
 7870SOL    HW234080   7.666   8.863   1.623 -1.0836  0.5706  0.9176
 7871SOL     OW34081   3.247   0.134   4.715 -0.0389 -0.4045  0.4241
 7871SOL    HW134082   3.302   0.084   4.782  2.1110 -1.9943 -2.3801
 7871SOL    HW234083   3.180   0.072   4.675 -0.7723  0.3166  0.5424
 7872SOL     OW34084   3.373   4.336   0.536  0.0993 -0.4225  0.1376
 7872SOL    HW134085   3.410   4.243   0.538 -0.0610 -0.5388 -1.8540
 7872SOL    HW234086   3.284   4.336   0.490 -2.2481 -0.0648  4.4216
 7873SOL     OW34087   9.102   7.815   4.245  0.0482  0.5201 -0.9220
 7873SOL    HW134088   9.112   7.719   4.222  0.3105  0.5421 -0.8944
 7873SOL    HW234089   9.046   7.825   4.327 -0.0999  0.4005 -1.0074
 7874SOL     OW34090   1.439   9.546   0.174 -0.1402  0.0126  0.4026
 7874SOL    HW134091   1.444   9.646   0.163 -1.3342  0.0942  0.5978
 7874SOL    HW234092   1.515   9.504   0.124 -0.8342  0.8886 -1.4408
 7875SOL     OW34093   7.692   9.822   2.619  0.0397 -0.0614 -0.2409
 7875SOL    HW134094   7.687   9.737   2.672  0.3124  0.1757  0.1666
 7875SOL    HW234095   7.692   9.800   2.522 -1.8257 -0.4289 -0.1663
 7876SOL     OW34096   1.763   2.222   0.074  0.1492  0.2076 -0.2901
 7876SOL    HW134097   1.774   2.226   0.173 -0.9904 -0.5655 -0.1169
 7876SOL    HW234098   1.719   2.306   0.041 -0.3404  0.0629 -0.0122
 7877SOL     OW34099   4.280   7.438   1.305 -0.6508  0.0057  0.0430
 7877SOL    HW134100   4.261   7.529   1.342  0.8414  0.5903 -0.5745
 7877SOL    HW234101   4.275   7.441   1.206  2.4347  0.1851 -0.1519
 7878SOL     OW34102   9.494   0.320   3.252  0.0553 -0.4147 -0.7228
 7878SOL    HW134103   9.412   0.263   3.256  0.0716 -0.3471  1.0362
 7878SOL    HW234104   9.502   0.360   3.160 -0.8280 -1.9321 -1.4877
 7879SOL     OW34105   1.956   3.701   2.681 -0.1818 -0.0915 -0.3551
 7879SOL    HW134106   1.965   3.740   2.773 -3.0243  1.2603 -0.6194
 7879SOL    HW234107   1.981   3.770   2.613  0.3771 -0.5998 -0.6737
 7880SOL     OW34108   4.235   1.974   2.158 -0.3347  0.3496 -0.6994
 7880SOL    HW134109   4.191   1.909   2.220 -0.9034  1.1252 -0.2872
 7880SOL    HW234110   4.288   1.924   2.090 -2.7497 -0.6642 -1.9015
 7881SOL     OW34111   5.899   8.065   3.530  0.1842  0.1779  0.0836
 7881SOL    HW134112   5.952   8.091   3.611  2.2739 -3.9429  0.1528
 7881SOL    HW234113   5.806   8.042   3.556 -0.5335  3.4076  0.5751
 7882SOL     OW34114   2.003   5.895   4.510 -0.2051  0.6517  0.2004
 7882SOL    HW134115   1.928   5.953   4.477  0.2737  1.1313 -0.0578
 7882SOL    HW234116   1.981   5.799   4.493 -0.6582  0.8054 -0.0858
 7883SOL     OW34117   7.866   9.018   0.905  0.6910  0.4063 -0.2739
 7883SOL    HW134118   7.795   8.948   0.896  1.2184  0.0775 -2.0481
 7883SOL    HW234119   7.825   9.109   0.895  0.4500  0.2360 -0.8447
 7884SOL     OW34120   2.706   6.653   0.718  0.4634  0.3906 -0.3598
 7884SOL    HW134121   2.680   6.573   0.664  0.9067  1.3957 -2.0845
 7884SOL    HW234122   2.705   6.629   0.815  0.6578 -1.7192 -0.8598
 7885SOL     OW34123   0.599   9.371   2.005 -0.5450  0.3919 -0.1890
 7885SOL    HW134124   0.627   9.347   2.098 -2.9847  1.1511  0.7756
 7885SOL    HW234125   0.647   9.313   1.940  0.5057 -0.7840  1.6000
 7886SOL     OW34126   2.807   4.893   3.701 -0.1472 -0.9509 -0.0289
 7886SOL    HW134127   2.886   4.849   3.745  0.1346  0.9555  1.4650
 7886SOL    HW234128   2.754   4.942   3.770 -1.7999 -0.9513 -1.2713
 7887SOL     OW34129   0.741   9.195   1.846 -0.1280 -0.0074 -0.3867
 7887SOL    HW134130   0.772   9.210   1.752 -0.2129  0.0817 -0.3997
 7887SOL    HW234131   0.683   9.114   1.850  1.6823 -1.3390 -0.0398
 7888SOL     OW34132   2.673   5.800   0.983  0.0649 -0.1964 -0.0912
 7888SOL    HW134133   2.591   5.785   0.927 -0.1041 -0.4370  0.2158
 7888SOL    HW234134   2.714   5.711   1.004  1.6046  0.0277 -2.0166
 7889SOL     OW34135   2.833   4.576   0.926  0.4784  0.1392  0.0539
 7889SOL    HW134136   2.866   4.513   0.856 -2.7854 -0.4751 -1.0059
 7889SOL    HW234137   2.766   4.531   0.984  0.4054  1.7461  1.2933
 7890SOL     OW34138   7.623   9.209   1.934 -0.9725  0.4286 -0.0233
 7890SOL    HW134139   7.626   9.250   2.025  0.3208 -2.8889  1.5218
 7890SOL    HW234140   7.560   9.132   1.935  1.1819 -1.4101 -1.1085
 7891SOL     OW34141   2.633   2.253   3.590 -0.1464  0.0182  0.4359
 7891SOL    HW134142   2.586   2.309   3.522  1.0391  0.6608  0.1266
 7891SOL    HW234143   2.723   2.227   3.554 -1.7137 -4.4178 -0.6199
 7892SOL     OW34144   3.016   4.923   3.352 -0.5524  0.0510  0.5464
 7892SOL    HW134145   3.053   4.831   3.365  0.8330  0.4096 -0.7502
 7892SOL    HW234146   2.923   4.917   3.316 -1.0032 -0.8448  1.8426
 7893SOL     OW34147   3.112   2.394   0.999  0.0526 -0.4779 -0.1288
 7893SOL    HW134148   3.136   2.380   0.903  0.8816  0.9120 -0.1461
 7893SOL    HW234149   3.017   2.424   1.006 -0.4524 -1.9653 -0.3876
 7894SOL     OW34150   8.406   8.596   1.891  0.2340 -0.0966 -0.6732
 7894SOL    HW134151   8.474   8.525   1.909 -0.5849 -0.6383  0.3244
 7894SOL    HW234152   8.444   8.686   1.915  0.2689 -0.4963  0.8493
 7895SOL     OW34153   2.501   6.596   1.738  0.5650  0.1566  0.9849
 7895SOL    HW134154   2.491   6.621   1.835  0.7890  1.2034  0.7437
 7895SOL    HW234155   2.560   6.663   1.693  1.4267 -0.9913  0.3914
 7896SOL     OW34156   8.641   6.254   2.043 -0.2454 -0.2729  0.2596
 7896SOL    HW134157   8.591   6.174   2.008 -0.2136 -0.3056  0.2891
 7896SOL    HW234158   8.701   6.289   1.971 -1.1971  0.4941 -0.1840
 7897SOL     OW34159   2.055   4.073   2.343  0.0329  0.2813 -0.0365
 7897SOL    HW134160   1.986   4.145   2.343  0.2075  0.4472  0.3172
 7897SOL    HW234161   2.110   4.079   2.260 -1.1594 -0.5958 -0.9071
 7898SOL     OW34162   6.635   0.002   0.016  0.0044  0.6947 -0.0000
 7898SOL    HW134163   6.648   0.095  -0.018  0.3841  0.5977 -0.1232
 7898SOL    HW234164   6.538  -0.023   0.010  0.1050  0.5973 -1.2117
 7899SOL     OW34165   1.594   8.173   4.670  0.3209  0.5182 -0.2275
 7899SOL    HW134166   1.591   8.272   4.688 -0.3444  0.5136 -0.2989
 7899SOL    HW234167   1.540   8.153   4.589  2.0292  0.3311 -1.3565
 7900SOL     OW34168   1.846   2.970   3.527 -0.4749 -0.1539 -0.4428
 7900SOL    HW134169   1.774   2.964   3.457 -1.0614  1.6588 -0.0354
 7900SOL    HW234170   1.804   2.991   3.615  0.2774 -2.2555  0.4452
 7901SOL     OW34171   2.519   3.772   0.597 -0.1329 -0.1869  0.0998
 7901SOL    HW134172   2.424   3.803   0.588 -0.7617 -1.3410  2.3448
 7901SOL    HW234173   2.520   3.674   0.615  1.5729 -0.3929 -0.9749
 7902SOL     OW34174   2.769   2.877   4.352  0.3903  0.3195 -0.1038
 7902SOL    HW134175   2.679   2.853   4.388  1.0282  1.6671  2.4881
 7902SOL    HW234176   2.836   2.810   4.382  0.4646 -0.0509 -1.0781
 7903SOL     OW34177   2.795   7.960   4.110 -0.5048 -0.2331 -0.3083
 7903SOL    HW134178   2.740   8.030   4.065 -0.5541 -0.3029 -0.3579
 7903SOL    HW234179   2.850   7.912   4.042  0.4038  0.5326 -0.1241
 7904SOL     OW34180   2.839   8.152   1.661 -0.0571  0.1292 -0.4016
 7904SOL    HW134181   2.858   8.112   1.571 -0.4802  1.1851 -0.9663
 7904SOL    HW234182   2.900   8.230   1.676 -0.2466  0.1864  0.0716
 7905SOL     OW34183   4.827   0.270   4.333  0.4415 -0.5581 -0.1901
 7905SOL    HW134184   4.926   0.275   4.345  0.3778 -2.3508  1.4254
 7905SOL    HW234185   4.806   0.247   4.238  1.6107 -0.9635 -0.3581
 7906SOL     OW34186   0.206   4.252   3.009  0.2484  0.0506 -0.1110
 7906SOL    HW134187   0.166   4.192   3.078  1.9255 -0.7893  0.1553
 7906SOL    HW234188   0.148   4.251   2.927 -0.3615 -1.0244  0.3202
 7907SOL     OW34189   3.447   2.470   3.591  0.2839 -0.2011  0.5072
 7907SOL    HW134190   3.408   2.384   3.557 -0.9727  0.2008  0.8944
 7907SOL    HW234191   3.415   2.545   3.534  0.2231  0.1778  1.0416
 7908SOL     OW34192   1.534   7.259   3.543 -0.4536  0.0337  0.1013
 7908SOL    HW134193   1.563   7.176   3.495  1.2398  0.8339 -0.3083
 7908SOL    HW234194   1.555   7.251   3.640 -0.8253 -0.2414  0.1609
 7909SOL     OW34195   0.297   6.497   3.854  0.6900  0.7156  0.4161
 7909SOL    HW134196   0.243   6.566   3.806 -0.6562  0.3912  1.4505
 7909SOL    HW234197   0.303   6.520   3.951 -1.6254 -1.7370  1.2001
 7910SOL     OW34198   0.794   1.036   4.333  0.7346 -0.2597 -0.3118
 7910SOL    HW134199   0.829   0.945   4.355  1.4579  0.0562 -0.1259
 7910SOL    HW234200   0.871   1.095   4.306  0.3154  0.3942 -0.0816
 7911SOL     OW34201   9.732   9.411   1.137 -0.3963 -0.0303 -0.6036
 7911SOL    HW134202   9.677   9.480   1.090  0.3388  1.4670  0.6792
 7911SOL    HW234203   9.672   9.339   1.173 -1.0773 -0.5397 -2.6911
 7912SOL     OW34204   2.193   2.184   0.665  0.2135  0.0587 -0.4696
 7912SOL    HW134205   2.112   2.207   0.720  0.6913 -0.8918  0.6430
 7912SOL    HW234206   2.263   2.144   0.723  1.0224 -0.2902 -1.6576
 7913SOL     OW34207   9.065   9.387   3.648 -0.0046  0.2622 -0.1151
 7913SOL    HW134208   9.127   9.354   3.578 -1.8564 -1.9507 -0.7579
 7913SOL    HW234209   8.979   9.416   3.605  0.0611  2.0161  0.8956
 7914SOL     OW34210   3.980   7.953   3.888 -0.1476  0.2686 -0.0653
 7914SOL    HW134211   4.038   7.942   3.969 -1.8331 -1.8266  0.9169
 7914SOL    HW234212   4.013   7.892   3.815  0.5938  1.1992 -0.5133
 7915SOL     OW34213   2.511   1.160   1.991 -0.5980 -0.5204  0.2115
 7915SOL    HW134214   2.458   1.143   1.908 -0.3083 -0.4696  0.0153
 7915SOL    HW234215   2.601   1.197   1.967 -1.0819  0.9840  0.6149
 7916SOL     OW34216   3.961   8.135   0.736  0.8460 -0.0107 -0.3881
 7916SOL    HW134217   4.025   8.184   0.795  0.1251 -1.4586  1.6502
 7916SOL    HW234218   4.012   8.088   0.664  1.6337  2.7250 -1.6845
 7917SOL     OW34219   2.079   4.677   1.428 -0.0494 -0.0942  0.2635
 7917SOL    HW134220   2.112   4.676   1.334  0.2404 -2.1777  0.3729
 7917SOL    HW234221   1.983   4.649   1.430  0.7454 -2.9476  0.8418
 7918SOL     OW34222   2.991   3.310   4.612 -0.6407  0.4472 -0.3595
 7918SOL    HW134223   3.050   3.298   4.532  0.4359 -0.5187  0.5605
 7918SOL    HW234224   2.933   3.230   4.623 -0.9020  0.6488 -0.2515
 7919SOL     OW34225   0.202   7.889   3.505  0.2788 -0.0222 -0.2138
 7919SOL    HW134226   0.273   7.890   3.575  0.0607  1.2479 -0.0032
 7919SOL    HW234227   0.219   7.813   3.442  1.6975  0.1285 -0.0363
 7920SOL     OW34228   9.020   9.599   3.134  0.3804 -0.1490 -0.2369
 7920SOL    HW134229   8.983   9.671   3.192  1.4043 -0.8415  1.3021
 7920SOL    HW234230   8.964   9.517   3.143  0.4716 -0.2189 -0.3063
 7921SOL     OW34231   4.068   9.109   2.375  0.0685  0.2062  0.5867
 7921SOL    HW134232   4.005   9.051   2.323  0.3684  0.4346 -0.0292
 7921SOL    HW234233   4.144   9.054   2.408 -0.2432  0.0131  0.9927
 7922SOL     OW34234   6.675   8.667   1.867  0.0109 -0.4380  0.4337
 7922SOL    HW134235   6.747   8.626   1.812  0.1078 -0.0136  0.2453
 7922SOL    HW234236   6.672   8.622   1.957  0.1142 -0.8542  0.2299
 7923SOL     OW34237   1.072   6.068   4.002  0.3887 -0.0167  0.0066
 7923SOL    HW134238   1.019   6.030   3.926 -0.5619  0.1192  0.5895
 7923SOL    HW234239   1.058   6.011   4.083  0.0069  0.8195  0.5342
 7924SOL     OW34240   5.276   7.242   1.887 -0.3977  0.0400  0.3963
 7924SOL    HW134241   5.223   7.168   1.845 -1.2971  1.2308 -0.6004
 7924SOL    HW234242   5.269   7.235   1.987 -1.7034 -0.3418  0.2843
 7925SOL     OW34243   9.629   8.626   2.182 -0.1247 -0.0165 -0.6573
 7925SOL    HW134244   9.717   8.604   2.225 -0.2365  0.3257 -0.2435
 7925SOL    HW234245   9.640   8.634   2.083 -0.1343 -2.2144 -0.8611
 7926SOL     OW34246   6.259   9.067   2.905 -0.4441  0.0178  0.1268
 7926SOL    HW134247   6.242   9.046   3.002  0.1797 -2.0678 -0.1841
 7926SOL    HW234248   6.175   9.050   2.853 -0.1356 -1.1034 -0.0210
 7927SOL     OW34249   0.480   4.449   3.765 -0.4608  0.0335 -0.1966
 7927SOL    HW134250   0.493   4.396   3.681  1.0758 -1.1589  0.7462
 7927SOL    HW234251   0.567   4.493   3.790 -0.2883 -1.3709  1.8848
 7928SOL     OW34252   2.280   3.704   3.436 -0.5501 -0.2742 -0.5882
 7928SOL    HW134253   2.307   3.729   3.343 -1.5991 -0.5057 -0.9634
 7928SOL    HW234254   2.313   3.612   3.457  0.5705  0.1704 -0.3523
 7929SOL     OW34255   5.638   6.738   2.857  0.1461  0.1738  0.0574
 7929SOL    HW134256   5.602   6.651   2.822  0.4504  0.9115 -2.1694
 7929SOL    HW234257   5.694   6.781   2.787  1.3556  1.4004  1.7419
 7930SOL     OW34258   0.152   9.260   0.642  0.0581 -0.1481  0.1437
 7930SOL    HW134259   0.113   9.310   0.720 -0.5170  1.7433 -1.3218
 7930SOL    HW234260   0.224   9.199   0.675 -0.4359  0.3407  2.2151
 7931SOL     OW34261   4.618   5.291   1.621 -0.0131  0.3185 -0.4705
 7931SOL    HW134262   4.598   5.287   1.523 -1.0198  0.3161 -0.2662
 7931SOL    HW234263   4.628   5.386   1.649  1.5354  0.2818 -0.8141
 7932SOL     OW34264   9.555   7.071   3.298  0.0999  0.5152 -0.0885
 7932SOL    HW134265   9.594   7.017   3.224 -2.1324  0.5894 -1.3851
 7932SOL    HW234266   9.456   7.056   3.301 -0.5224  4.1369 -0.2057
 7933SOL     OW34267   2.936   8.449   4.415  0.0869 -0.1620  0.0798
 7933SOL    HW134268   2.964   8.543   4.397  0.1296 -0.0819  0.5598
 7933SOL    HW234269   2.837   8.442   4.406  0.2695 -0.4935 -1.8250
 7934SOL     OW34270   1.357   7.280   3.829  0.3061 -0.2752  0.2411
 7934SOL    HW134271   1.449   7.242   3.826  0.7952  0.9003  0.0578
 7934SOL    HW234272   1.361   7.376   3.857 -0.5907  0.6099 -2.5157
 7935SOL     OW34273   0.026   3.996   1.424 -0.1453 -0.2346 -0.0382
 7935SOL    HW134274  -0.001   3.904   1.453 -1.5983  0.6680  1.5557
 7935SOL    HW234275   0.101   4.029   1.481 -0.3614 -0.0080  0.1179
 7936SOL     OW34276   3.049   5.439   1.714  0.0521  0.4924 -0.0722
 7936SOL    HW134277   3.097   5.518   1.676  0.3669  0.0880 -0.5034
 7936SOL    HW234278   2.993   5.396   1.643 -0.6802  0.7475  0.3357
 7937SOL     OW34279   5.346   0.180   4.403 -0.2111  0.8570 -0.6694
 7937SOL    HW134280   5.399   0.116   4.347  0.5222  0.8770 -0.0269
 7937SOL    HW234281   5.316   0.133   4.486 -0.2414  1.1581 -0.5110
 7938SOL     OW34282   0.172   5.682   4.636 -0.3902 -0.4012  0.3621
 7938SOL    HW134283   0.115   5.600   4.628 -0.4561 -0.4871  1.6246
 7938SOL    HW234284   0.260   5.666   4.592 -1.7464  0.1299 -2.6726
 7939SOL     OW34285   1.890   9.291   3.354 -0.5929  0.3768  0.1023
 7939SOL    HW134286   1.802   9.247   3.372 -0.0097 -0.6327  0.5432
 7939SOL    HW234287   1.920   9.268   3.261 -0.9399  0.9675 -0.1544
 7940SOL     OW34288   3.020   8.733   2.764 -0.3722  0.6446  0.8693
 7940SOL    HW134289   3.087   8.807   2.772 -2.2535  2.2726  2.0459
 7940SOL    HW234290   3.068   8.645   2.760  1.8315  1.7724  1.6355
 7941SOL     OW34291   1.840   0.284   1.129  0.3023  0.2350 -0.1159
 7941SOL    HW134292   1.748   0.307   1.162  0.2057 -0.1302 -0.1214
 7941SOL    HW234293   1.833   0.230   1.045  0.5072 -0.2194  0.1570
 7942SOL     OW34294   3.810   8.595   0.882  0.6250  0.2590 -0.0211
 7942SOL    HW134295   3.759   8.567   0.800 -0.2248  1.6899 -0.0160
 7942SOL    HW234296   3.752   8.655   0.938  2.0195  1.2260  0.4234
 7943SOL     OW34297   8.706   9.202   2.085 -0.4406  0.3783  0.0466
 7943SOL    HW134298   8.614   9.224   2.052 -0.3758 -0.7155 -0.8452
 7943SOL    HW234299   8.766   9.183   2.008  0.3334  0.2788  0.6710
 7944SOL     OW34300   0.273   4.853   2.280 -0.1143 -0.0934  0.2602
 7944SOL    HW134301   0.362   4.887   2.249 -0.1478  0.7049  1.0189
 7944SOL    HW234302   0.232   4.920   2.342 -0.2992 -1.4135  1.5757
 7945SOL     OW34303   7.708   9.573   2.773  0.0718  0.7619 -0.1887
 7945SOL    HW134304   7.660   9.502   2.824 -0.2068  1.1688  0.1258
 7945SOL    HW234305   7.784   9.608   2.828 -0.2349  1.2080 -0.0428
 7946SOL     OW34306   1.618   4.274   0.372 -0.2775 -0.6499 -0.0362
 7946SOL    HW134307   1.545   4.292   0.437  0.6436 -0.7417  1.0523
 7946SOL    HW234308   1.658   4.184   0.391  0.5916 -0.2921 -0.1496
 7947SOL     OW34309   3.453   2.337   1.920  0.4031  0.6170 -0.1928
 7947SOL    HW134310   3.469   2.239   1.904 -0.6612  0.4355 -0.1628
 7947SOL    HW234311   3.502   2.366   2.002 -1.2841 -0.4675  1.2371
 7948SOL     OW34312   1.148   6.757   3.109  0.1449 -0.4571  0.1615
 7948SOL    HW134313   1.148   6.657   3.102  0.2059 -0.6123  2.2068
 7948SOL    HW234314   1.054   6.790   3.108  0.0280 -0.7214  1.8368
 7949SOL     OW34315   1.434   7.666   4.699  0.2214  0.6762 -0.3026
 7949SOL    HW134316   1.529   7.683   4.724  0.6757 -1.7872 -0.2120
 7949SOL    HW234317   1.384   7.631   4.778  0.2734 -1.8144 -1.3134
 7950SOL     OW34318   2.681   5.621   4.424 -0.4345 -0.7918 -0.4189
 7950SOL    HW134319   2.676   5.716   4.390  0.5325 -0.7823 -0.5522
 7950SOL    HW234320   2.628   5.613   4.508  0.6228  0.2090  0.3541
 7951SOL     OW34321   8.908   7.369   2.392  0.3959  0.0126  0.2631
 7951SOL    HW134322   8.986   7.341   2.448  0.9747  1.7584  0.3508
 7951SOL    HW234323   8.940   7.392   2.300 -0.0908  0.3304  0.1727
 7952SOL     OW34324   8.199   0.167   0.953 -0.1821 -0.3540 -0.0751
 7952SOL    HW134325   8.134   0.217   0.896  1.3349  0.4691 -1.0982
 7952SOL    HW234326   8.173   0.070   0.955 -0.4845 -0.3237 -1.8330
 7953SOL     OW34327   3.282   0.889   4.255 -0.0449  0.3096 -0.5392
 7953SOL    HW134328   3.201   0.846   4.215 -2.0075 -0.4485  3.9334
 7953SOL    HW234329   3.269   0.988   4.256  0.6314  0.4589 -2.8752
 7954SOL     OW34330   8.599   9.570   0.136 -0.2843  0.6089  0.1329
 7954SOL    HW134331   8.658   9.536   0.209 -0.4831 -1.0622 -0.4659
 7954SOL    HW234332   8.527   9.628   0.175  0.4183  0.8299  1.1075
 7955SOL     OW34333   2.380   2.068   2.912  0.1205  0.1497  0.9752
 7955SOL    HW134334   2.351   2.102   2.823  0.3778 -1.0649  0.4198
 7955SOL    HW234335   2.459   2.008   2.901 -0.4325 -0.7640  1.9208
 7956SOL     OW34336   3.163   6.074   3.506 -0.3483  0.5772 -0.3711
 7956SOL    HW134337   3.254   6.052   3.540 -0.2844 -1.1260 -1.5712
 7956SOL    HW234338   3.100   6.000   3.530 -0.7626  0.3562 -2.0689
 7957SOL     OW34339   1.313   3.715   2.033  0.2416 -0.4719 -0.0019
 7957SOL    HW134340   1.322   3.813   2.015  1.1092 -0.5879 -0.1910
 7957SOL    HW234341   1.281   3.701   2.127  0.1130 -0.0118  0.0244
 7958SOL     OW34342   1.820   1.946   4.189  0.1687  0.0057 -0.2885
 7958SOL    HW134343   1.734   1.997   4.179  1.0870  1.1049 -3.1301
 7958SOL    HW234344   1.808   1.854   4.152 -0.0536 -0.2068  0.2921
 7959SOL     OW34345   3.692   9.664   0.257 -0.7750 -0.6343 -0.2621
 7959SOL    HW134346   3.697   9.633   0.352  0.2355  1.2664  0.3137
 7959SOL    HW234347   3.776   9.711   0.232 -2.2399  1.5930 -1.1460
 7960SOL     OW34348   1.356   5.057   2.729 -0.3799 -0.2480  0.0053
 7960SOL    HW134349   1.286   5.044   2.659  0.2001 -0.6065 -0.5209
 7960SOL    HW234350   1.425   4.984   2.720  0.3005  0.3682  0.2096
 7961SOL     OW34351   7.698   9.829   0.113  0.1789 -0.2132  0.1700
 7961SOL    HW134352   7.679   9.810   0.017  0.4424 -0.1822  0.1134
 7961SOL    HW234353   7.622   9.797   0.169 -0.5890  0.9524 -0.1714
 7962SOL     OW34354   4.217   3.574   2.497 -0.7101 -0.2534  0.4914
 7962SOL    HW134355   4.297   3.544   2.445 -0.4032  3.8112 -1.5611
 7962SOL    HW234356   4.244   3.599   2.589  0.3392  0.6539 -0.0544
 7963SOL     OW34357   2.328   3.844   0.077  0.5165  0.1993 -0.7068
 7963SOL    HW134358   2.369   3.779   0.140 -0.2075 -0.5269 -0.9832
 7963SOL    HW234359   2.246   3.804   0.035 -0.2296  1.4562 -0.5016
 7964SOL     OW34360   3.869   3.659   2.410 -0.3540 -0.1630  0.7259
 7964SOL    HW134361   3.920   3.573   2.415 -0.7390 -0.4613 -0.3590
 7964SOL    HW234362   3.932   3.736   2.416  0.0992 -0.5252  0.6348
 7965SOL     OW34363   4.115   7.952   3.177  0.0903 -0.1682 -0.2066
 7965SOL    HW134364   4.182   8.009   3.129 -0.5711  0.9231  0.1571
 7965SOL    HW234365   4.129   7.962   3.276 -0.3959 -0.1915 -0.1374
 7966SOL     OW34366   9.497   0.997   1.593  0.1854  0.0076 -0.0690
 7966SOL    HW134367   9.411   0.990   1.644  0.6128 -3.1121  0.3470
 7966SOL    HW234368   9.483   0.961   1.500  1.0358 -0.5747  0.0219
 7967SOL     OW34369   4.617   9.058   1.670  0.4414 -0.1304 -0.2602
 7967SOL    HW134370   4.639   9.061   1.572 -0.8195  2.0316 -0.5047
 7967SOL    HW234371   4.598   9.150   1.703  1.3575 -0.7576  2.1790
 7968SOL     OW34372   1.954   1.561   0.312 -0.0338  1.0125  0.0166
 7968SOL    HW134373   2.054   1.565   0.313 -0.0641  1.4682  2.7089
 7968SOL    HW234374   1.923   1.476   0.355 -0.8062  0.2169 -2.0435
 7969SOL     OW34375   3.233   5.608   4.308 -0.4727 -0.0023  0.3713
 7969SOL    HW134376   3.326   5.590   4.275 -0.4717 -0.8318  0.8229
 7969SOL    HW234377   3.203   5.532   4.365 -1.0792  0.6910  0.9786
 7970SOL     OW34378   2.372   7.904   4.116  0.3388  0.4912  0.6729
 7970SOL    HW134379   2.382   7.805   4.126  0.9380  0.3260 -1.2261
 7970SOL    HW234380   2.460   7.948   4.127  0.1784  0.7432  0.9298
 7971SOL     OW34381   9.573   0.599   2.663  0.3939  0.2347  0.4411
 7971SOL    HW134382   9.626   0.538   2.605 -0.5278 -0.9238  0.8050
 7971SOL    HW234383   9.630   0.676   2.691  1.5314 -0.3971 -0.1022
 7972SOL     OW34384   2.350   8.866   2.452 -0.0272  0.4022 -0.1124
 7972SOL    HW134385   2.396   8.824   2.530 -1.9726 -0.5363  0.5358
 7972SOL    HW234386   2.251   8.862   2.464 -0.3576  0.4894 -2.4994
 7973SOL     OW34387   4.090   4.362   0.456 -0.1371 -0.6059 -0.6417
 7973SOL    HW134388   4.073   4.459   0.439  1.5701  0.4979  3.3463
 7973SOL    HW234389   4.181   4.350   0.497 -0.7974 -3.7515  0.0585
 7974SOL     OW34390   9.863   6.915   2.227 -0.6228  0.6618 -0.0915
 7974SOL    HW134391   9.903   6.993   2.180  0.0794  0.5079  0.2396
 7974SOL    HW234392   9.784   6.946   2.281 -1.4703  0.8266 -1.3899
 7975SOL     OW34393   7.544   6.439   1.879  0.1809  0.0863 -0.8935
 7975SOL    HW134394   7.482   6.391   1.941 -0.8678  1.8296 -0.5427
 7975SOL    HW234395   7.500   6.449   1.790  0.5046  0.1191 -1.0480
 7976SOL     OW34396   8.545   6.846   4.635 -0.3523 -0.2504  0.5157
 7976SOL    HW134397   8.542   6.940   4.599 -0.1170 -0.4742 -0.0924
 7976SOL    HW234398   8.581   6.848   4.729  0.8908  0.1475  0.0488
 7977SOL     OW34399   2.147   7.214   1.179  0.2335  0.0165 -0.1401
 7977SOL    HW134400   2.192   7.126   1.195  0.1644  0.0829  0.4216
 7977SOL    HW234401   2.109   7.216   1.087  2.1837  0.3059 -0.9660
 7978SOL     OW34402   0.809   2.593   0.911 -0.1601 -0.4645 -0.2565
 7978SOL    HW134403   0.726   2.537   0.905  0.7530 -1.8056 -0.7900
 7978SOL    HW234404   0.830   2.610   1.007 -1.3777  0.3998 -0.1322
 7979SOL     OW34405   9.208   8.445   3.224  0.6069  0.8362 -0.0265
 7979SOL    HW134406   9.170   8.412   3.310  0.3915 -1.1961 -0.8933
 7979SOL    HW234407   9.137   8.444   3.153  0.3339  4.0319  0.1090
 7980SOL     OW34408   2.713   8.705   0.032 -0.7823 -0.1418 -0.3795
 7980SOL    HW134409   2.791   8.752   0.073 -1.5978  1.8916 -1.1340
 7980SOL    HW234410   2.652   8.771  -0.012 -3.9589 -1.4511  1.8527
 7981SOL     OW34411   4.236   1.565   2.455  0.1923  0.2100 -0.1818
 7981SOL    HW134412   4.306   1.513   2.505 -0.0055 -0.1289 -0.2532
 7981SOL    HW234413   4.272   1.655   2.431 -0.1466  0.8615  1.6635
 7982SOL     OW34414   4.439   0.102   1.550 -0.1697  0.7094  0.2746
 7982SOL    HW134415   4.492   0.054   1.620 -0.9973 -1.5875 -0.6058
 7982SOL    HW234416   4.366   0.154   1.594 -0.8355 -0.9118  1.1388
 7983SOL     OW34417   3.782   2.790   2.043 -0.2672  0.3117 -0.4827
 7983SOL    HW134418   3.765   2.829   1.953  1.1491  3.1360  0.4130
 7983SOL    HW234419   3.875   2.755   2.048 -1.0392 -1.8896 -0.7767
 7984SOL     OW34420   1.919   2.304   3.128 -0.3542  0.2084 -0.2850
 7984SOL    HW134421   1.885   2.248   3.052  0.4594 -1.1347  0.3338
 7984SOL    HW234422   1.882   2.269   3.214 -1.0800  1.5803 -0.0161
 7985SOL     OW34423   1.745   2.750   0.039  0.2150 -0.5812 -0.0196
 7985SOL    HW134424   1.816   2.680   0.033 -1.0172 -1.8090 -0.4274
 7985SOL    HW234425   1.695   2.740   0.125 -0.8511 -1.0716 -0.6874
 7986SOL     OW34426   0.382   0.707   4.775 -0.3369 -0.5443  0.1589
 7986SOL    HW134427   0.414   0.764   4.851 -1.2091 -0.1357  0.2257
 7986SOL    HW234428   0.352   0.619   4.810 -2.3091  0.2513  0.5115
 7987SOL     OW34429   7.481   9.707   3.024  0.6177  0.1332 -0.8392
 7987SOL    HW134430   7.419   9.648   2.972  0.1236 -0.3264  0.2368
 7987SOL    HW234431   7.478   9.799   2.987  0.3267 -0.1998 -1.6663
 7988SOL     OW34432   1.879   3.173   0.469  0.4375  0.6721  0.1319
 7988SOL    HW134433   1.793   3.185   0.420  0.8331  0.6244 -0.5842
 7988SOL    HW234434   1.861   3.156   0.566 -0.3414  1.0194  0.0493
 7989SOL     OW34435   4.859   6.955   3.395  0.4953 -0.2268  0.6967
 7989SOL    HW134436   4.889   6.968   3.301 -1.3334  0.2093  0.1512
 7989SOL    HW234437   4.925   6.996   3.458  2.3162 -1.5328 -0.3306
 7990SOL     OW34438   9.870   5.040   4.308  0.8321  0.0576 -0.1291
 7990SOL    HW134439   9.925   4.974   4.257 -0.6789  0.1165 -1.8600
 7990SOL    HW234440   9.805   4.991   4.366  0.7410  0.0153 -0.2684
 7991SOL     OW34441   2.359   5.825   2.783  0.1185 -0.1253  0.0643
 7991SOL    HW134442   2.352   5.911   2.732 -1.4718 -1.2395 -1.6515
 7991SOL    HW234443   2.453   5.792   2.777  0.4828  0.9115 -0.2343
 7992SOL     OW34444   1.900   4.905   1.617 -0.2632 -0.2312  0.6420
 7992SOL    HW134445   1.997   4.897   1.640  0.2140 -0.9606 -1.5359
 7992SOL    HW234446   1.856   4.968   1.681  1.7000  0.3583  1.4475
 7993SOL     OW34447   0.862   5.500   0.387 -0.7491  0.4796  0.5681
 7993SOL    HW134448   0.900   5.445   0.462  2.5596 -0.0103 -1.3721
 7993SOL    HW234449   0.784   5.452   0.347  0.4624 -1.5818  0.6096
 7994SOL     OW34450   1.583   5.951   0.593 -0.4980 -0.1613 -0.2949
 7994SOL    HW134451   1.559   6.028   0.534 -0.3906  0.8380  0.9417
 7994SOL    HW234452   1.515   5.941   0.665 -0.4266 -1.1377 -0.3526
 7995SOL     OW34453   2.558   9.872   0.384 -0.3140  0.0222  0.4295
 7995SOL    HW134454   2.522   9.821   0.306  1.8205 -1.7083  0.5217
 7995SOL    HW234455   2.518   9.964   0.385 -1.6526 -0.5001 -1.7006
 7996SOL     OW34456   3.735   8.200   0.572  0.3554  0.2765  0.2216
 7996SOL    HW134457   3.749   8.289   0.528 -0.4944 -0.5098 -1.6653
 7996SOL    HW234458   3.812   8.180   0.632  2.4554  0.5184 -2.3125
 7997SOL     OW34459   0.627   6.387   0.347  0.6013 -0.5440 -0.3408
 7997SOL    HW134460   0.528   6.402   0.358  0.3355 -0.7740 -2.2223
 7997SOL    HW234461   0.668   6.465   0.300  1.4437 -0.1655  0.9989
 7998SOL     OW34462   3.514   8.764   3.811 -0.0546 -0.0514  0.2721
 7998SOL    HW134463   3.556   8.854   3.808  1.8357 -0.9631 -1.4348
 7998SOL    HW234464   3.518   8.728   3.904  2.3485  0.1732  0.2712
 7999SOL     OW34465   9.818   0.858   3.154 -0.0009 -1.1941  0.1227
 7999SOL    HW134466   9.863   0.778   3.194  1.5708 -0.0799  0.6496
 7999SOL    HW234467   9.858   0.941   3.194 -3.6040 -0.1604  1.7574
 8000SOL     OW34468   0.621   7.859   1.572 -0.0124 -0.6214 -0.5553
 8000SOL    HW134469   0.717   7.842   1.596 -0.3084  1.2234  2.1744
 8000SOL    HW234470   0.564   7.787   1.611  0.0316 -0.4668 -0.2027
 8001SOL     OW34471   4.225   0.303   4.366 -0.3253 -0.2394 -0.2673
 8001SOL    HW134472   4.302   0.332   4.309  0.3568 -2.0979 -0.3114
 8001SOL    HW234473   4.246   0.319   4.462 -0.5843  0.8051 -0.3675
 8002SOL     OW34474   6.019   0.939   2.739  0.1237 -0.1455  0.6552
 8002SOL    HW134475   6.092   0.983   2.687  1.4408 -1.5054  1.2899
 8002SOL    HW234476   6.039   0.945   2.837 -0.1153 -1.3596  0.7915
 8003SOL     OW34477   9.039   6.074   3.051  0.3993  0.2770 -0.0259
 8003SOL    HW134478   9.126   6.042   3.013 -0.0780  0.4338 -1.2842
 8003SOL    HW234479   9.047   6.171   3.075  0.6751  0.2041  0.1796
 8004SOL     OW34480   5.675   9.960   3.318  0.2531  0.1299  0.2812
 8004SOL    HW134481   5.724  10.032   3.269  1.8124 -1.2148 -0.1777
 8004SOL    HW234482   5.670   9.983   3.415  0.4988  0.9641  0.0994
 8005SOL     OW34483   9.391   8.024   0.590  0.1285 -0.6965  0.0356
 8005SOL    HW134484   9.413   7.990   0.682  0.4609 -3.7114 -1.0984
 8005SOL    HW234485   9.293   8.044   0.585  0.0005 -1.0969  0.8682
 8006SOL     OW34486   6.506   0.061   3.081 -0.8074 -0.4560  0.6136
 8006SOL    HW134487   6.551   0.110   3.157 -0.9926 -0.5329  0.7717
 8006SOL    HW234488   6.522  -0.037   3.091 -1.7175 -0.5530  1.1310
 8007SOL     OW34489   2.676   6.412   3.836 -0.4753  0.5834  0.2286
 8007SOL    HW134490   2.660   6.506   3.806  0.3869  0.6064 -0.1833
 8007SOL    HW234491   2.650   6.403   3.932  1.4121  1.7981  0.8967
 8008SOL     OW34492   2.636   0.786   2.464  0.5749 -0.2270 -0.0496
 8008SOL    HW134493   2.630   0.808   2.561  2.8785  2.3780 -0.4523
 8008SOL    HW234494   2.554   0.734   2.436 -1.6696  1.8141  2.5084
 8009SOL     OW34495   5.051   6.557   2.676  0.0309 -0.3963  0.8644
 8009SOL    HW134496   4.988   6.540   2.601 -1.2309 -0.6463  1.9594
 8009SOL    HW234497   5.074   6.654   2.679  0.3107 -0.4317 -0.0054
 8010SOL     OW34498   1.629   1.320   1.585 -0.5571 -0.1567 -0.2443
 8010SOL    HW134499   1.623   1.410   1.629  1.0052 -0.3439  0.3874
 8010SOL    HW234500   1.596   1.250   1.649  1.4747 -0.4001  0.5764
 8011SOL     OW34501   1.714   3.666   0.074  0.7344  0.2022  0.2327
 8011SOL    HW134502   1.770   3.747   0.058 -0.8291  1.1862 -0.3343
 8011SOL    HW234503   1.757   3.609   0.144  1.9789  1.3688  0.4347
 8012SOL     OW34504   8.391   6.069   3.458  0.1052  0.4899  0.2041
 8012SOL    HW134505   8.301   6.028   3.445  0.3730  0.0601 -0.3073
 8012SOL    HW234506   8.433   6.086   3.369  0.4669  0.8364  0.4368
 8013SOL     OW34507   2.804   1.823   2.896 -0.3588  0.0358  0.2100
 8013SOL    HW134508   2.791   1.905   2.952 -3.2732 -0.3891  0.2408
 8013SOL    HW234509   2.899   1.818   2.865  0.8729  1.1924  3.6578
 8014SOL     OW34510   8.753   9.584   4.459  0.3817  0.0448 -0.0833
 8014SOL    HW134511   8.739   9.639   4.541 -0.5326  1.2337 -1.0131
 8014SOL    HW234512   8.706   9.496   4.469  1.9069 -0.6019  1.4405
 8015SOL     OW34513   3.474   5.073   2.316 -0.5912 -0.5000  0.1501
 8015SOL    HW134514   3.523   4.998   2.360  1.6665 -0.0687 -1.5318
 8015SOL    HW234515   3.428   5.129   2.385  0.3020 -1.6340  1.6700
 8016SOL     OW34516   3.162   6.986   2.941  0.1445 -0.1624 -0.0050
 8016SOL    HW134517   3.188   6.921   2.870 -0.9048  0.4845 -1.0110
 8016SOL    HW234518   3.132   6.937   3.023 -0.5956 -0.9496 -0.7385
 8017SOL     OW34519   0.434   1.028   2.910  0.3504 -0.0608  0.0937
 8017SOL    HW134520   0.471   0.961   2.846  1.3774  1.0328 -0.4786
 8017SOL    HW234521   0.334   1.031   2.901  0.2783 -1.5566  0.1997
 8018SOL     OW34522   8.214   8.923   0.349  0.0478 -0.0974  0.1944
 8018SOL    HW134523   8.148   8.971   0.408 -0.9727 -2.0299  0.6777
 8018SOL    HW234524   8.168   8.847   0.304  1.4237 -0.0663 -1.2877
 8019SOL     OW34525   2.775   1.295   2.776  0.5985  0.0733 -0.1095
 8019SOL    HW134526   2.847   1.272   2.842 -0.4141  0.2785  1.0997
 8019SOL    HW234527   2.760   1.394   2.777 -0.2048 -0.0427  0.2106
 8020SOL     OW34528   8.834   0.189   3.836  0.0840 -0.0602  0.2938
 8020SOL    HW134529   8.828   0.092   3.861  1.5675 -0.4967 -1.0042
 8020SOL    HW234530   8.786   0.204   3.750 -2.2832  0.8553  1.7192
 8021SOL     OW34531   4.236   4.164   1.362 -0.0743  0.0787  0.7273
 8021SOL    HW134532   4.292   4.246   1.370 -0.2940  0.2823  0.2170
 8021SOL    HW234533   4.141   4.185   1.385 -0.3549  0.2452 -0.5621
 8022SOL     OW34534   9.168   8.436   2.338  0.0262  0.2802 -0.7316
 8022SOL    HW134535   9.268   8.443   2.333 -0.1205  1.0472 -2.9593
 8022SOL    HW234536   9.143   8.359   2.398  1.9959 -2.1107 -2.8621
 8023SOL     OW34537   9.666   0.096   0.741  0.6098 -0.0390 -0.2874
 8023SOL    HW134538   9.736   0.124   0.806  0.1644  0.9403 -0.2272
 8023SOL    HW234539   9.593   0.048   0.788  0.5575  0.1794 -0.1478
 8024SOL     OW34540   9.595   9.515   3.410 -0.6565  0.0651  0.4250
 8024SOL    HW134541   9.613   9.433   3.357  0.2260 -0.5838  1.7123
 8024SOL    HW234542   9.605   9.596   3.352 -0.5378 -0.6831 -0.5925
 8025SOL     OW34543   0.741   4.879   0.111  0.0296 -0.4366  0.3185
 8025SOL    HW134544   0.762   4.806   0.177 -0.3897 -0.9861 -0.1552
 8025SOL    HW234545   0.661   4.853   0.057 -0.0154  0.3025  0.0281
 8026SOL     OW34546   4.045   9.337   0.097 -0.0883 -0.5242 -0.4934
 8026SOL    HW134547   3.950   9.310   0.086 -0.2033 -0.5131  0.4112
 8026SOL    HW234548   4.091   9.337   0.008 -0.8246 -0.9183 -0.8747
 8027SOL     OW34549   5.468   7.900   2.623  0.2929  0.3254  0.2807
 8027SOL    HW134550   5.379   7.915   2.667 -0.2300 -1.6274 -0.0581
 8027SOL    HW234551   5.460   7.916   2.525  0.8002  1.9754  0.4787
 8028SOL     OW34552   2.323   7.471   0.804  0.2018  0.4440  0.1070
 8028SOL    HW134553   2.323   7.384   0.755 -1.2764  0.5404 -0.0664
 8028SOL    HW234554   2.417   7.492   0.834  0.3968 -1.7229  1.1006
 8029SOL     OW34555   0.343   2.943   3.754  0.0626 -0.2362 -0.4406
 8029SOL    HW134556   0.275   3.012   3.731  1.3954  1.0767 -0.5690
 8029SOL    HW234557   0.383   2.964   3.843  0.7280 -0.6399 -0.6386
 8030SOL     OW34558   4.955   0.308   3.697 -0.3209  0.3687 -0.3530
 8030SOL    HW134559   5.019   0.382   3.719 -0.1367  0.5082 -1.3177
 8030SOL    HW234560   4.971   0.231   3.759  0.7247  0.4397 -0.5154
 8031SOL     OW34561   2.537   7.303   3.200 -0.0438  0.0451 -0.0107
 8031SOL    HW134562   2.617   7.252   3.230  0.5680 -0.0329 -1.7055
 8031SOL    HW234563   2.559   7.400   3.195 -0.0395  0.0189 -0.5214
 8032SOL     OW34564   8.095   9.157   0.170  0.0654 -0.1246  0.1413
 8032SOL    HW134565   8.077   9.111   0.256  0.0043 -0.7062 -0.1826
 8032SOL    HW234566   8.073   9.254   0.179 -1.5935 -0.4923  0.2756
 8033SOL     OW34567   0.578   1.318   0.454  0.0205  0.1345  0.2449
 8033SOL    HW134568   0.566   1.338   0.551  1.8017 -1.1918  0.7641
 8033SOL    HW234569   0.674   1.334   0.428 -0.9276  2.9451 -1.9161
 8034SOL     OW34570   6.773   7.026   3.481 -0.3153 -0.1074 -0.2818
 8034SOL    HW134571   6.828   7.022   3.564  1.7480 -3.4229 -1.7190
 8034SOL    HW234572   6.676   7.029   3.506  0.3066 -0.0041  2.2321
 8035SOL     OW34573   3.358   9.556   3.060 -0.0390  0.1170  0.2690
 8035SOL    HW134574   3.381   9.556   2.963  0.1065 -1.5613  0.2898
 8035SOL    HW234575   3.263   9.584   3.072 -1.0105 -2.6378 -0.6274
 8036SOL     OW34576   1.155   0.775   1.756  0.3442 -0.4357  0.6198
 8036SOL    HW134577   1.174   0.677   1.749  0.3162 -0.3342 -0.9685
 8036SOL    HW234578   1.241   0.826   1.753  0.2107 -0.2876 -0.9412
 8037SOL     OW34579   2.593   9.190   3.327  0.1685 -0.1569  0.0768
 8037SOL    HW134580   2.544   9.131   3.391  1.1880  0.4520  1.4574
 8037SOL    HW234581   2.570   9.285   3.345  0.7808  0.0464 -0.1885
 8038SOL     OW34582   8.022   8.302   1.980  0.2050 -0.6549 -0.4748
 8038SOL    HW134583   8.083   8.248   2.037 -0.5813  0.8882  1.9466
 8038SOL    HW234584   8.074   8.372   1.931  0.5853 -0.3051  0.4170
 8039SOL     OW34585   7.352   9.897   0.596 -0.1328  0.1208 -0.1691
 8039SOL    HW134586   7.304   9.971   0.549 -2.2681 -1.6988 -0.9528
 8039SOL    HW234587   7.338   9.905   0.695  2.4413  2.6355  0.0398
 8040SOL     OW34588   2.972   9.292   4.588 -0.6118  0.4477  0.6255
 8040SOL    HW134589   2.899   9.357   4.609  0.6375  2.8355 -2.0419
 8040SOL    HW234590   2.941   9.228   4.517  0.4076  2.6125 -1.8375
 8041SOL     OW34591   1.210   8.243   2.864  0.1481  0.0810 -0.3644
 8041SOL    HW134592   1.281   8.201   2.808 -1.3851 -1.3644 -1.3111
 8041SOL    HW234593   1.124   8.244   2.812 -0.7988  0.6565  1.1869
 8042SOL     OW34594   9.413   9.425   2.675  0.3451 -0.4202  0.5847
 8042SOL    HW134595   9.487   9.412   2.741  0.1393 -1.2756  0.6487
 8042SOL    HW234596   9.352   9.498   2.706 -0.0973 -1.2304  1.6441
 8043SOL     OW34597   3.928   7.972   2.831 -0.1413  0.5042 -0.9134
 8043SOL    HW134598   3.873   7.926   2.902  0.9359  0.5550 -0.0250
 8043SOL    HW234599   4.022   7.939   2.836  0.5780  2.5437 -0.4926
 8044SOL     OW34600   2.948   8.746   0.662  0.4036 -0.3688 -0.0767
 8044SOL    HW134601   2.974   8.671   0.602 -0.1542  0.5917 -1.5304
 8044SOL    HW234602   2.859   8.727   0.703  0.9507 -1.1935  0.7525
 8045SOL     OW34603   6.812   8.466   1.341 -0.1009  0.3709 -0.1286
 8045SOL    HW134604   6.880   8.447   1.411  0.3005  0.5486 -0.4701
 8045SOL    HW234605   6.855   8.512   1.263 -0.5429  0.1777 -0.4922
 8046SOL     OW34606   4.768   7.040   3.060  0.3513 -0.0267 -0.4104
 8046SOL    HW134607   4.860   7.059   3.095 -0.0746  1.2958  0.0323
 8046SOL    HW234608   4.768   6.953   3.012  1.8659  0.0162 -0.5173
 8047SOL     OW34609   2.179   4.096   0.471  0.2247  0.2225 -0.4083
 8047SOL    HW134610   2.111   4.149   0.522 -0.8230 -1.4998  0.0293
 8047SOL    HW234611   2.176   4.123   0.375  0.4905  1.7446 -0.0047
 8048SOL     OW34612   3.201   3.322   1.821  0.4886 -0.1311 -0.3857
 8048SOL    HW134613   3.216   3.395   1.888 -0.7739 -1.0512  0.9338
 8048SOL    HW234614   3.287   3.300   1.776  1.4543  0.1869  1.2755
 8049SOL     OW34615   8.762   8.800   3.138  0.0233 -0.3338  0.1986
 8049SOL    HW134616   8.720   8.759   3.219  0.6743 -0.4961  0.4515
 8049SOL    HW234617   8.728   8.754   3.056  1.4592 -2.0098  0.5220
 8050SOL     OW34618   4.577   4.683   1.424  0.2077  0.3030 -0.1403
 8050SOL    HW134619   4.571   4.632   1.338  2.4992 -1.0134  0.4566
 8050SOL    HW234620   4.498   4.660   1.481 -0.6315  0.1696 -1.3192
 8051SOL     OW34621   9.342   7.755   2.727  0.2269 -0.3295 -0.4775
 8051SOL    HW134622   9.435   7.789   2.724  0.5937 -1.3179 -0.5272
 8051SOL    HW234623   9.312   7.730   2.635  0.0671 -0.4341 -0.3972
 8052SOL     OW34624   0.373   6.908   1.081 -0.1021 -1.0635 -0.3251
 8052SOL    HW134625   0.312   6.908   1.002 -0.5334  0.2734  0.0010
 8052SOL    HW234626   0.360   6.824   1.133 -0.5561 -1.4792 -1.0974
 8053SOL     OW34627   0.039   5.418   4.625 -0.6089 -0.2963 -0.0707
 8053SOL    HW134628  -0.057   5.438   4.639 -0.6038 -0.7469  0.6571
 8053SOL    HW234629   0.049   5.353   4.549 -0.6977  1.5540 -1.6831
 8054SOL     OW34630   0.060   0.710   3.666 -0.5476  0.4860 -0.5105
 8054SOL    HW134631   0.115   0.793   3.674  0.5198 -0.0275 -2.1372
 8054SOL    HW234632  -0.036   0.735   3.656 -0.3728  1.4783  0.2314
 8055SOL     OW34633   3.478   6.853   3.584  0.1204 -0.5299 -0.0537
 8055SOL    HW134634   3.418   6.867   3.663 -1.3099  0.6355 -1.3159
 8055SOL    HW234635   3.425   6.863   3.500  1.7827 -1.0347 -1.1898
 8056SOL     OW34636   1.077   5.121   1.228 -0.0137  0.2530  0.2130
 8056SOL    HW134637   1.016   5.129   1.306 -1.9774  2.4578 -1.4768
 8056SOL    HW234638   1.150   5.189   1.235 -0.5843  0.9154 -0.1857
 8057SOL     OW34639   2.820   5.939   2.253  0.8142  0.0414 -0.4083
 8057SOL    HW134640   2.875   5.929   2.336 -0.0767 -0.4238  0.1326
 8057SOL    HW234641   2.782   6.031   2.250  1.0297  0.1311 -0.4207
 8058SOL     OW34642   5.991   9.753   4.564  0.0287 -0.4546  0.0057
 8058SOL    HW134643   6.057   9.683   4.538 -0.2240  0.6310 -3.9483
 8058SOL    HW234644   5.899   9.715   4.563  0.2488 -1.1649  2.4487
 8059SOL     OW34645   3.588   9.475   1.425  0.1778 -0.2847 -0.1810
 8059SOL    HW134646   3.496   9.504   1.398  0.7078  2.5826  0.8831
 8059SOL    HW234647   3.588   9.451   1.522  0.4427 -0.7725 -0.3002
 8060SOL     OW34648   2.841   9.808   1.979  0.4635 -0.3489  0.6926
 8060SOL    HW134649   2.850   9.863   1.897 -0.1362  1.7242  1.9905
 8060SOL    HW234650   2.862   9.712   1.957 -0.7162 -0.0213 -2.0770
 8061SOL     OW34651   7.247   6.549   2.177  0.8793  0.7420  0.0916
 8061SOL    HW134652   7.289   6.632   2.139 -1.1484  1.5776 -0.4256
 8061SOL    HW234653   7.241   6.557   2.276  0.6043  1.2711  0.0339
 8062SOL     OW34654   1.561   0.395   1.167  0.1945  0.2071 -0.2650
 8062SOL    HW134655   1.587   0.411   1.072  0.6179  0.2044 -0.1516
 8062SOL    HW234656   1.465   0.366   1.171  0.0382  0.6726 -0.6442
 8063SOL     OW34657   6.998   8.213   1.636 -0.4218 -0.0440  0.2467
 8063SOL    HW134658   6.923   8.186   1.575 -0.7153 -0.7111  0.8857
 8063SOL    HW234659   7.055   8.281   1.591 -1.1618  0.1428 -0.4189
 8064SOL     OW34660   4.753   0.693   1.760  0.3625 -0.2531 -0.2535
 8064SOL    HW134661   4.700   0.686   1.676  0.4795 -1.8603 -0.2200
 8064SOL    HW234662   4.695   0.668   1.838  0.7951 -0.7285 -0.0802
 8065SOL     OW34663   8.365   8.267   0.933 -0.1080  0.1772  0.1889
 8065SOL    HW134664   8.297   8.198   0.907 -0.7602  0.6824  0.5407
 8065SOL    HW234665   8.352   8.348   0.876  1.7278 -0.5868 -1.3832
 8066SOL     OW34666   3.316   8.766   0.040 -0.0531 -0.4663 -0.0640
 8066SOL    HW134667   3.355   8.856   0.020 -0.8255 -0.1762 -0.3090
 8066SOL    HW234668   3.388   8.698   0.043  0.3268 -0.1545 -1.7268
 8067SOL     OW34669   2.563   0.871   4.437 -0.3191  0.1243  0.7698
 8067SOL    HW134670   2.588   0.946   4.499  3.1643  1.0226 -1.6029
 8067SOL    HW234671   2.491   0.902   4.375 -0.1042  0.9282  0.9190
 8068SOL     OW34672   2.541   7.042   3.925 -0.0879  0.9498 -0.1746
 8068SOL    HW134673   2.488   6.965   3.889  1.2247 -0.6919  1.3305
 8068SOL    HW234674   2.629   7.010   3.958  0.1237  2.9768  1.3267
 8069SOL     OW34675   2.377   2.705   0.287  0.0619 -0.1972 -0.2253
 8069SOL    HW134676   2.381   2.805   0.284  1.9495 -0.2486 -0.3083
 8069SOL    HW234677   2.463   2.670   0.325  0.3526 -1.8628 -2.3008
 8070SOL     OW34678   0.238   5.394   0.029 -0.1946 -1.0870 -0.2394
 8070SOL    HW134679   0.167   5.419  -0.037 -0.2387  1.5836  0.7317
 8070SOL    HW234680   0.246   5.467   0.098  2.0090 -2.3513  0.9003
 8071SOL     OW34681   1.673   5.247   3.239  0.4159  0.7765 -0.3631
 8071SOL    HW134682   1.748   5.182   3.251 -0.6246 -1.1943 -3.7127
 8071SOL    HW234683   1.587   5.196   3.230 -1.0832  2.9026  1.5541
 8072SOL     OW34684   9.931   9.257   1.605  0.7143 -0.1159 -0.0463
 8072SOL    HW134685   9.946   9.340   1.551  1.3018 -1.0006 -1.2792
 8072SOL    HW234686   9.947   9.277   1.702  3.5879  0.5814 -0.6060
 8073SOL     OW34687   0.512   8.186   1.858 -0.3688  0.2293 -0.5299
 8073SOL    HW134688   0.565   8.191   1.943 -1.1850 -0.3002  0.0095
 8073SOL    HW234689   0.448   8.263   1.855 -1.3814 -0.5780  0.0399
 8074SOL     OW34690   0.532   0.311   0.521  0.3622  0.0971  0.2082
 8074SOL    HW134691   0.470   0.388   0.509  0.7813  0.3478 -0.3367
 8074SOL    HW234692   0.480   0.232   0.555 -0.2469  0.3214 -0.1884
 8075SOL     OW34693   0.862   2.648   1.182  0.0635  0.0002 -0.0957
 8075SOL    HW134694   0.934   2.579   1.172  1.0615  1.0934 -0.5459
 8075SOL    HW234695   0.878   2.701   1.265  0.3777  0.9377 -0.7523
 8076SOL     OW34696   9.346   5.449   0.374  0.5460 -1.0101 -0.7073
 8076SOL    HW134697   9.375   5.379   0.309  1.7485 -1.2226  0.0364
 8076SOL    HW234698   9.368   5.539   0.337 -0.4150 -1.0361 -1.3767
 8077SOL     OW34699   0.250   6.676   1.453 -0.3906 -0.4789 -0.2006
 8077SOL    HW134700   0.182   6.604   1.464 -0.9589 -0.0202 -0.7062
 8077SOL    HW234701   0.251   6.734   1.534  0.5583 -1.4665  0.5058
 8078SOL     OW34702   9.743   9.701   0.978 -0.5389 -0.3668 -0.5830
 8078SOL    HW134703   9.728   9.773   1.046  0.2974 -0.5206 -0.2332
 8078SOL    HW234704   9.674   9.708   0.906 -1.6392 -0.4005  0.4505
 8079SOL     OW34705   8.069   8.517   4.406 -0.2646 -0.1539  0.1066
 8079SOL    HW134706   8.013   8.439   4.379  0.4792 -0.7235  0.2101
 8079SOL    HW234707   8.048   8.595   4.347  0.7756 -1.1471 -1.6215
 8080SOL     OW34708   2.096   1.485   4.766  0.0251 -0.2295  1.0698
 8080SOL    HW134709   2.077   1.403   4.713 -0.3402  1.3378 -1.2674
 8080SOL    HW234710   2.014   1.542   4.771  1.1647  1.5644 -0.1324
 8081SOL     OW34711   8.601   6.464   3.455 -0.1740 -0.0532 -0.3245
 8081SOL    HW134712   8.585   6.401   3.379  0.1675  0.8784 -1.1825
 8081SOL    HW234713   8.513   6.498   3.489 -0.3042  0.0902 -0.7927
 8082SOL     OW34714   7.591   0.170   1.458 -0.5750  0.2928 -0.0672
 8082SOL    HW134715   7.585   0.154   1.557 -0.8139 -2.3050 -0.4793
 8082SOL    HW234716   7.537   0.251   1.435 -2.5511 -0.4887  1.6153
 8083SOL     OW34717   3.788   3.994   2.491  0.1799  0.2220 -0.2416
 8083SOL    HW134718   3.729   3.913   2.482  1.8309 -1.0268 -0.0760
 8083SOL    HW234719   3.803   4.014   2.588  0.0725  0.5039 -0.2828
 8084SOL     OW34720   0.448   8.530   3.139  0.3273 -0.1244  0.2294
 8084SOL    HW134721   0.434   8.518   3.237  0.3128  0.8805  0.3560
 8084SOL    HW234722   0.528   8.478   3.110  0.1855 -0.6249  0.7227
 8085SOL     OW34723   2.043   9.443   2.681  0.1696  0.0669 -0.3414
 8085SOL    HW134724   1.949   9.462   2.710  0.0480 -0.4028 -0.4193
 8085SOL    HW234725   2.085   9.526   2.644 -0.0926  0.3645  0.0345
 8086SOL     OW34726   3.073   2.713   0.390  0.0790  0.2964  0.2738
 8086SOL    HW134727   3.122   2.794   0.423  1.6163 -0.2061 -0.7042
 8086SOL    HW234728   3.071   2.714   0.290  0.6035 -1.1344  0.2324
 8087SOL     OW34729   4.390   2.901   0.841  0.0147  0.0136  0.4375
 8087SOL    HW134730   4.312   2.945   0.884 -0.9217 -0.9046 -0.2789
 8087SOL    HW234731   4.392   2.804   0.866  1.0406  0.0702  0.6094
 8088SOL     OW34732   1.901   7.757   1.944 -0.0381 -0.0716  0.0232
 8088SOL    HW134733   1.987   7.804   1.965  1.0139 -1.6771 -0.6072
 8088SOL    HW234734   1.860   7.797   1.863  1.2730 -0.7400 -0.9952
 8089SOL     OW34735   5.407   6.239   2.937 -0.1613  0.0786  0.0119
 8089SOL    HW134736   5.409   6.269   2.841  2.5697 -1.9162 -0.5910
 8089SOL    HW234737   5.342   6.164   2.947  1.5963 -1.6011 -0.8965
 8090SOL     OW34738   0.604   6.206   1.745  0.4065 -0.0967 -0.2439
 8090SOL    HW134739   0.513   6.180   1.714  0.3807  0.1961 -0.4093
 8090SOL    HW234740   0.619   6.304   1.730 -0.0675  0.3148  1.7966
 8091SOL     OW34741   2.799   4.025   1.421 -0.0640 -0.8288 -0.1298
 8091SOL    HW134742   2.703   4.031   1.447 -0.5933 -2.6320 -1.5788
 8091SOL    HW234743   2.855   4.007   1.503 -1.1134 -1.1976  0.5175
 8092SOL     OW34744   0.837   3.537   0.233 -0.0751 -0.4531  0.4037
 8092SOL    HW134745   0.842   3.623   0.184 -1.1962 -1.0769 -0.8231
 8092SOL    HW234746   0.762   3.540   0.299 -1.2830 -1.1227 -0.9162
 8093SOL     OW34747   1.990   8.647   1.063 -0.1127 -0.1210  0.2766
 8093SOL    HW134748   2.047   8.565   1.056 -0.9416 -0.7584  0.8789
 8093SOL    HW234749   1.905   8.633   1.013  0.4840  1.0346 -1.0802
 8094SOL     OW34750   1.392   4.794   1.660  0.0489  0.6710  0.1787
 8094SOL    HW134751   1.312   4.800   1.600 -0.4073 -1.7582  0.4872
 8094SOL    HW234752   1.381   4.858   1.737 -1.1886  0.9786 -0.2435
 8095SOL     OW34753   7.480   9.922   3.826  0.1658 -0.9230  0.5277
 8095SOL    HW134754   7.569   9.913   3.781 -1.1711  0.9593 -2.6732
 8095SOL    HW234755   7.443   9.830   3.844  1.6666 -1.7242 -0.3462
 8096SOL     OW34756   9.692   0.782   1.357 -0.2031  0.1117  1.1305
 8096SOL    HW134757   9.616   0.805   1.296  1.3066 -0.9864 -1.2408
 8096SOL    HW234758   9.756   0.859   1.359  0.4281 -0.3943  0.2538
 8097SOL     OW34759   0.484   7.751   3.290  0.4318 -0.1719 -0.0009
 8097SOL    HW134760   0.385   7.756   3.303  0.3277  2.0484 -1.4258
 8097SOL    HW234761   0.530   7.807   3.359  0.5872  0.4604 -0.6145
 8098SOL     OW34762   4.989   8.101   3.856  0.1670 -0.5765  0.2447
 8098SOL    HW134763   5.052   8.101   3.779  0.6959  1.2939  0.6557
 8098SOL    HW234764   5.028   8.154   3.931 -2.1463  1.1130  0.2905
 8099SOL     OW34765   0.026   3.716   2.739 -1.0505  0.1478  0.1494
 8099SOL    HW134766   0.030   3.660   2.656  1.1609  0.8402 -0.2576
 8099SOL    HW234767   0.049   3.660   2.819  0.5681  0.3090 -0.1862
 8100SOL     OW34768   0.370   2.459   1.934 -0.5809 -0.2303  0.1279
 8100SOL    HW134769   0.421   2.376   1.958 -3.4779 -1.9250  0.5498
 8100SOL    HW234770   0.354   2.461   1.835 -3.9844 -2.2575  0.5950
 8101SOL     OW34771   3.727   8.370   2.703  0.0936 -0.0108  0.0091
 8101SOL    HW134772   3.809   8.353   2.758  0.1807 -1.0284 -0.4256
 8101SOL    HW234773   3.687   8.283   2.674 -0.4802  0.4971 -0.7599
 8102SOL     OW34774   2.023   6.087   2.547  0.2017 -0.1229 -0.9007
 8102SOL    HW134775   2.007   6.185   2.560  2.3067  0.1107  0.1290
 8102SOL    HW234776   2.116   6.074   2.512  0.2513 -1.8081 -0.1607
 8103SOL     OW34777   9.722   0.817   0.229 -0.7738  0.4585 -0.5767
 8103SOL    HW134778   9.760   0.848   0.316  0.6144 -0.1185 -0.9595
 8103SOL    HW234779   9.637   0.768   0.245 -0.6908  0.6372  0.4300
 8104SOL     OW34780   7.487   7.589   3.069 -0.0617 -0.0194 -0.1241
 8104SOL    HW134781   7.412   7.546   3.120 -0.6124  0.7153 -0.3044
 8104SOL    HW234782   7.491   7.687   3.091  1.6320 -0.2795  0.8357
 8105SOL     OW34783   1.091   8.549   3.901  0.0842  0.1013  0.3563
 8105SOL    HW134784   1.014   8.613   3.896 -0.8917 -1.1955 -1.7846
 8105SOL    HW234785   1.066   8.471   3.958  1.1899  1.4562  2.7695
 8106SOL     OW34786   4.123   1.833   2.404 -0.2177  0.1060 -0.0184
 8106SOL    HW134787   4.103   1.841   2.502 -0.5302 -0.5626 -0.0241
 8106SOL    HW234788   4.042   1.799   2.356  0.4872 -1.2614 -0.2470
 8107SOL     OW34789   5.858   9.741   0.871 -0.7194  0.0814 -0.3091
 8107SOL    HW134790   5.928   9.803   0.908 -0.1231  0.7952 -2.5356
 8107SOL    HW234791   5.768   9.769   0.905 -0.2774  1.1667  0.0054
 8108SOL     OW34792   4.732   1.309   1.603  0.0692 -0.2238  0.4060
 8108SOL    HW134793   4.693   1.386   1.552  0.2386 -0.3690  0.0597
 8108SOL    HW234794   4.698   1.223   1.566 -0.0341 -0.3187  0.7231
 8109SOL     OW34795   1.517   8.450   4.729 -0.6322  0.0054  0.3169
 8109SOL    HW134796   1.482   8.543   4.717  1.1501  0.7398  0.6863
 8109SOL    HW234797   1.447   8.395   4.774 -1.2222  1.5281  1.3337
 8110SOL     OW34798   2.001   8.050   4.252 -0.4138 -0.2454  0.1369
 8110SOL    HW134799   1.908   8.078   4.277 -0.9790 -1.5268 -0.4775
 8110SOL    HW234800   2.017   8.070   4.155 -0.1512 -0.2986  0.1685
 8111SOL     OW34801   2.904   0.924   2.769 -0.5384  0.1931  0.3970
 8111SOL    HW134802   2.931   1.004   2.716 -0.3842  0.0416  0.2451
 8111SOL    HW234803   2.944   0.928   2.860  0.0743 -0.0784  0.1409
 8112SOL     OW34804   2.575   3.918   2.147 -0.1806  0.3075 -0.2369
 8112SOL    HW134805   2.654   3.857   2.141 -0.8557 -0.9189  2.4149
 8112SOL    HW234806   2.531   3.925   2.058  2.5090  0.4918 -1.6085
 8113SOL     OW34807   0.717   2.906   0.672  0.0104 -0.0925 -0.0381
 8113SOL    HW134808   0.648   2.838   0.696 -0.9393  0.4142 -1.2611
 8113SOL    HW234809   0.786   2.865   0.612 -1.2648  0.3144 -1.8312
 8114SOL     OW34810   3.630   7.927   0.900 -0.0697  0.7495  0.2130
 8114SOL    HW134811   3.583   7.850   0.943  0.4354  0.3798  0.1142
 8114SOL    HW234812   3.566   8.003   0.889 -0.5174  0.4222  0.5088
 8115SOL     OW34813   4.279   6.745   2.817 -0.5676  0.4197  0.4733
 8115SOL    HW134814   4.321   6.787   2.897 -1.8296  0.0032  1.3874
 8115SOL    HW234815   4.280   6.809   2.740  0.1278  1.0381  0.9939
 8116SOL     OW34816   5.874   7.824   3.279  0.2475 -0.6660 -0.2909
 8116SOL    HW134817   5.940   7.805   3.352  1.0286  1.2043 -0.4730
 8116SOL    HW234818   5.917   7.806   3.191  0.4011  0.2070 -0.3971
 8117SOL     OW34819   2.786   0.687   3.314 -0.4989  0.1525  0.0177
 8117SOL    HW134820   2.835   0.771   3.335 -1.1100 -0.0898  2.5278
 8117SOL    HW234821   2.701   0.710   3.267  0.0070  0.8382 -0.5825
 8118SOL     OW34822   9.019   9.605   4.667 -0.1800  0.5503  0.0241
 8118SOL    HW134823   8.939   9.639   4.716 -0.8416  0.8350 -1.2501
 8118SOL    HW234824   9.027   9.506   4.682 -0.3954  0.6316  0.6777
 8119SOL     OW34825   2.136   7.756   2.851 -0.0516 -0.0602  0.6067
 8119SOL    HW134826   2.096   7.732   2.763  1.2454 -1.9279  0.4979
 8119SOL    HW234827   2.224   7.803   2.836  0.3745 -0.7591  0.9043
 8120SOL     OW34828   1.866   9.347   1.689  0.0557 -0.4774  0.0922
 8120SOL    HW134829   1.958   9.370   1.659  0.0086  0.4120  0.6018
 8120SOL    HW234830   1.871   9.272   1.756  0.3049 -1.2237 -0.7569
 8121SOL     OW34831   2.736   1.634   2.302  0.5957 -0.2039 -0.2929
 8121SOL    HW134832   2.728   1.548   2.351  0.6662 -0.4435 -0.6977
 8121SOL    HW234833   2.826   1.640   2.258 -0.1689 -0.8766 -2.0184
 8122SOL     OW34834   0.201   9.319   2.441 -0.0048 -0.3530  0.3298
 8122SOL    HW134835   0.246   9.359   2.361  1.3599 -0.7554  0.8819
 8122SOL    HW234836   0.271   9.285   2.505 -1.0647  0.2893  1.8558
 8123SOL     OW34837   9.115   5.957   3.342 -0.0795 -0.3719  0.0177
 8123SOL    HW134838   9.063   6.018   3.282  1.6952  1.6432  0.4706
 8123SOL    HW234839   9.073   5.957   3.433 -0.8470 -0.8549 -0.3295
 8124SOL     OW34840   0.902   3.363   4.548  0.0037 -0.1185 -0.4217
 8124SOL    HW134841   0.952   3.322   4.472 -3.1311 -0.7809 -2.2445
 8124SOL    HW234842   0.880   3.292   4.615 -2.0409 -0.7107 -1.6701
 8125SOL     OW34843   0.700   6.095   4.505  0.0521 -0.7524  0.3308
 8125SOL    HW134844   0.713   6.119   4.409 -1.4954 -0.5467  0.1500
 8125SOL    HW234845   0.669   6.176   4.555 -0.5248 -1.1964  0.7031
 8126SOL     OW34846   3.578   3.793   0.386  0.4604 -0.2351  0.0065
 8126SOL    HW134847   3.626   3.709   0.412 -0.6519 -0.8393  0.1460
 8126SOL    HW234848   3.499   3.770   0.330  0.1573  0.7237  0.0351
 8127SOL     OW34849   1.598   7.465   0.221 -0.3490 -0.1773  0.4187
 8127SOL    HW134850   1.606   7.531   0.296 -0.0945  0.0985  0.1522
 8127SOL    HW234851   1.688   7.425   0.202 -0.0580  1.0402 -0.8900
 8128SOL     OW34852   0.303   0.639   2.548 -0.3863 -0.2315 -0.0994
 8128SOL    HW134853   0.292   0.738   2.558 -2.3086 -0.3873 -0.3858
 8128SOL    HW234854   0.212   0.596   2.549  0.4681 -2.0507  0.7300
 8129SOL     OW34855   8.782   0.609   1.157 -0.0434 -0.5439  0.0824
 8129SOL    HW134856   8.857   0.629   1.220  1.7124  1.5578 -2.5524
 8129SOL    HW234857   8.812   0.540   1.091 -0.2006  0.6913 -1.3102
 8130SOL     OW34858   0.664   0.567   4.722 -0.0025  0.4687  0.1976
 8130SOL    HW134859   0.642   0.623   4.802 -0.3866 -0.3049  0.6398
 8130SOL    HW234860   0.753   0.522   4.737 -0.3171 -0.0836  0.4153
 8131SOL     OW34861   2.623   4.041   2.570  0.5198  0.1629  0.0050
 8131SOL    HW134862   2.531   4.002   2.569  0.1354  1.0429  1.2549
 8131SOL    HW234863   2.685   3.978   2.618  1.1442 -1.6508 -3.0386
 8132SOL     OW34864   5.762   0.084   4.079 -1.1482 -0.8941 -0.0939
 8132SOL    HW134865   5.676   0.133   4.092 -0.9019 -0.3433 -0.5279
 8132SOL    HW234866   5.775   0.019   4.154 -1.6786 -0.5948  0.2588
 8133SOL     OW34867   4.155   1.961   1.290 -0.5167 -0.9217 -0.0028
 8133SOL    HW134868   4.158   2.060   1.273 -2.0207 -0.9217 -0.3463
 8133SOL    HW234869   4.220   1.938   1.362 -0.2820  0.3498  0.2129
 8134SOL     OW34870   2.381   9.528   3.651  0.2219  0.2595 -0.3402
 8134SOL    HW134871   2.408   9.606   3.595 -1.8148 -0.4503 -2.3863
 8134SOL    HW234872   2.440   9.450   3.631 -0.0680  0.2100 -1.0073
 8135SOL     OW34873   9.010   7.186   0.811 -0.1456 -0.0712  0.6502
 8135SOL    HW134874   9.074   7.117   0.847 -0.1750 -0.5467 -0.2131
 8135SOL    HW234875   8.934   7.141   0.765  1.1748  0.5803 -2.2309
 8136SOL     OW34876   6.409   9.066   3.821  0.0526 -0.5077 -0.2107
 8136SOL    HW134877   6.432   8.969   3.815  1.2513 -0.2186 -0.4190
 8136SOL    HW234878   6.437   9.102   3.910 -0.4245 -0.3699 -0.1183
 8137SOL     OW34879   9.073   5.650   4.596  0.6334 -0.2612 -0.7292
 8137SOL    HW134880   9.110   5.585   4.663  2.3938  0.5057 -0.9291
 8137SOL    HW234881   9.089   5.614   4.504 -0.4040 -0.5956 -0.7789
 8138SOL     OW34882   1.598   8.340   0.935  0.2791  0.1835 -0.3937
 8138SOL    HW134883   1.512   8.362   0.889 -0.2068  0.8199  0.7961
 8138SOL    HW234884   1.580   8.322   1.032  1.6080  1.2163  0.0515
 8139SOL     OW34885   4.031   0.012   4.471 -0.1754  0.1780  0.4144
 8139SOL    HW134886   4.037  -0.064   4.536 -1.0826  0.2266  0.5723
 8139SOL    HW234887   4.017   0.098   4.521  2.0194  0.6222  0.3025
 8140SOL     OW34888   1.394   7.814   1.760  0.6206  0.7914 -0.2964
 8140SOL    HW134889   1.454   7.798   1.839  3.0952 -0.0409 -2.2948
 8140SOL    HW234890   1.311   7.760   1.769  3.4361 -3.8723 -1.0051
 8141SOL     OW34891   7.475   9.008   2.341 -0.2728 -0.0150  0.6982
 8141SOL    HW134892   7.507   8.924   2.385  0.1374 -0.2837 -0.0986
 8141SOL    HW234893   7.406   8.985   2.273  1.4287  0.0420 -1.1012
 8142SOL     OW34894   9.983   6.412   1.105 -0.8777 -0.4029 -0.4502
 8142SOL    HW134895   9.953   6.487   1.164 -1.4544 -0.9464 -0.0384
 8142SOL    HW234896  10.035   6.346   1.159 -0.2088 -0.2025 -0.8526
 8143SOL     OW34897   3.097   6.074   3.246  0.1815  0.3883 -0.4611
 8143SOL    HW134898   2.998   6.075   3.228  0.1794  0.8513 -0.4324
 8143SOL    HW234899   3.114   6.087   3.343  0.1948 -2.1582 -0.0939
 8144SOL     OW34900   1.745   7.157   2.448  0.3407  0.3057  0.1083
 8144SOL    HW134901   1.813   7.231   2.447 -1.3918  1.9907  1.8229
 8144SOL    HW234902   1.665   7.186   2.395 -0.4705 -0.2200  1.0503
 8145SOL     OW34903   0.135   6.497   4.555 -0.0816  0.5143  0.3513
 8145SOL    HW134904   0.086   6.482   4.469  1.2163 -0.1071 -0.2888
 8145SOL    HW234905   0.185   6.583   4.550 -1.3857  1.3390  1.1499
 8146SOL     OW34906   3.145   8.198   2.938  0.0693  0.1380  0.3371
 8146SOL    HW134907   3.072   8.265   2.925 -0.6025 -0.8059 -0.8112
 8146SOL    HW234908   3.233   8.245   2.939 -0.3441  0.9698 -1.2050
 8147SOL     OW34909   2.021   9.161   2.581  0.5852 -0.2331  0.1242
 8147SOL    HW134910   1.935   9.207   2.606  0.7941  0.0034  0.4143
 8147SOL    HW234911   2.089   9.230   2.555  0.7195 -0.4141 -0.0049
 8148SOL     OW34912   3.455   2.311   0.760  0.5239 -0.9849 -0.0910
 8148SOL    HW134913   3.517   2.321   0.838  0.2837  0.9307 -0.1197
 8148SOL    HW234914   3.361   2.325   0.790  0.4124 -0.4397 -0.6906
 8149SOL     OW34915   1.031   3.303   1.504  0.0008 -0.1247 -0.2050
 8149SOL    HW134916   1.091   3.224   1.489 -0.2350 -0.1607 -1.0095
 8149SOL    HW234917   1.082   3.387   1.484  0.5136 -0.0101  1.4816
 8150SOL     OW34918   9.900   4.517   1.088  0.4662  0.1684 -0.0148
 8150SOL    HW134919   9.954   4.438   1.060 -0.2762 -0.6152  0.7251
 8150SOL    HW234920   9.961   4.591   1.116  1.1633 -0.3769 -0.0686
 8151SOL     OW34921   2.689   4.650   3.299  0.2162 -0.1266 -0.1455
 8151SOL    HW134922   2.718   4.636   3.204  2.2369 -1.0391  0.5796
 8151SOL    HW234923   2.698   4.746   3.323 -1.1817  0.2667 -1.1457
 8152SOL     OW34924   9.407   6.035   2.618  0.0570  0.7127  0.4225
 8152SOL    HW134925   9.496   6.057   2.578 -0.6059  0.4615 -1.2560
 8152SOL    HW234926   9.420   5.977   2.698  1.3165 -1.4291 -1.2600
 8153SOL     OW34927   5.502   0.889   3.022 -0.8843 -0.4557 -0.0512
 8153SOL    HW134928   5.451   0.904   2.937  0.5706 -2.8561 -1.3772
 8153SOL    HW234929   5.591   0.849   3.002  0.1513  0.4086  2.5136
 8154SOL     OW34930   2.776   8.108   0.781 -0.1366 -0.2145 -0.1867
 8154SOL    HW134931   2.681   8.106   0.748 -0.9001 -2.7378  1.9473
 8154SOL    HW234932   2.803   8.203   0.797 -3.0413  0.4824  1.0774
 8155SOL     OW34933   8.372   9.819   2.502 -0.1914 -0.0718  0.1372
 8155SOL    HW134934   8.422   9.738   2.469  1.5996  0.6860  0.9308
 8155SOL    HW234935   8.360   9.883   2.426 -2.0743 -1.2767 -0.6232
 8156SOL     OW34936   5.499   9.661   2.640 -0.2885  0.2076 -0.1874
 8156SOL    HW134937   5.461   9.753   2.653  1.8483  1.2007 -0.7109
 8156SOL    HW234938   5.487   9.608   2.724 -0.9803  1.1734  0.3319
 8157SOL     OW34939   4.613   1.026   4.380 -0.7120 -0.4356 -0.0488
 8157SOL    HW134940   4.655   1.040   4.469  0.1698 -1.9354 -0.2103
 8157SOL    HW234941   4.536   1.089   4.369 -0.8037 -0.2082  1.7445
 8158SOL     OW34942   9.584   4.175   1.986  0.4050  0.5487 -0.0169
 8158SOL    HW134943   9.648   4.171   1.909  1.1164  0.7676  0.5514
 8158SOL    HW234944   9.611   4.106   2.054  0.7538  1.4406  0.7645
 8159SOL     OW34945   2.915   1.029   4.776  0.3751 -0.5485  0.1450
 8159SOL    HW134946   2.835   1.018   4.835  1.5432 -2.3360  1.4545
 8159SOL    HW234947   2.960   1.116   4.797 -1.1272  0.3983 -0.5056
 8160SOL     OW34948   3.591   7.885   2.550 -0.4060 -0.1862  0.1182
 8160SOL    HW134949   3.685   7.921   2.551  0.1290 -1.4917 -0.9155
 8160SOL    HW234950   3.539   7.931   2.478 -0.4602  0.3103  0.4761
 8161SOL     OW34951   3.826   3.805   2.930 -0.3446  0.4438 -0.1403
 8161SOL    HW134952   3.799   3.798   3.026 -1.9976  0.0343 -0.6106
 8161SOL    HW234953   3.911   3.755   2.916 -0.5809 -0.2902  0.9426
 8162SOL     OW34954   5.216   9.939   1.014  0.1957 -0.8006 -0.2247
 8162SOL    HW134955   5.126   9.970   0.986  0.2486 -0.0244  0.4372
 8162SOL    HW234956   5.208   9.878   1.094  0.4124  1.3275  1.4797
 8163SOL     OW34957   3.729   0.194   2.067  0.0394 -0.3521 -0.4518
 8163SOL    HW134958   3.806   0.150   2.021  0.5363 -0.0103  0.0514
 8163SOL    HW234959   3.753   0.212   2.163  0.3123  2.2013 -0.9645
 8164SOL     OW34960   9.762   6.406   3.451 -0.1327 -0.6140 -0.1701
 8164SOL    HW134961   9.850   6.363   3.475  1.3769  1.2628 -2.1227
 8164SOL    HW234962   9.713   6.349   3.386  0.8967 -0.4170 -1.1340
 8165SOL     OW34963   3.263   4.069   3.922 -0.0306  0.1557  0.1207
 8165SOL    HW134964   3.359   4.084   3.946  0.1198  0.7314 -0.7986
 8165SOL    HW234965   3.209   4.148   3.951 -0.4271 -0.6545  1.6538
 8166SOL     OW34966   2.761   2.859   0.108  0.5693 -0.5717  0.3447
 8166SOL    HW134967   2.710   2.814   0.035 -0.2853 -0.2375  0.7288
 8166SOL    HW234968   2.762   2.958   0.092  1.2969 -0.6024  0.2114
 8167SOL     OW34969   1.488   0.276   2.420  0.2075 -0.1270  0.0120
 8167SOL    HW134970   1.557   0.341   2.454 -0.1348 -0.9298  2.3493
 8167SOL    HW234971   1.405   0.326   2.395  1.4247  0.7875 -2.3237
 8168SOL     OW34972   1.222   5.722   1.126 -0.2367 -0.2984 -0.9081
 8168SOL    HW134973   1.293   5.666   1.168  0.8439  0.5349 -1.5586
 8168SOL    HW234974   1.151   5.664   1.087 -0.5257 -1.1074  0.8248
 8169SOL     OW34975   2.589   2.866   1.119 -0.1720  0.3933 -0.2713
 8169SOL    HW134976   2.587   2.852   1.020 -1.5888  1.6748 -0.4388
 8169SOL    HW234977   2.598   2.964   1.138 -1.1969  0.2808  0.8512
 8170SOL     OW34978   1.336   6.643   0.775  0.2613 -0.4054  0.6177
 8170SOL    HW134979   1.331   6.720   0.838  0.7642  0.0115  0.1555
 8170SOL    HW234980   1.279   6.661   0.694 -1.7619 -1.6812  1.7192
 8171SOL     OW34981   2.279   0.220   1.246  0.5056  0.7756 -0.3511
 8171SOL    HW134982   2.242   0.154   1.180  0.7045  0.8016 -0.4888
 8171SOL    HW234983   2.214   0.231   1.322 -0.5850  2.1476 -1.4617
 8172SOL     OW34984   7.607   8.116   2.184  0.3620 -0.2381  0.0246
 8172SOL    HW134985   7.632   8.178   2.109  0.0351  0.1923  0.2647
 8172SOL    HW234986   7.663   8.034   2.180  0.3540 -0.2111 -0.6877
 8173SOL     OW34987   2.884   9.554   1.843  0.0672  0.2387 -0.0649
 8173SOL    HW134988   2.950   9.482   1.824 -1.3573 -1.1478  0.0941
 8173SOL    HW234989   2.856   9.597   1.757 -1.5806 -1.7062 -0.5622
 8174SOL     OW34990   8.071   6.370   1.936 -0.3455  0.1669  0.5049
 8174SOL    HW134991   7.988   6.409   1.898  1.2571  2.7483 -0.5170
 8174SOL    HW234992   8.093   6.285   1.888 -2.0925 -0.2494  0.4289
 8175SOL     OW34993   9.150   8.040   1.255  0.1822  0.2774  0.3735
 8175SOL    HW134994   9.131   8.123   1.309  0.9457  0.1467  0.8448
 8175SOL    HW234995   9.068   7.983   1.252 -0.5729  1.3977 -0.5641
 8176SOL     OW34996   2.250   8.826   2.031  0.0280 -0.5991 -0.7041
 8176SOL    HW134997   2.208   8.828   1.940  0.1964 -0.9070 -0.7882
 8176SOL    HW234998   2.219   8.905   2.084  1.7561  0.8997 -1.8567
 8177SOL     OW34999   1.206   9.606   3.957 -0.0782  0.1085  0.4314
 8177SOL    HW135000   1.266   9.560   3.892  0.5568 -0.1561  1.2018
 8177SOL    HW235001   1.137   9.659   3.907  0.0645 -0.5279 -0.4567
 8178SOL     OW35002   0.799   6.140   2.887 -0.0835 -0.4295 -0.2886
 8178SOL    HW135003   0.782   6.066   2.952 -0.5396 -0.3352 -0.2990
 8178SOL    HW235004   0.833   6.103   2.801  0.6484 -0.5451  0.0513
 8179SOL     OW35005   9.996   9.640   1.970  0.2368 -0.0915  0.4278
 8179SOL    HW135006   9.903   9.662   1.999  0.3249  1.2132 -0.2419
 8179SOL    HW235007  10.021   9.697   1.892  2.5231  1.4841  2.2279
 8180SOL     OW35008   0.497   4.177   1.412 -0.3751 -0.0019  0.8467
 8180SOL    HW135009   0.528   4.212   1.323 -2.7307  1.9282  0.7458
 8180SOL    HW235010   0.400   4.156   1.408 -0.1709 -1.4223  2.5459
 8181SOL     OW35011   0.559   1.958   4.618  0.5465 -0.2758  0.2709
 8181SOL    HW135012   0.492   1.942   4.691 -0.7562  1.3407 -0.5273
 8181SOL    HW235013   0.651   1.965   4.657  0.0938 -1.3242  1.5255
 8182SOL     OW35014   1.864   4.908   1.150 -0.1517 -0.4368  0.0931
 8182SOL    HW135015   1.895   4.845   1.079  0.7799 -0.8322  0.8386
 8182SOL    HW235016   1.936   4.974   1.170 -0.5190 -0.1386  0.4523
 8183SOL     OW35017   4.165   4.355   0.112  1.1350 -0.0260  0.0341
 8183SOL    HW135018   4.159   4.274   0.171 -0.5066 -1.0978 -1.5572
 8183SOL    HW235019   4.225   4.336   0.035  0.2027  0.0146 -0.7110
 8184SOL     OW35020   0.459   5.705   3.306  0.5832 -0.5133 -0.4756
 8184SOL    HW135021   0.443   5.753   3.220 -0.6449 -2.4210 -1.3573
 8184SOL    HW235022   0.382   5.642   3.324  1.2036 -0.7331  1.6089
 8185SOL     OW35023   7.050   7.405   2.266 -0.3432 -0.0227  0.1272
 8185SOL    HW135024   7.075   7.453   2.182  0.4761  0.4118  0.6117
 8185SOL    HW235025   7.129   7.404   2.328 -0.5828 -1.3530  0.4139
 8186SOL     OW35026   0.004   7.166   4.394  0.7009  0.6715 -0.0796
 8186SOL    HW135027  -0.007   7.209   4.484  0.2249 -0.7694  0.5684
 8186SOL    HW235028   0.072   7.216   4.341 -0.1076  2.4439  0.5090
 8187SOL     OW35029   0.773   7.455   3.649 -0.4028 -0.1409 -0.4070
 8187SOL    HW135030   0.821   7.538   3.679  0.4265 -0.0381 -2.0065
 8187SOL    HW235031   0.800   7.432   3.556 -1.9984 -1.1922 -0.6298
 8188SOL     OW35032   9.203   7.689   2.481 -0.2396 -0.1527  0.3469
 8188SOL    HW135033   9.190   7.686   2.381  1.4931  1.5028  0.0524
 8188SOL    HW235034   9.169   7.604   2.521 -2.4960 -0.1403 -1.4612
 8189SOL     OW35035   4.905   8.991   3.648  0.6665 -0.3200 -0.6312
 8189SOL    HW135036   4.859   8.922   3.592 -0.6086 -1.1811  1.4351
 8189SOL    HW235037   4.839   9.033   3.711  1.6515  2.0382 -1.0939
 8190SOL     OW35038   2.650   0.028   2.889  0.2507  0.0286 -0.2018
 8190SOL    HW135039   2.566   0.057   2.935 -0.9849 -1.2920 -1.5688
 8190SOL    HW235040   2.729   0.061   2.940 -1.0942  0.5250  1.6101
 8191SOL     OW35041   0.458   7.134   3.100 -0.1322 -0.4192  0.4750
 8191SOL    HW135042   0.364   7.148   3.131 -0.4005 -0.8373 -0.1491
 8191SOL    HW235043   0.460   7.064   3.030  0.8096 -1.2510  1.3168
 8192SOL     OW35044   3.530   7.286   1.965 -1.0467  0.0113  0.4735
 8192SOL    HW135045   3.503   7.349   2.038  1.7948  2.6005 -0.6175
 8192SOL    HW235046   3.526   7.333   1.877  1.3787 -1.2314 -0.3527
 8193SOL     OW35047   5.645   0.002   2.870  0.1901  0.3891 -0.0354
 8193SOL    HW135048   5.618   0.085   2.821  0.2124 -1.0338 -2.5646
 8193SOL    HW235049   5.583  -0.013   2.946 -0.4911  2.1140 -0.2166
 8194SOL     OW35050   1.038   2.359   0.080 -0.1414 -0.3853  0.2680
 8194SOL    HW135051   1.039   2.446   0.128 -0.7806 -0.2657  0.0749
 8194SOL    HW235052   0.943   2.327   0.069  0.0591 -0.9156  0.0060
 8195SOL     OW35053   0.517   1.647   3.464 -0.4197 -0.1780  0.6454
 8195SOL    HW135054   0.485   1.741   3.463  1.2861  0.4582  2.7204
 8195SOL    HW235055   0.570   1.629   3.380 -1.4803  0.4193 -0.1635
 8196SOL     OW35056   2.912   7.650   4.085  0.3103 -0.1406 -0.3352
 8196SOL    HW135057   2.968   7.568   4.087  0.8579  0.2571  1.1336
 8196SOL    HW235058   2.916   7.696   4.174 -1.8180  0.2500 -0.4137
 8197SOL     OW35059   2.621   3.375   2.252  0.0554  0.0067  0.0663
 8197SOL    HW135060   2.703   3.422   2.221  1.3632 -1.2393  1.5170
 8197SOL    HW235061   2.612   3.288   2.204 -1.0752  0.6775 -0.9444
 8198SOL     OW35062   2.846   5.924   0.758 -0.4524 -0.5031  0.3630
 8198SOL    HW135063   2.797   5.869   0.826 -0.6537  0.0011  0.6336
 8198SOL    HW235064   2.815   6.019   0.764  1.2470  0.0311  1.2095
 8199SOL     OW35065   0.413   3.945   0.735 -0.5495  0.2003 -0.1916
 8199SOL    HW135066   0.460   3.861   0.763  0.7894  0.8613 -0.4200
 8199SOL    HW235067   0.321   3.946   0.774 -0.6516 -1.4672 -0.3473
 8200SOL     OW35068   2.507   9.582   2.144 -0.2438 -1.0669 -0.1079
 8200SOL    HW135069   2.558   9.553   2.225 -1.5378 -1.4120  0.6133
 8200SOL    HW235070   2.498   9.505   2.081  2.1646 -0.3655 -1.3635
 8201SOL     OW35071   2.428   9.168   0.380 -0.1298  0.1914  0.0065
 8201SOL    HW135072   2.378   9.138   0.299  0.2771 -0.4230 -0.0240
 8201SOL    HW235073   2.506   9.107   0.395  0.2181  0.7357  0.4383
 8202SOL     OW35074   1.682   8.089   1.943 -0.5165  0.2222 -0.4336
 8202SOL    HW135075   1.714   8.175   1.905  0.7249 -0.6319 -1.3626
 8202SOL    HW235076   1.707   8.014   1.882 -0.7454 -0.8922  0.8164
 8203SOL     OW35077   9.175   7.772   0.009  0.3086  0.0666 -0.2892
 8203SOL    HW135078   9.243   7.721  -0.044 -0.2448  0.3228 -1.2703
 8203SOL    HW235079   9.220   7.818   0.085  1.6903  2.1642 -2.2879
 8204SOL     OW35080   9.626   7.148   1.042 -0.5090 -0.4471 -0.2675
 8204SOL    HW135081   9.633   7.247   1.032 -1.8713 -0.0973  1.9433
 8204SOL    HW235082   9.669   7.104   0.963  2.1052  1.8595 -0.2299
 8205SOL     OW35083   3.507   2.525   0.576  0.0514  0.4632  0.0464
 8205SOL    HW135084   3.460   2.477   0.650 -1.5875  0.1429 -1.1732
 8205SOL    HW235085   3.579   2.466   0.538 -0.2446 -0.0309  0.2462
 8206SOL     OW35086   4.089   9.942   3.510  0.4084 -0.1691  0.1072
 8206SOL    HW135087   4.154   9.963   3.437 -0.6150  0.2815 -0.6804
 8206SOL    HW235088   4.033  10.022   3.529  0.3475 -0.4324  1.0717
 8207SOL     OW35089   1.205   4.123   2.504 -0.4855 -0.0527  0.0497
 8207SOL    HW135090   1.252   4.115   2.592  1.4273  0.9190 -0.8486
 8207SOL    HW235091   1.252   4.066   2.437 -1.0528  0.3470 -0.6814
 8208SOL     OW35092   8.138   7.758   1.762  0.5754 -0.1832  0.2470
 8208SOL    HW135093   8.186   7.702   1.694 -1.0095 -0.9111 -0.2926
 8208SOL    HW235094   8.071   7.816   1.716  0.2358  0.1006  1.0833
 8209SOL     OW35095   3.645   0.787   3.468 -0.7095 -0.3424 -0.2589
 8209SOL    HW135096   3.677   0.697   3.497  0.0757 -0.3364 -1.1032
 8209SOL    HW235097   3.719   0.854   3.478 -0.5645 -0.2550 -1.8755
 8210SOL     OW35098   1.633   1.446   2.713  0.1540  0.0494 -0.3290
 8210SOL    HW135099   1.724   1.486   2.699 -0.6298  1.4054 -1.8067
 8210SOL    HW235100   1.636   1.381   2.788  1.7057  2.2655  1.6087
 8211SOL     OW35101   3.584   2.456   2.169 -0.0226 -0.2747 -0.1754
 8211SOL    HW135102   3.593   2.550   2.201  1.4145  0.0612 -1.5186
 8211SOL    HW235103   3.656   2.400   2.210  0.3795 -0.3459 -0.9733
 8212SOL     OW35104   8.053   8.623   3.210  0.0270  0.1457 -0.0682
 8212SOL    HW135105   8.054   8.609   3.309 -1.4419  0.2018 -0.0373
 8212SOL    HW235106   8.122   8.691   3.185  2.2288 -1.7816  0.6072
 8213SOL     OW35107   7.722   0.770   1.597  0.3615  0.3982 -0.3343
 8213SOL    HW135108   7.806   0.723   1.568  0.2404 -0.2614  0.3651
 8213SOL    HW235109   7.734   0.805   1.690  0.4246  1.7029 -0.8328
 8214SOL     OW35110   0.040   6.842   0.633  0.5801  0.0741  0.6215
 8214SOL    HW135111   0.118   6.864   0.691  3.3227 -5.2696 -0.6709
 8214SOL    HW235112   0.053   6.881   0.542  1.7087 -0.6060  0.4814
 8215SOL     OW35113   8.262   8.988   4.084  0.1230 -0.2544  0.3014
 8215SOL    HW135114   8.319   8.934   4.146  0.2054 -0.6685 -0.1298
 8215SOL    HW235115   8.296   9.081   4.081 -0.0160 -0.1744  1.0492
 8216SOL     OW35116   1.629   9.859   2.992  0.0836 -0.2870 -0.7959
 8216SOL    HW135117   1.563   9.927   3.025 -1.0992 -2.3005  1.0780
 8216SOL    HW235118   1.591   9.811   2.913 -0.5262 -1.2070  0.0660
 8217SOL     OW35119   8.824   7.830   3.841  0.1906  0.0136  0.0167
 8217SOL    HW135120   8.887   7.907   3.838  1.1509 -0.7254  1.1217
 8217SOL    HW235121   8.781   7.820   3.751  0.4331  1.5123 -0.2860
 8218SOL     OW35122   9.767   9.190   3.678  0.2153 -0.3013 -0.1455
 8218SOL    HW135123   9.763   9.289   3.663 -2.3549  0.1919  3.1300
 8218SOL    HW235124   9.703   9.144   3.616 -1.4087  0.4871  0.9124
 8219SOL     OW35125   3.587   2.734   2.265  0.1758  0.3023 -0.3411
 8219SOL    HW135126   3.648   2.747   2.186  2.7343 -1.0581  1.3473
 8219SOL    HW235127   3.594   2.813   2.325 -0.3672  0.5139 -0.5554
 8220SOL     OW35128   2.800   3.540   2.146  0.0998  0.0483 -0.6753
 8220SOL    HW135129   2.746   3.595   2.081  1.2837  0.1178 -1.6108
 8220SOL    HW235130   2.840   3.599   2.215 -0.1975  0.1210 -0.5648
 8221SOL     OW35131   3.834   9.765   2.829 -0.2598 -0.5169 -0.0409
 8221SOL    HW135132   3.769   9.795   2.900  0.4332  0.4789  0.1927
 8221SOL    HW235133   3.785   9.752   2.743 -0.5228  1.9803 -0.3255
 8222SOL     OW35134   0.526   5.419   3.202 -0.0842 -0.1254 -0.1739
 8222SOL    HW135135   0.485   5.458   3.119 -0.7413  1.8924  1.0564
 8222SOL    HW235136   0.461   5.427   3.278  0.6235 -1.6787  0.6080
 8223SOL     OW35137   1.913   1.145   2.925  0.7339  0.3412  0.2077
 8223SOL    HW135138   1.821   1.184   2.913 -0.6533 -2.1383  2.3824
 8223SOL    HW235139   1.980   1.220   2.927 -1.3649  2.3056  0.1003
 8224SOL     OW35140   2.152   5.196   0.129  0.2676 -0.4137 -0.5497
 8224SOL    HW135141   2.218   5.260   0.168  0.3117  0.2502 -1.6920
 8224SOL    HW235142   2.060   5.221   0.159  0.5419 -1.5235  1.2913
 8225SOL     OW35143   9.913   6.843   1.579 -0.4979 -0.7171 -1.0056
 8225SOL    HW135144   9.885   6.939   1.578  0.1805 -0.4093  2.2985
 8225SOL    HW235145   9.995   6.831   1.525 -1.2321  0.3412 -2.3724
 8226SOL     OW35146   9.250   5.692   3.814 -0.2434  0.6210 -0.4162
 8226SOL    HW135147   9.218   5.761   3.748 -1.0753  1.6382  1.0211
 8226SOL    HW235148   9.259   5.734   3.904 -4.1821 -1.9226  1.3103
 8227SOL     OW35149   9.457   7.291   4.397 -0.0077  0.3941  0.0394
 8227SOL    HW135150   9.429   7.281   4.493  1.5864 -1.4767  0.3154
 8227SOL    HW235151   9.467   7.201   4.355  1.0861  1.1556 -1.3725
 8228SOL     OW35152   3.074   4.120   4.282  0.5574  0.3051 -0.0875
 8228SOL    HW135153   3.022   4.203   4.300  1.6648  0.5744  2.0673
 8228SOL    HW235154   3.062   4.093   4.187 -2.3966  1.1224  0.0037
 8229SOL     OW35155   0.380   6.075   1.655  0.1542 -0.0423 -0.2770
 8229SOL    HW135156   0.307   6.013   1.629  0.1178  0.4131 -1.2632
 8229SOL    HW235157   0.460   6.022   1.685 -0.0146 -0.5578 -0.7320
 8230SOL     OW35158   1.132   4.435   4.347 -0.4109  0.1933 -0.2133
 8230SOL    HW135159   1.145   4.531   4.373  0.4264 -0.3628  1.4960
 8230SOL    HW235160   1.195   4.413   4.272  1.9693  0.0615  1.7480
 8231SOL     OW35161   1.834   2.448   0.795 -0.2194  0.1559  0.1054
 8231SOL    HW135162   1.739   2.442   0.764 -0.2613 -0.4694  0.3513
 8231SOL    HW235163   1.876   2.530   0.757 -0.0296 -0.9952 -2.2591
 8232SOL     OW35164   7.533   8.436   0.746 -0.4043 -0.0078 -0.5977
 8232SOL    HW135165   7.509   8.381   0.825 -0.9315  1.6114  0.3993
 8232SOL    HW235166   7.572   8.378   0.675 -0.2786 -1.5357  0.7025
 8233SOL     OW35167   2.336   8.994   1.513 -0.4031  0.1735 -0.1063
 8233SOL    HW135168   2.380   8.904   1.511  0.8550  0.7464  1.3027
 8233SOL    HW235169   2.237   8.982   1.515 -0.2869 -1.1519 -1.2225
 8234SOL     OW35170   0.336   6.401   0.389  0.0245 -1.0163 -0.3066
 8234SOL    HW135171   0.329   6.322   0.328 -0.3592 -1.2694  0.0691
 8234SOL    HW235172   0.324   6.372   0.483  1.3469 -0.7339 -0.0428
 8235SOL     OW35173   3.039   5.307   4.196  0.2490 -0.0530 -0.4894
 8235SOL    HW135174   3.051   5.208   4.185  0.0932 -0.0936 -0.2971
 8235SOL    HW235175   2.945   5.327   4.222  0.1856  0.1773 -0.8810
 8236SOL     OW35176   2.455   1.825   1.602  0.2871 -0.0456  0.5904
 8236SOL    HW135177   2.549   1.855   1.587  0.8777 -2.0269  0.1922
 8236SOL    HW235178   2.409   1.889   1.664  2.7437 -0.5619  3.0311
 8237SOL     OW35179   3.983   0.566   4.599  0.0831 -0.1770  0.0777
 8237SOL    HW135180   4.031   0.484   4.566  2.0272  1.0709 -0.2826
 8237SOL    HW235181   3.887   0.544   4.614 -0.3319 -1.4959 -3.8941
 8238SOL     OW35182   1.198   9.856   1.662  0.0087 -0.0662 -0.7262
 8238SOL    HW135183   1.246   9.861   1.750 -0.9056 -1.1654 -0.1434
 8238SOL    HW235184   1.183   9.760   1.638  1.1520  0.1892 -2.6005
 8239SOL     OW35185   3.637   3.999   3.334  0.1527  0.1030  0.6004
 8239SOL    HW135186   3.539   3.999   3.314  0.4672 -0.6870 -0.9791
 8239SOL    HW235187   3.672   4.092   3.324  0.3809 -0.2914 -3.1491
 8240SOL     OW35188   9.112   6.456   2.458 -0.0189  0.2200 -0.2888
 8240SOL    HW135189   9.211   6.445   2.447 -0.2141 -0.5201 -1.4817
 8240SOL    HW235190   9.067   6.371   2.429 -1.0182  0.6709 -0.0529
 8241SOL     OW35191   4.830   9.232   1.379 -0.5929 -0.1150  0.0012
 8241SOL    HW135192   4.800   9.298   1.448  0.2435 -0.4697  0.7196
 8241SOL    HW235193   4.771   9.151   1.382 -0.1662 -0.4031  0.7504
 8242SOL     OW35194   0.383   9.760   4.656  0.0937 -0.3906  0.4276
 8242SOL    HW135195   0.351   9.666   4.658 -0.9413 -0.0534  0.3393
 8242SOL    HW235196   0.377   9.795   4.562 -2.5875  0.7601  0.9783
 8243SOL     OW35197   2.488   6.877   3.029  0.3316  0.1627 -0.9140
 8243SOL    HW135198   2.393   6.847   3.034  0.3927 -0.4082 -2.6665
 8243SOL    HW235199   2.549   6.799   3.046  0.5156  0.7677  1.3920
 8244SOL     OW35200   3.754   3.216   1.609 -0.2604  0.0945  0.2999
 8244SOL    HW135201   3.791   3.176   1.525  1.3699 -0.3696  1.2169
 8244SOL    HW235202   3.677   3.162   1.640  1.8896 -2.4128  1.5060
 8245SOL     OW35203   2.287   8.447   0.305 -0.2063 -0.3994  0.1324
 8245SOL    HW135204   2.270   8.485   0.214  2.8056 -0.3122 -0.4297
 8245SOL    HW235205   2.287   8.347   0.300  2.4816 -0.3799 -0.4732
 8246SOL     OW35206   1.884   4.674   0.993  0.0631  0.1913 -0.1440
 8246SOL    HW135207   1.827   4.622   1.057  1.7360 -1.0965  0.3109
 8246SOL    HW235208   1.947   4.613   0.947  1.2072  1.6336 -0.5254
 8247SOL     OW35209   1.359   7.881   3.771  0.6594 -0.7077 -0.0221
 8247SOL    HW135210   1.346   7.825   3.689 -1.1256 -2.6307  1.5121
 8247SOL    HW235211   1.295   7.957   3.770  1.0244 -0.4076 -0.6767
 8248SOL     OW35212   7.832   0.409   1.206 -0.2191  0.9439 -0.2950
 8248SOL    HW135213   7.742   0.450   1.213 -0.4274  0.4991 -0.3621
 8248SOL    HW235214   7.842   0.339   1.277  0.4719  1.7557  0.4194
 8249SOL     OW35215   0.387   1.855   0.349 -0.0047  0.2438 -0.1491
 8249SOL    HW135216   0.441   1.929   0.309  0.9145 -0.8805 -1.0362
 8249SOL    HW235217   0.361   1.879   0.442  1.1411  1.2641 -0.0775
 8250SOL     OW35218   3.513   3.955   2.043 -0.0745  0.2941  0.7121
 8250SOL    HW135219   3.517   4.030   1.977 -2.3039 -0.2706 -0.1122
 8250SOL    HW235220   3.577   3.973   2.118  1.1074  1.8707 -0.6242
 8251SOL     OW35221   4.103   2.160   1.931 -0.5548  0.1863 -0.0798
 8251SOL    HW135222   4.146   2.139   1.844 -0.6252  0.3318 -0.1510
 8251SOL    HW235223   4.160   2.127   2.006 -0.2066  0.5901 -0.1668
 8252SOL     OW35224   1.032   7.043   2.695 -0.9547  0.4814 -0.0075
 8252SOL    HW135225   0.965   7.055   2.768  0.0769  0.9207  0.8832
 8252SOL    HW235226   0.991   6.993   2.619 -2.4203  1.1397  0.3440
 8253SOL     OW35227   9.882   9.632   3.215  0.1199  0.2744 -0.4661
 8253SOL    HW135228   9.913   9.727   3.222  1.3441 -0.2259  1.1926
 8253SOL    HW235229   9.955   9.575   3.178 -0.1709 -0.2446 -0.2573
 8254SOL     OW35230   1.475   6.273   0.059  0.1073  0.2063  0.1390
 8254SOL    HW135231   1.547   6.230   0.114  0.2270  0.6680  0.3474
 8254SOL    HW235232   1.515   6.307  -0.026  0.0188 -0.0606 -0.0110
 8255SOL     OW35233   3.025   3.292   0.285 -0.5246 -0.0443  0.3032
 8255SOL    HW135234   3.002   3.318   0.378  0.4510  1.2805  0.1941
 8255SOL    HW235235   3.112   3.243   0.284 -1.0812 -1.0518  0.2058
 8256SOL     OW35236   9.756   0.450   3.150 -0.2076  0.1810  0.4114
 8256SOL    HW135237   9.724   0.426   3.241  1.1466 -2.4224  0.2574
 8256SOL    HW235238   9.679   0.453   3.086 -0.5674 -3.1313  0.6220
 8257SOL     OW35239   4.488   0.545   4.432  0.1192 -0.0801  0.1162
 8257SOL    HW135240   4.551   0.623   4.432 -0.1374  0.1448 -1.4025
 8257SOL    HW235241   4.426   0.552   4.510  1.2033  0.3272  0.9517
 8258SOL     OW35242   1.676   5.779   3.322 -0.0819  0.0550  0.2233
 8258SOL    HW135243   1.741   5.840   3.367  1.2241 -1.5400  0.5102
 8258SOL    HW235244   1.677   5.797   3.223 -0.1687  0.9162  0.3701
 8259SOL     OW35245   4.296   9.721   4.107  0.1999 -0.4095  0.0490
 8259SOL    HW135246   4.358   9.703   4.031 -0.6492  0.9030 -0.9779
 8259SOL    HW235247   4.239   9.800   4.086 -1.3981 -1.1980  1.2389
 8260SOL     OW35248   6.287   9.349   3.107 -0.1876 -0.3232  0.2191
 8260SOL    HW135249   6.263   9.252   3.103 -3.2922  0.3029  1.8583
 8260SOL    HW235250   6.204   9.404   3.097  1.7122  2.2579 -2.3910
 8261SOL     OW35251   1.840   9.544   1.307 -0.3157 -0.4873 -0.0191
 8261SOL    HW135252   1.822   9.445   1.307  2.1486 -0.9690 -1.1451
 8261SOL    HW235253   1.873   9.572   1.397  2.3712 -1.3839 -0.6817
 8262SOL     OW35254   7.618   9.055   4.637  0.5871 -0.5351 -0.2343
 8262SOL    HW135255   7.590   9.072   4.542  1.6273 -0.6171 -0.5717
 8262SOL    HW235256   7.538   9.043   4.694 -0.0890  0.8579 -0.8574
 8263SOL     OW35257   7.271   9.866   3.487  0.3061 -0.0769  0.5713
 8263SOL    HW135258   7.356   9.815   3.486 -0.9665 -2.2553 -0.5663
 8263SOL    HW235259   7.277   9.941   3.553  2.9949 -0.3121  0.6380
 8264SOL     OW35260   9.773   8.204   4.558 -0.0725 -0.0566  0.1817
 8264SOL    HW135261   9.726   8.204   4.470  0.3342 -2.4230 -0.0820
 8264SOL    HW235262   9.865   8.168   4.547  0.6788  1.5171  1.2454
 8265SOL     OW35263   0.409   5.867   2.642  0.5209 -0.6930 -0.2812
 8265SOL    HW135264   0.465   5.939   2.602 -0.2425  0.2097  0.2505
 8265SOL    HW235265   0.434   5.855   2.739  0.7832 -1.2804 -0.4190
 8266SOL     OW35266   7.698   9.008   1.329  0.3315  0.0161  0.2118
 8266SOL    HW135267   7.797   9.024   1.327  0.3556 -0.2670 -1.6569
 8266SOL    HW235268   7.654   9.066   1.260 -0.6301 -1.0434 -0.0701
 8267SOL     OW35269   1.345   8.768   2.588 -0.6208  0.1485  0.0960
 8267SOL    HW135270   1.331   8.669   2.596 -0.2602 -0.2400 -3.5115
 8267SOL    HW235271   1.288   8.805   2.515  1.2846  2.1257 -0.4691
 8268SOL     OW35272   4.690   2.207   2.447 -0.4705  0.4334  0.0657
 8268SOL    HW135273   4.738   2.183   2.532 -1.9223 -1.9085  0.2798
 8268SOL    HW235274   4.720   2.144   2.374 -0.5413  1.3024 -0.7208
 8269SOL     OW35275   3.334   1.338   2.941 -0.5300 -0.0763 -0.1233
 8269SOL    HW135276   3.348   1.433   2.913 -0.2071 -0.5760 -1.7280
 8269SOL    HW235277   3.345   1.330   3.040 -0.5313  1.5479  0.0170
 8270SOL     OW35278   5.440   8.515   2.663  0.0949  0.3045 -0.4459
 8270SOL    HW135279   5.456   8.563   2.749 -0.7193 -1.3629  0.6602
 8270SOL    HW235280   5.342   8.504   2.648  0.2454  0.0715 -1.2999
 8271SOL     OW35281   9.934   6.063   1.611  0.5606 -0.2465  0.0450
 8271SOL    HW135282   9.905   6.121   1.535 -0.5863  0.1665  0.7800
 8271SOL    HW235283   9.920   6.112   1.697  0.3836 -1.2958  0.6171
 8272SOL     OW35284   1.185   8.046   1.718 -0.3325 -0.7037  0.0359
 8272SOL    HW135285   1.177   8.086   1.627 -1.1062  0.9056  0.7826
 8272SOL    HW235286   1.263   7.984   1.721  1.6653  1.7318 -0.8277
 8273SOL     OW35287   4.232   8.901   1.600  0.1279  0.0027 -0.0295
 8273SOL    HW135288   4.229   8.877   1.697 -0.6702 -0.0799 -0.0655
 8273SOL    HW235289   4.291   8.836   1.551 -1.7856 -1.7657 -0.0728
 8274SOL     OW35290   0.723   5.324   3.667 -0.1213  0.7871 -0.5827
 8274SOL    HW135291   0.757   5.284   3.582  1.0064  0.7121 -0.1062
 8274SOL    HW235292   0.740   5.422   3.667  0.7404  0.6477 -0.0540
 8275SOL     OW35293   4.043   8.769   1.425  0.6295 -0.5150 -0.0697
 8275SOL    HW135294   3.945   8.765   1.446  0.5902 -0.1650 -0.1943
 8275SOL    HW235295   4.090   8.822   1.495  0.8045 -1.0868  0.2542
 8276SOL     OW35296   1.577   7.817   0.494 -0.1910 -0.3619 -0.2648
 8276SOL    HW135297   1.592   7.904   0.540 -1.5307  0.2015 -0.8777
 8276SOL    HW235298   1.516   7.830   0.416 -0.7814 -1.9188 -0.0887
 8277SOL     OW35299   4.187   0.046   4.752  0.2629  0.0973 -0.7213
 8277SOL    HW135300   4.265   0.076   4.696  1.4765 -0.6570  0.5090
 8277SOL    HW235301   4.171  -0.052   4.736 -0.9164  0.4114 -1.5171
 8278SOL     OW35302   3.651   0.970   3.894 -0.0989  0.2811  0.2149
 8278SOL    HW135303   3.709   1.000   3.818  1.4758  0.5613  1.5109
 8278SOL    HW235304   3.568   1.026   3.897  0.1944  0.7792 -0.8139
 8279SOL     OW35305   1.557   3.194   2.012  0.5478  0.3681 -0.1844
 8279SOL    HW135306   1.468   3.150   1.999  1.8312 -1.4389 -3.8729
 8279SOL    HW235307   1.623   3.126   2.044  1.5879  0.5435 -1.8710
 8280SOL     OW35308   2.321   4.445   2.620  0.6516  0.0306 -0.2265
 8280SOL    HW135309   2.340   4.434   2.522 -1.1762 -0.4655 -0.5433
 8280SOL    HW235310   2.312   4.542   2.641  1.3626  0.1585 -0.4798
 8281SOL     OW35311   0.498   0.553   4.338  0.4311 -0.0179  0.4549
 8281SOL    HW135312   0.581   0.600   4.368  2.3627 -2.5703 -0.7180
 8281SOL    HW235313   0.464   0.595   4.254  0.0081  1.5703  1.3914
 8282SOL     OW35314   4.883   1.162   2.495 -0.6070 -0.2082 -0.2936
 8282SOL    HW135315   4.887   1.081   2.555  1.0017  0.7470  0.9435
 8282SOL    HW235316   4.960   1.160   2.432 -0.2381  0.6324  0.1202
 8283SOL     OW35317   4.455   8.382   1.640 -0.4142 -0.4808 -0.0514
 8283SOL    HW135318   4.498   8.470   1.658 -0.4428 -1.0037  2.7302
 8283SOL    HW235319   4.525   8.314   1.618 -0.0759 -0.5462  1.1810
 8284SOL     OW35320   2.892   2.772   2.983 -0.6693  0.0919 -0.1445
 8284SOL    HW135321   2.796   2.744   2.992 -0.1799 -1.6776 -0.3363
 8284SOL    HW235322   2.951   2.705   3.027  0.6436 -0.0251 -2.0130
 8285SOL     OW35323   1.675   5.492   2.989 -0.2656 -0.1424 -0.2210
 8285SOL    HW135324   1.702   5.482   3.085 -0.2640 -0.0417 -0.2109
 8285SOL    HW235325   1.754   5.475   2.930  0.0437  1.0499 -0.1583
 8286SOL     OW35326   3.303   3.331   3.683  0.4074 -0.1539 -0.2131
 8286SOL    HW135327   3.396   3.311   3.653  0.6863  1.0834 -0.2070
 8286SOL    HW235328   3.293   3.308   3.780  0.4646 -1.0503 -0.4145
 8287SOL     OW35329   9.007   8.586   2.191 -0.1721 -0.6096 -0.0365
 8287SOL    HW135330   9.063   8.528   2.251 -1.1346 -1.3523  0.1637
 8287SOL    HW235331   8.937   8.530   2.147 -2.5700  0.7631  1.9163
 8288SOL     OW35332   8.957   9.888   2.871  0.1488  0.0323  0.8022
 8288SOL    HW135333   8.952   9.985   2.897  2.3774  0.6508 -0.9814
 8288SOL    HW235334   9.052   9.860   2.863 -0.4321 -2.8423  3.0731
 8289SOL     OW35335   3.524   0.612   3.731  0.3847 -0.2230  0.4216
 8289SOL    HW135336   3.562   0.641   3.819  0.1082  1.0041  0.1377
 8289SOL    HW235337   3.431   0.645   3.722  0.5844  0.0973 -0.5566
 8290SOL     OW35338   3.775   1.258   1.993  0.3492 -0.2220 -0.1549
 8290SOL    HW135339   3.813   1.307   1.915  2.2272 -0.6474  0.4492
 8290SOL    HW235340   3.727   1.321   2.053  1.1117  0.5648 -0.3606
 8291SOL     OW35341   1.650   5.542   3.904  0.1233 -0.4051 -0.3773
 8291SOL    HW135342   1.625   5.491   3.986  0.2493 -0.5382 -0.4207
 8291SOL    HW235343   1.573   5.598   3.874  0.7324  1.2248  1.0168
 8292SOL     OW35344   3.924   7.436   3.532 -0.2811  0.3817  0.2376
 8292SOL    HW135345   3.973   7.521   3.552 -0.0526  0.5176 -0.8788
 8292SOL    HW235346   3.984   7.358   3.548  0.5331  0.5736 -1.7471
 8293SOL     OW35347   4.924   8.380   2.132  0.0896 -0.2261 -0.1627
 8293SOL    HW135348   4.944   8.381   2.230  1.0656 -1.9707 -0.3231
 8293SOL    HW235349   4.917   8.474   2.099 -0.2525  0.3814  1.5745
 8294SOL     OW35350   0.929   8.654   2.073 -0.0953  0.5375  0.4203
 8294SOL    HW135351   0.981   8.655   1.988  1.4152  2.9478  1.3260
 8294SOL    HW235352   0.991   8.651   2.151 -1.4003  0.5012  1.4793
 8295SOL     OW35353   9.072   7.012   1.032  0.2366 -0.1490  0.6346
 8295SOL    HW135354   9.148   6.949   1.046  0.6534 -0.0807 -1.2066
 8295SOL    HW235355   8.992   6.960   1.002  0.0325 -0.0157  0.9430
 8296SOL     OW35356   0.629   2.379   2.250  0.0987  0.3168  0.1720
 8296SOL    HW135357   0.589   2.303   2.199  1.0255 -0.2971  0.3326
 8296SOL    HW235358   0.662   2.449   2.187 -1.4618  0.9643  0.0497
 8297SOL     OW35359   0.859   9.135   3.196 -0.9501  0.6330 -0.5620
 8297SOL    HW135360   0.848   9.044   3.236  1.1972  0.6035  0.0614
 8297SOL    HW235361   0.938   9.180   3.239 -1.6617  2.5672 -1.2564
 8298SOL     OW35362   3.362   1.809   4.664 -0.2667  0.1175  0.6339
 8298SOL    HW135363   3.383   1.789   4.569  0.1725  0.4309  0.6654
 8298SOL    HW235364   3.447   1.815   4.717 -0.3530  2.6504  0.5241
 8299SOL     OW35365   1.414   5.363   4.721  0.8654  0.1892  0.6293
 8299SOL    HW135366   1.348   5.302   4.764  1.5601 -0.4626  0.7728
 8299SOL    HW235367   1.474   5.311   4.660  0.3486  0.9913 -0.5985
 8300SOL     OW35368   0.102   6.063   1.948 -0.0886 -0.0780  0.0340
 8300SOL    HW135369   0.023   6.082   2.006 -1.6138 -0.4532 -1.8442
 8300SOL    HW235370   0.162   6.144   1.946 -0.4443  0.2264  1.4452
 8301SOL     OW35371   1.823   2.949   2.874  0.5442  0.4711 -0.4245
 8301SOL    HW135372   1.923   2.950   2.880  0.4639 -0.0756  1.2093
 8301SOL    HW235373   1.795   2.886   2.801  1.3666  0.0200 -0.3572
 8302SOL     OW35374   4.609   0.116   3.797 -0.8162 -0.8061 -0.0820
 8302SOL    HW135375   4.587   0.210   3.770 -2.7351 -0.8507  1.2552
 8302SOL    HW235376   4.708   0.104   3.799 -0.5372  0.2865 -3.3091
 8303SOL     OW35377   6.945   0.098   1.439 -0.5300 -0.6399 -0.1360
 8303SOL    HW135378   6.960   0.000   1.428 -0.4958 -0.5563 -0.8304
 8303SOL    HW235379   6.919   0.117   1.534 -0.8746 -1.3603 -0.0817
 8304SOL     OW35380   2.324   0.489   1.576 -0.4239 -0.0974 -0.1869
 8304SOL    HW135381   2.390   0.531   1.514 -0.8109  1.1265  0.2088
 8304SOL    HW235382   2.288   0.405   1.535 -0.0944  0.2818 -1.2672
 8305SOL     OW35383   0.237   6.755   3.324 -0.0855  0.2353  0.0757
 8305SOL    HW135384   0.169   6.823   3.353 -0.5909 -0.3420  0.2585
 8305SOL    HW235385   0.302   6.797   3.261 -1.6364  0.3516 -1.4829
 8306SOL     OW35386   9.937   7.992   3.453 -0.2187 -0.3707  0.3620
 8306SOL    HW135387  10.023   7.953   3.488  0.0126 -0.4968 -0.3481
 8306SOL    HW235388   9.956   8.042   3.369 -0.6098  0.7943  0.9659
 8307SOL     OW35389   1.441   2.784   1.931 -0.3302 -0.5845 -0.2554
 8307SOL    HW135390   1.401   2.873   1.951  1.0495  0.0004  0.0163
 8307SOL    HW235391   1.484   2.748   2.014 -2.0001 -2.1038 -0.0396
 8308SOL     OW35392   2.048   3.288   1.124 -0.0708 -0.8129  0.7098
 8308SOL    HW135393   2.044   3.245   1.034 -1.1317  0.5503  0.0900
 8308SOL    HW235394   2.089   3.225   1.190 -0.4645 -2.2906 -0.4479
 8309SOL     OW35395   2.755   9.764   0.725 -0.2108 -0.9124  0.4691
 8309SOL    HW135396   2.676   9.809   0.768  0.3672  2.2270 -1.5741
 8309SOL    HW235397   2.828   9.754   0.793 -0.1624  1.8059  0.8658
 8310SOL     OW35398   9.874   6.353   0.835  0.3809 -0.0423 -0.2944
 8310SOL    HW135399   9.849   6.441   0.794 -1.6407  0.3809  1.7498
 8310SOL    HW235400   9.925   6.370   0.920  2.3990 -0.8866 -1.3047
 8311SOL     OW35401   2.200   9.448   0.652 -0.0310  0.5539 -0.2123
 8311SOL    HW135402   2.203   9.349   0.664  2.0404  0.6730  0.4982
 8311SOL    HW235403   2.109   9.482   0.673 -0.9006 -1.2528 -0.9638
 8312SOL     OW35404   4.232   1.122   3.805 -0.5675 -0.6151  0.2944
 8312SOL    HW135405   4.194   1.206   3.766 -0.5300 -0.5816  0.3291
 8312SOL    HW235406   4.331   1.122   3.794 -0.7230 -1.3981 -1.1401
 8313SOL     OW35407   4.599   0.906   2.538  0.5584 -0.2764  0.3930
 8313SOL    HW135408   4.521   0.846   2.519  1.6664 -1.4688 -0.4108
 8313SOL    HW235409   4.600   0.981   2.472 -0.6605  0.5038  1.2210
 8314SOL     OW35410   0.425   3.721   0.238  0.1690  0.4771 -0.2141
 8314SOL    HW135411   0.418   3.813   0.278  0.8294  0.0135  1.0239
 8314SOL    HW235412   0.425   3.727   0.139 -0.6969  1.7481 -0.1468
 8315SOL     OW35413   5.584   9.397   2.219 -0.5591 -0.6858 -0.2984
 8315SOL    HW135414   5.593   9.425   2.315 -1.8103 -0.6595 -0.1802
 8315SOL    HW235415   5.513   9.328   2.211 -2.2366  1.1189 -1.5550
 8316SOL     OW35416   9.470   8.034   4.738 -0.1540 -0.5018 -0.0571
 8316SOL    HW135417   9.535   8.108   4.754 -1.5283  0.7286 -0.1013
 8316SOL    HW235418   9.470   8.010   4.641  0.0955 -0.3808 -0.0869
 8317SOL     OW35419   7.049   8.175   2.139  0.4738  0.3937 -0.0666
 8317SOL    HW135420   7.108   8.117   2.195 -0.5783 -0.4496  0.1792
 8317SOL    HW235421   7.048   8.140   2.045  0.0644  0.1844  0.0166
 8318SOL     OW35422   0.240   8.103   3.912  0.3868 -0.2518  0.8970
 8318SOL    HW135423   0.301   8.168   3.866  0.9293 -1.3295  0.0691
 8318SOL    HW235424   0.210   8.142   3.999  1.5223  0.6854  0.8899
 8319SOL     OW35425   0.741   0.671   4.446 -0.8091 -0.2745  0.2515
 8319SOL    HW135426   0.813   0.739   4.437 -0.8558 -0.2853 -0.2600
 8319SOL    HW235427   0.724   0.651   4.542  0.9737 -1.4271  0.3469
 8320SOL     OW35428   4.962   1.955   2.627  0.8694  0.6844 -0.3326
 8320SOL    HW135429   5.052   1.917   2.605  0.9441 -0.2349  1.4731
 8320SOL    HW235430   4.893   1.916   2.566  1.3096 -0.5746 -0.0319
 8321SOL     OW35431   8.868   6.720   2.153 -0.2430 -0.4825  0.1262
 8321SOL    HW135432   8.904   6.627   2.152 -0.0232 -0.4138  0.7759
 8321SOL    HW235433   8.775   6.721   2.118  0.0356 -0.8231 -0.6151
 8322SOL     OW35434   6.906   7.032   2.713 -0.0269  0.3923 -0.0497
 8322SOL    HW135435   6.910   7.115   2.769  0.9103  0.1810  0.1994
 8322SOL    HW235436   6.932   7.055   2.619  0.1190  0.3951 -0.0077
 8323SOL     OW35437   8.102   0.714   2.466 -0.0257  0.0476  0.5995
 8323SOL    HW135438   8.128   0.647   2.396 -1.0994 -1.1752  1.3326
 8323SOL    HW235439   8.142   0.688   2.554  2.4709  2.3412  0.2109
 8324SOL     OW35440   0.786   6.654   1.903  0.0444 -0.0230  0.8895
 8324SOL    HW135441   0.697   6.666   1.859  1.1250 -1.3095 -1.8060
 8324SOL    HW235442   0.823   6.742   1.930 -1.1104  0.7288  0.0491
 8325SOL     OW35443   7.482   7.465   2.117 -0.2846  0.2960 -0.5796
 8325SOL    HW135444   7.458   7.369   2.106 -0.1847  0.0652  1.1227
 8325SOL    HW235445   7.569   7.473   2.166 -1.4707  1.2618  1.4525
 8326SOL     OW35446   0.851   2.780   1.454 -0.7425  0.1774  0.2920
 8326SOL    HW135447   0.816   2.867   1.488 -0.7271  0.1248  0.4406
 8326SOL    HW235448   0.848   2.712   1.526 -0.2534  0.1962  0.3379
 8327SOL     OW35449   4.383   7.093   3.342  0.3168  0.5417 -0.4205
 8327SOL    HW135450   4.435   7.012   3.369  1.6276  0.9292 -1.6980
 8327SOL    HW235451   4.294   7.093   3.388  1.2861 -0.3388  1.5327
 8328SOL     OW35452   0.410   7.692   0.067  0.5083  0.2622  0.1520
 8328SOL    HW135453   0.415   7.722   0.162  0.7629 -0.0670  0.2432
 8328SOL    HW235454   0.438   7.767   0.007 -1.6833  1.1693  0.2092
 8329SOL     OW35455   9.770   0.475   2.238 -0.5642 -0.2593 -0.2889
 8329SOL    HW135456   9.709   0.544   2.276  0.0739 -0.2084  0.6783
 8329SOL    HW235457   9.822   0.514   2.162 -0.7005  0.1240 -0.1861
 8330SOL     OW35458   7.209   8.101   2.391  0.0630  0.0721  0.3471
 8330SOL    HW135459   7.140   8.170   2.410 -1.8269 -1.6787 -0.0009
 8330SOL    HW235460   7.300   8.139   2.408 -0.9675  2.4054  0.8062
 8331SOL     OW35461   0.370   6.979   3.772  0.1648  0.3181  0.1681
 8331SOL    HW135462   0.311   7.028   3.708 -0.3121  0.6254  0.8318
 8331SOL    HW235463   0.407   7.044   3.839 -1.8782 -0.4661  2.1251
 8332SOL     OW35464   1.103   4.052   3.591 -0.5537  0.1549  0.2162
 8332SOL    HW135465   1.104   4.150   3.611  0.7284  0.6392 -2.0449
 8332SOL    HW235466   1.182   4.009   3.634 -0.7977  0.2237  0.7322
 8333SOL     OW35467   2.338   5.737   1.828 -0.3183 -0.5350 -0.0552
 8333SOL    HW135468   2.297   5.828   1.835 -0.3034 -0.3885 -1.6543
 8333SOL    HW235469   2.343   5.695   1.919 -2.5784  0.0660  0.3842
 8334SOL     OW35470   0.736   2.135   2.807  0.4288  0.0340  0.0331
 8334SOL    HW135471   0.656   2.164   2.755 -0.4827 -1.8176  0.3696
 8334SOL    HW235472   0.804   2.096   2.745 -0.1709 -1.1011  0.0807
 8335SOL     OW35473   1.376   1.173   0.102  0.6605  0.0100 -0.6354
 8335SOL    HW135474   1.309   1.144   0.033  0.2004  0.4320 -0.3738
 8335SOL    HW235475   1.455   1.215   0.057  0.5636 -0.1234 -0.9285
 8336SOL     OW35476   2.436   6.901   3.325  0.0560 -0.1504 -0.2282
 8336SOL    HW135477   2.353   6.877   3.376  1.0809  1.0375  2.0582
 8336SOL    HW235478   2.413   6.910   3.228 -2.9136  2.0344  0.6100
 8337SOL     OW35479   2.317   6.624   3.996 -0.1189  0.5809  0.6824
 8337SOL    HW135480   2.378   6.555   3.957 -1.0063  0.7459 -1.0643
 8337SOL    HW235481   2.371   6.692   4.045  0.8507 -0.7440  1.4882
 8338SOL     OW35482   7.964   8.628   3.846 -0.6129  0.1459  0.4268
 8338SOL    HW135483   7.894   8.667   3.786 -0.8131  0.5668  0.9266
 8338SOL    HW235484   8.027   8.573   3.792 -2.0326 -1.2385  0.1389
 8339SOL     OW35485   1.933   5.011   0.796 -0.0956 -0.0648  0.3427
 8339SOL    HW135486   2.010   4.974   0.848 -0.2561 -0.4249  0.3321
 8339SOL    HW235487   1.847   4.975   0.833 -0.3369  1.3444  1.1630
 8340SOL     OW35488   4.716   0.486   2.929 -0.1179  0.3671 -0.3996
 8340SOL    HW135489   4.644   0.485   2.858 -1.3432  0.0185  0.8234
 8340SOL    HW235490   4.697   0.559   2.994  1.4412  1.1864 -0.8551
 8341SOL     OW35491   0.872   8.104   3.123 -0.0039  0.2859 -0.3068
 8341SOL    HW135492   0.850   8.142   3.212 -1.6610  1.5597 -1.2340
 8341SOL    HW235493   0.847   8.169   3.051  2.8154 -0.0173 -1.6473
 8342SOL     OW35494   0.820   7.027   2.869 -0.0256 -0.6557  0.2475
 8342SOL    HW135495   0.783   7.120   2.873 -0.7213 -0.9336  0.2281
 8342SOL    HW235496   0.766   6.967   2.926  0.4401 -1.0533  0.2745
 8343SOL     OW35497   3.306   3.899   0.671  1.0067  0.0802  0.5789
 8343SOL    HW135498   3.350   3.889   0.760  1.1852  2.3305  0.7531
 8343SOL    HW235499   3.224   3.956   0.680  0.1704 -0.9109 -0.4444
 8344SOL     OW35500   1.864   2.131   2.921 -0.1724  0.8139 -0.6321
 8344SOL    HW135501   1.922   2.052   2.939 -0.9597  0.6721  1.4105
 8344SOL    HW235502   1.819   2.120   2.832  0.0141 -0.8719 -0.5403
 8345SOL     OW35503   0.447   1.921   1.703 -0.5738  0.8673 -0.9363
 8345SOL    HW135504   0.351   1.935   1.681 -1.3930 -1.6559  0.8065
 8345SOL    HW235505   0.458   1.912   1.802  1.1433 -0.8940 -1.2506
 8346SOL     OW35506   0.052   5.686   0.976  0.8321  0.5650  0.1759
 8346SOL    HW135507   0.067   5.591   0.949 -0.2267  0.3680  0.2642
 8346SOL    HW235508   0.122   5.744   0.935  1.8188 -0.3302  0.5782
 8347SOL     OW35509   2.360   5.753   1.555 -0.4139 -0.2779 -0.7338
 8347SOL    HW135510   2.321   5.742   1.646 -0.0020 -0.2061 -0.5463
 8347SOL    HW235511   2.424   5.679   1.537 -1.2146 -0.8219 -1.3457
 8348SOL     OW35512   1.039   8.725   0.392  0.5159  0.1159 -0.0568
 8348SOL    HW135513   1.091   8.791   0.338 -0.0848  0.3777 -0.3148
 8348SOL    HW235514   0.991   8.772   0.466 -0.9354  0.1714 -0.9976
 8349SOL     OW35515   8.926   9.843   3.294  0.0673  0.2429  0.6980
 8349SOL    HW135516   8.841   9.886   3.263 -1.0365 -3.2498 -1.3904
 8349SOL    HW235517   8.921   9.826   3.392 -2.7074 -2.0477  0.2310
 8350SOL     OW35518   0.741   5.694   1.841  0.4347  0.0913 -0.2403
 8350SOL    HW135519   0.648   5.673   1.810  0.7730 -1.6330 -0.1528
 8350SOL    HW235520   0.776   5.772   1.791 -1.6623  1.7960  0.8702
 8351SOL     OW35521   4.774   8.971   2.990  0.0711  0.2442  0.2019
 8351SOL    HW135522   4.817   8.972   2.900  1.2910  0.4717  0.7839
 8351SOL    HW235523   4.840   8.940   3.058 -0.5299  1.1246  1.1934
 8352SOL     OW35524   2.529   8.494   0.034  0.0337  0.2447 -0.1585
 8352SOL    HW135525   2.601   8.563   0.034  0.9118 -0.6687 -0.2775
 8352SOL    HW235526   2.521   8.454  -0.057  0.4731 -0.7993  0.2591
 8353SOL     OW35527   9.683   9.080   4.704  0.0437  0.3027  0.6147
 8353SOL    HW135528   9.692   9.178   4.721 -0.5195  0.2342  1.3194
 8353SOL    HW235529   9.597   9.063   4.655  1.1413  0.3844 -1.4236
 8354SOL     OW35530   0.504   9.288   2.797  0.6724 -0.3042 -0.3078
 8354SOL    HW135531   0.518   9.377   2.840  1.0263 -2.1371  3.5504
 8354SOL    HW235532   0.407   9.263   2.804  0.3761  0.1208 -2.2778
 8355SOL     OW35533   7.243   7.252   2.620 -0.3346 -0.2112 -0.2479
 8355SOL    HW135534   7.288   7.260   2.531 -0.8539 -1.4646 -0.6445
 8355SOL    HW235535   7.188   7.334   2.638 -1.5123 -0.6264 -1.8272
 8356SOL     OW35536   0.226   4.175   2.303 -0.3477 -0.2388 -0.0298
 8356SOL    HW135537   0.275   4.093   2.332  0.0708 -0.2765 -0.8301
 8356SOL    HW235538   0.284   4.255   2.316 -0.8440 -0.0373  0.9766
 8357SOL     OW35539   2.551   0.028   0.873  0.5618  0.3894  0.5511
 8357SOL    HW135540   2.500  -0.054   0.846  1.0700  0.1700  0.2425
 8357SOL    HW235541   2.488   0.105   0.881  0.2469  0.2421 -0.3587
 8358SOL     OW35542   1.658   8.952   2.421 -0.6748 -0.2546  0.1133
 8358SOL    HW135543   1.659   8.980   2.517  3.2080  0.0515  0.0556
 8358SOL    HW235544   1.644   8.853   2.415 -1.2496 -0.2285  0.9568
 8359SOL     OW35545   4.597   2.462   0.523  0.5560  0.2361  0.2981
 8359SOL    HW135546   4.614   2.364   0.526  0.7854  0.2502 -0.4674
 8359SOL    HW235547   4.502   2.480   0.550 -0.4509 -0.4720 -2.6490
 8360SOL     OW35548   9.720   8.952   1.136  0.0556 -0.3921  0.1948
 8360SOL    HW135549   9.771   8.898   1.203 -3.0542 -2.0072  1.3138
 8360SOL    HW235550   9.681   9.032   1.180  0.4462  0.1075 -0.3600
 8361SOL     OW35551   3.836   1.177   0.775 -0.8362  0.0751  0.4588
 8361SOL    HW135552   3.895   1.132   0.842 -1.3784  1.6903  2.0669
 8361SOL    HW235553   3.876   1.169   0.684  0.6246 -0.9432  1.1803
 8362SOL     OW35554   7.501   0.831   1.435 -0.1905 -0.1260 -0.3761
 8362SOL    HW135555   7.579   0.812   1.494 -2.0055 -2.5144  1.3573
 8362SOL    HW235556   7.431   0.881   1.487 -0.8089 -0.1238 -1.1959
 8363SOL     OW35557   6.707   9.884   1.283 -0.3183  0.1478 -0.9885
 8363SOL    HW135558   6.619   9.889   1.330 -0.0409 -1.0810 -0.2911
 8363SOL    HW235559   6.755   9.971   1.292 -0.3846  0.0294  0.8157
 8364SOL     OW35560   4.267   4.010   1.630 -0.8426  0.4369  0.2885
 8364SOL    HW135561   4.284   4.035   1.535 -0.7025  1.1920  0.5139
 8364SOL    HW235562   4.347   4.031   1.686 -0.6969 -0.5646  0.4750
 8365SOL     OW35563   8.963   7.521   2.851  0.1300 -0.1175  0.4867
 8365SOL    HW135564   8.920   7.460   2.785 -2.4824  2.8729 -0.6973
 8365SOL    HW235565   9.063   7.520   2.838  0.0250 -3.0389 -0.3632
 8366SOL     OW35566   0.976   0.485   1.261  0.6309  0.6225  0.0965
 8366SOL    HW135567   1.074   0.506   1.258  0.5580  0.9281 -0.2069
 8366SOL    HW235568   0.958   0.418   1.333  1.3244 -0.8619 -1.0999
 8367SOL     OW35569   3.333   9.175   0.483 -0.2702  0.0430 -0.2036
 8367SOL    HW135570   3.295   9.212   0.397  0.3065 -1.4535 -1.1203
 8367SOL    HW235571   3.259   9.132   0.535 -0.6262  0.9623  0.0550
 8368SOL     OW35572   3.349   3.969   2.958  0.0552  0.4403 -0.6272
 8368SOL    HW135573   3.292   3.889   2.977 -0.5381  1.1918  0.8420
 8368SOL    HW235574   3.295   4.038   2.910 -0.5909  1.5549  1.6453
 8369SOL     OW35575   1.702   8.074   2.950  0.8565 -0.3920 -0.1002
 8369SOL    HW135576   1.607   8.045   2.968  0.9250 -1.7560 -1.8164
 8369SOL    HW235577   1.762   8.031   3.018  0.0810  1.8758  2.0970
 8370SOL     OW35578   1.463   9.424   2.624 -0.2155 -0.5789 -0.0080
 8370SOL    HW135579   1.494   9.390   2.535  1.0703 -4.1143  1.7119
 8370SOL    HW235580   1.385   9.370   2.655  1.8290 -2.0229  2.7816
 8371SOL     OW35581   1.304   9.255   0.982 -0.5349  0.4730 -0.7740
 8371SOL    HW135582   1.351   9.319   0.921 -0.3994  0.8098 -0.3195
 8371SOL    HW235583   1.371   9.197   1.028 -0.4277  2.0029  1.0565
 8372SOL     OW35584   3.027   7.914   4.552  0.1315 -0.2952 -0.5544
 8372SOL    HW135585   3.073   8.003   4.551  1.6509 -1.0427  0.9282
 8372SOL    HW235586   2.933   7.926   4.583  1.0648  0.4937  2.1010
 8373SOL     OW35587   3.037   8.595   0.427 -0.5893 -0.2219 -0.9402
 8373SOL    HW135588   3.000   8.502   0.425 -1.0802 -0.0181 -2.0512
 8373SOL    HW235589   3.070   8.619   0.335  0.3944  0.3588 -0.4412
 8374SOL     OW35590   0.201   1.343   1.143  0.2742 -0.0626  0.1078
 8374SOL    HW135591   0.193   1.433   1.101 -0.0398 -0.2858 -0.3125
 8374SOL    HW235592   0.285   1.339   1.198  1.7088 -0.4112 -2.0618
 8375SOL     OW35593   1.333   4.697   0.639 -0.4070  0.3961  0.3064
 8375SOL    HW135594   1.423   4.739   0.651 -0.0945 -0.0815 -0.3529
 8375SOL    HW235595   1.283   4.744   0.566 -0.9604  1.0845  1.1113
 8376SOL     OW35596   3.608   1.264   1.608 -0.8926  0.0571  0.0453
 8376SOL    HW135597   3.549   1.204   1.662  0.0193 -0.1220  0.8536
 8376SOL    HW235598   3.639   1.215   1.526 -2.3135  0.3442 -0.6795
 8377SOL     OW35599   9.065   9.976   4.288 -0.7755  0.1945 -0.4400
 8377SOL    HW135600   9.133   9.912   4.252 -0.7806  1.1453 -2.2372
 8377SOL    HW235601   9.096  10.013   4.375 -0.4172 -1.6770  0.2340
 8378SOL     OW35602   7.822   7.365   2.012  0.1919  0.5025 -0.6743
 8378SOL    HW135603   7.836   7.315   2.097  0.0432  0.3462 -0.7422
 8378SOL    HW235604   7.888   7.441   2.007 -0.9583  1.5858  0.3813
 8379SOL     OW35605   7.776   8.334   1.096  0.2380 -0.4643 -0.2484
 8379SOL    HW135606   7.807   8.429   1.098 -1.6688  0.1792  0.7267
 8379SOL    HW235607   7.833   8.278   1.156  2.0849 -0.1802 -1.7190
 8380SOL     OW35608   4.033   1.604   1.050  0.2154  0.3107  0.3363
 8380SOL    HW135609   4.080   1.612   1.138 -0.2750 -1.3841  0.7824
 8380SOL    HW235610   4.079   1.536   0.994  0.3263  1.1522 -0.6037
 8381SOL     OW35611   4.920   2.033   1.635 -0.1013 -0.3882  0.0395
 8381SOL    HW135612   4.836   1.983   1.612  0.4043 -1.3402  0.2475
 8381SOL    HW235613   4.913   2.126   1.599 -2.0468  0.1553  1.7334
 8382SOL     OW35614   9.932   6.054   1.290  0.3882  0.3179 -0.6152
 8382SOL    HW135615   9.959   5.967   1.248 -0.7366 -0.2585 -0.1667
 8382SOL    HW235616   9.998   6.125   1.265  1.6977 -0.8161 -0.4145
 8383SOL     OW35617   9.991   7.746   1.553  0.5254 -0.1719 -0.1326
 8383SOL    HW135618   9.938   7.665   1.529 -2.4231  1.8206 -0.5601
 8383SOL    HW235619  10.067   7.757   1.488 -0.2860 -1.4346 -1.3171
 8384SOL     OW35620   4.232   7.288   3.071  0.5559 -0.1144  0.0310
 8384SOL    HW135621   4.162   7.281   3.142  0.4455  0.3580 -0.0290
 8384SOL    HW235622   4.323   7.274   3.111  0.6347  1.8070  0.5729
 8385SOL     OW35623   7.356   0.474   1.966 -0.2206  0.2390 -0.4503
 8385SOL    HW135624   7.411   0.391   1.968 -1.3318 -0.5140 -0.5969
 8385SOL    HW235625   7.392   0.540   2.032  0.9389 -0.1760 -0.6581
 8386SOL     OW35626   3.087   4.495   2.345  0.5044  0.1612 -0.0397
 8386SOL    HW135627   3.014   4.488   2.412  0.7665 -1.5948  0.0905
 8386SOL    HW235628   3.147   4.572   2.369  0.0221  0.1784  1.1567
 8387SOL     OW35629   9.390   5.485   0.835  0.8942 -0.3935  0.0368
 8387SOL    HW135630   9.354   5.428   0.761  2.2921 -1.6350  0.2780
 8387SOL    HW235631   9.319   5.497   0.905 -0.6188  1.2870 -1.7644
 8388SOL     OW35632   0.238   4.725   2.564 -0.0950  0.2185 -0.3522
 8388SOL    HW135633   0.290   4.705   2.647 -0.0147  0.1568 -0.4174
 8388SOL    HW235634   0.231   4.824   2.551 -0.7652  0.2403  0.1443
 8389SOL     OW35635   3.054   2.531   4.752  0.6812  0.3949 -0.3498
 8389SOL    HW135636   3.016   2.468   4.820 -0.9594  0.0457 -1.5545
 8389SOL    HW235637   3.063   2.622   4.793  2.3603 -0.4306  1.1710
 8390SOL     OW35638   7.725   7.656   2.278 -0.4290  0.3219  0.1875
 8390SOL    HW135639   7.724   7.727   2.207 -0.4871 -1.2196 -1.3882
 8390SOL    HW235640   7.644   7.666   2.335 -1.3893  0.4240 -1.1591
 8391SOL     OW35641   5.348   0.913   2.802  0.4782 -0.3793  0.6743
 8391SOL    HW135642   5.324   0.822   2.767 -0.0460 -0.8671  2.2546
 8391SOL    HW235643   5.264   0.961   2.829  0.7391  0.6666 -0.3267
 8392SOL     OW35644   7.760   8.574   4.215  0.2475 -0.0261 -0.2408
 8392SOL    HW135645   7.704   8.492   4.199 -1.5754  1.4104 -1.4084
 8392SOL    HW235646   7.754   8.600   4.311 -3.3581  1.6602 -0.8339
 8393SOL     OW35647   6.714   0.060   0.935  0.2476  0.0676 -0.1409
 8393SOL    HW135648   6.800   0.019   0.967 -0.4645 -0.9217  0.5112
 8393SOL    HW235649   6.689   0.020   0.847  2.3451  2.9775 -2.1595
 8394SOL     OW35650   9.760   4.453   1.575 -0.8691 -0.0625 -0.1538
 8394SOL    HW135651   9.779   4.365   1.531  0.9864  0.8241 -1.1772
 8394SOL    HW235652   9.665   4.455   1.606 -0.6709 -2.8074  0.7890
 8395SOL     OW35653   3.148   7.442   3.519  0.1755  0.4671  0.1081
 8395SOL    HW135654   3.218   7.513   3.506  2.5072 -1.6882  0.3927
 8395SOL    HW235655   3.109   7.450   3.611  0.0813  1.6402 -0.0208
 8396SOL     OW35656   1.097   2.834   1.969 -0.2694 -0.4210 -0.4198
 8396SOL    HW135657   1.102   2.771   2.047 -0.5872  0.2559  0.1569
 8396SOL    HW235658   1.002   2.844   1.941 -0.1361 -0.7834 -0.9956
 8397SOL     OW35659   4.199   8.001   2.759 -0.0719  0.1373  0.3965
 8397SOL    HW135660   4.245   8.069   2.703  0.4546  0.3540  1.0850
 8397SOL    HW235661   4.172   8.042   2.846  0.0393 -0.4633  0.7209
 8398SOL     OW35662   2.126   1.785   3.591 -0.2490  0.1058 -1.1059
 8398SOL    HW135663   2.163   1.745   3.675  1.5416 -2.8297 -3.1903
 8398SOL    HW235664   2.069   1.863   3.614  2.6693  1.2950  2.6306
 8399SOL     OW35665   3.359   3.545   3.003 -0.2817  0.2546  0.8428
 8399SOL    HW135666   3.347   3.641   2.980 -2.5206 -0.4358 -1.1105
 8399SOL    HW235667   3.317   3.488   2.931 -0.2464 -2.1396  2.6494
 8400SOL     OW35668   3.416   3.454   4.714  0.1889  0.6960 -0.4487
 8400SOL    HW135669   3.485   3.513   4.673 -1.2120  1.4432 -1.8142
 8400SOL    HW235670   3.356   3.509   4.773 -2.6233  1.2326 -3.6200
 8401SOL     OW35671   7.953   6.633   2.710  0.0977 -1.0683 -0.6106
 8401SOL    HW135672   7.921   6.598   2.622  0.4737  1.3729 -1.7742
 8401SOL    HW235673   7.973   6.731   2.701 -0.4175 -0.6604  2.3601
 8402SOL     OW35674   1.799   0.363   3.073 -0.2330 -0.3312  0.4159
 8402SOL    HW135675   1.718   0.413   3.104  0.8788  0.8037  1.5396
 8402SOL    HW235676   1.790   0.266   3.099 -0.4415  0.1245  2.1346
 8403SOL     OW35677   4.359   9.058   3.624 -0.0260 -0.2634 -0.4425
 8403SOL    HW135678   4.405   8.986   3.677 -0.2752  1.0186  1.5766
 8403SOL    HW235679   4.269   9.026   3.596  0.4952 -1.3162 -0.9446
 8404SOL     OW35680   5.769   8.876   3.073  0.0036  0.5086 -0.5628
 8404SOL    HW135681   5.863   8.844   3.091 -0.2119  0.7266  0.9898
 8404SOL    HW235682   5.757   8.967   3.113 -0.5904  0.8884 -1.5946
 8405SOL     OW35683   0.091   9.400   2.096  0.2350  0.3412 -0.2795
 8405SOL    HW135684   0.064   9.481   2.044 -1.3628 -0.6766 -1.0717
 8405SOL    HW235685   0.012   9.366   2.147  1.3201  0.2500  1.3914
 8406SOL     OW35686   7.772   0.284   3.193 -0.0326  0.3057  0.0880
 8406SOL    HW135687   7.863   0.259   3.225  0.8510  1.4651 -1.4741
 8406SOL    HW235688   7.752   0.237   3.107 -0.1949  1.3704 -0.4713
 8407SOL     OW35689   3.152   3.609   3.256  0.1811 -0.4748  0.0700
 8407SOL    HW135690   3.079   3.657   3.207 -0.1791 -0.4210  0.6529
 8407SOL    HW235691   3.119   3.583   3.348  0.6528 -1.0809  0.0727
 8408SOL     OW35692   9.697   5.415   0.811 -0.3174  0.0102  0.2150
 8408SOL    HW135693   9.610   5.458   0.830  1.0126  2.9271 -0.0470
 8408SOL    HW235694   9.697   5.379   0.717 -2.0209 -2.1008  0.9989
 8409SOL     OW35695   8.291   7.811   3.481  0.0518 -0.2322  0.0202
 8409SOL    HW135696   8.194   7.825   3.501  0.2514 -0.1407  0.9761
 8409SOL    HW235697   8.310   7.714   3.473  0.4270 -0.4467  2.8513
 8410SOL     OW35698   6.558   9.981   3.519 -0.6195  0.0325  0.5193
 8410SOL    HW135699   6.628   9.924   3.476 -0.8310 -0.4119  0.7609
 8410SOL    HW235700   6.582   9.999   3.614 -1.3497 -0.9930  0.9049
 8411SOL     OW35701   9.939   7.642   3.396 -0.2143  0.6695 -0.2762
 8411SOL    HW135702   9.879   7.620   3.319  0.5922 -1.3420 -0.3536
 8411SOL    HW235703   9.891   7.625   3.482  0.3167 -1.2662 -0.3349
 8412SOL     OW35704   8.643   9.443   1.829  0.6988  0.1091 -0.0439
 8412SOL    HW135705   8.567   9.406   1.775 -0.3525  0.5639  1.0948
 8412SOL    HW235706   8.644   9.398   1.919  0.4654  1.6290  0.7250
 8413SOL     OW35707   0.222   1.452   4.565  0.2968 -0.3612  0.2856
 8413SOL    HW135708   0.161   1.377   4.588 -0.0338 -0.2283 -0.1641
 8413SOL    HW235709   0.237   1.509   4.646 -0.0265 -0.4954  0.4392
 8414SOL     OW35710   9.933   5.483   1.211 -0.5287  0.1590  0.0335
 8414SOL    HW135711   9.981   5.422   1.148  0.7948  1.1714  0.0387
 8414SOL    HW235712   9.882   5.551   1.159 -0.5154  0.1808  0.0492
 8415SOL     OW35713   2.454   7.419   3.453  0.3219  0.1815 -0.1218
 8415SOL    HW135714   2.470   7.514   3.426  1.3915 -0.1545 -0.7284
 8415SOL    HW235715   2.496   7.403   3.542  1.7440 -0.1850 -0.8374
 8416SOL     OW35716   7.265   0.416   2.392  0.1512 -0.1635  0.0639
 8416SOL    HW135717   7.310   0.435   2.479 -0.3378  0.1532  0.2516
 8416SOL    HW235718   7.191   0.350   2.406  1.2115 -1.4588 -0.4207
 8417SOL     OW35719   9.211   9.660   2.286  0.7231  0.1755 -0.2990
 8417SOL    HW135720   9.286   9.629   2.227  0.8676 -1.6419  0.8198
 8417SOL    HW235721   9.139   9.591   2.288  0.0683  0.8720  0.5009
 8418SOL     OW35722   0.388   7.884   2.911 -0.9452  0.0879 -0.2602
 8418SOL    HW135723   0.363   7.979   2.895 -1.7030  0.0311  0.5230
 8418SOL    HW235724   0.306   7.827   2.908 -0.5141 -0.5267 -0.5905
 8419SOL     OW35725   4.940   9.236   4.068  0.1912 -0.3161  0.3025
 8419SOL    HW135726   4.914   9.322   4.112 -0.0400 -0.2032 -0.0560
 8419SOL    HW235727   5.040   9.231   4.062  0.1849  0.3121 -0.4352
 8420SOL     OW35728   8.693   7.288   3.259  0.4816 -0.7663  0.0434
 8420SOL    HW135729   8.780   7.239   3.248  0.5464 -0.9700  1.4159
 8420SOL    HW235730   8.711   7.385   3.275  0.4291 -0.7124 -0.2160
 8421SOL     OW35731   2.205   6.850   3.482  0.5335  0.1932 -0.1389
 8421SOL    HW135732   2.176   6.862   3.577  2.9409  1.4559  0.4802
 8421SOL    HW235733   2.171   6.762   3.449 -0.9661  0.0555  1.6320
 8422SOL     OW35734   4.360   3.323   2.665  0.1055 -0.2981 -0.4870
 8422SOL    HW135735   4.316   3.233   2.664  3.1224 -1.8355  0.3615
 8422SOL    HW235736   4.342   3.368   2.753  1.5253 -1.5964  0.4840
 8423SOL     OW35737   7.992   0.271   2.462  0.6211 -0.5517  0.9971
 8423SOL    HW135738   7.973   0.204   2.391  0.2738 -0.9381  1.4496
 8423SOL    HW235739   7.913   0.332   2.472  1.0683  0.1381  0.3532
 8424SOL     OW35740   4.367   0.467   2.849 -0.5309  0.2545 -0.3747
 8424SOL    HW135741   4.415   0.553   2.835  0.0153 -0.0423 -0.3715
 8424SOL    HW235742   4.293   0.480   2.915 -0.3610  0.6837 -0.2665
 8425SOL     OW35743   2.289   7.956   4.667  0.0443 -0.0015 -0.3070
 8425SOL    HW135744   2.280   8.025   4.738 -0.7029 -0.2651 -0.1420
 8425SOL    HW235745   2.354   7.886   4.695  0.6353  0.5141 -0.3813
 8426SOL     OW35746   2.302   5.633   3.760 -0.4039  0.1842 -0.4403
 8426SOL    HW135747   2.218   5.599   3.801 -0.3545  1.2278  0.5480
 8426SOL    HW235748   2.280   5.685   3.677 -0.6867 -0.0520 -0.5133
 8427SOL     OW35749   2.477   1.503   2.726 -0.4764  0.2973  0.1455
 8427SOL    HW135750   2.415   1.571   2.687 -0.7936  1.0932  1.9892
 8427SOL    HW235751   2.470   1.505   2.826 -0.2341 -2.2283  0.2283
 8428SOL     OW35752   0.790   5.599   4.678 -0.0158 -0.0390  0.5094
 8428SOL    HW135753   0.707   5.584   4.732 -0.4985 -0.1986 -0.2740
 8428SOL    HW235754   0.869   5.606   4.739 -0.8983  2.4237  1.4400
 8429SOL     OW35755   2.711   5.830   3.259 -0.1924 -0.1611  0.2399
 8429SOL    HW135756   2.616   5.849   3.284 -0.2204 -1.0906  0.8867
 8429SOL    HW235757   2.731   5.734   3.279  1.5134  0.5568  2.1463
 8430SOL     OW35758   2.798   6.880   0.149 -0.4132 -0.0406  0.2173
 8430SOL    HW135759   2.835   6.925   0.230 -1.1439 -0.2853  0.6956
 8430SOL    HW235760   2.778   6.784   0.170  0.3046 -0.3574 -0.5362
 8431SOL     OW35761   0.460   9.926   4.042 -0.2231 -0.2086 -0.5641
 8431SOL    HW135762   0.442  10.021   4.067 -0.3067 -0.0946 -1.0378
 8431SOL    HW235763   0.507   9.879   4.116  1.9644  0.8445 -1.2518
 8432SOL     OW35764   0.056   9.552   3.476 -0.2490 -0.5061 -0.4042
 8432SOL    HW135765   0.057   9.651   3.492  0.8872 -0.9303  2.3837
 8432SOL    HW235766   0.078   9.534   3.380 -0.4830  1.9340 -0.9522
 8433SOL     OW35767   4.169   1.186   0.696  0.7971  0.0065 -0.5431
 8433SOL    HW135768   4.107   1.118   0.656 -0.0683  0.4577  0.0216
 8433SOL    HW235769   4.179   1.263   0.633 -1.5400  1.2936  0.5891
 8434SOL     OW35770   8.616   9.826   2.207 -0.0451  0.0150 -0.6037
 8434SOL    HW135771   8.702   9.791   2.169  0.8224  2.2819 -0.8189
 8434SOL    HW235772   8.593   9.775   2.290  1.2320 -0.9639 -0.8322
 8435SOL     OW35773   9.426   5.267   2.978 -0.1535 -0.1602  0.6220
 8435SOL    HW135774   9.345   5.227   2.936  0.5393 -0.6563 -0.2661
 8435SOL    HW235775   9.507   5.215   2.951  0.7794  1.8487 -0.6629
 8436SOL     OW35776   0.114   9.956   0.436 -0.2039  0.3728 -0.1285
 8436SOL    HW135777   0.016   9.941   0.454 -0.0981  1.0732  1.1433
 8436SOL    HW235778   0.167   9.883   0.480 -0.1085  0.4856 -0.0556
 8437SOL     OW35779   9.305   7.235   0.879  0.5211  0.2941  0.3103
 8437SOL    HW135780   9.246   7.158   0.856  0.0148  1.0979 -1.1101
 8437SOL    HW235781   9.391   7.226   0.829  0.9325  0.0314  1.0587
 8438SOL     OW35782   3.792   8.122   1.688  0.2671  0.1073 -0.1727
 8438SOL    HW135783   3.768   8.160   1.777 -1.1898 -1.2349  0.0484
 8438SOL    HW235784   3.786   8.193   1.618 -2.0992  0.3902  0.2692
 8439SOL     OW35785   9.732   4.911   1.107 -0.1718  0.1672  0.1538
 8439SOL    HW135786   9.745   4.851   1.185 -2.0525  1.5744  1.5814
 8439SOL    HW235787   9.740   5.006   1.136  1.1915  0.6852 -1.7689
 8440SOL     OW35788   2.935   0.004   4.192  0.4171  0.5905 -0.3522
 8440SOL    HW135789   3.026   0.042   4.211  1.1722 -1.6168  0.6442
 8440SOL    HW235790   2.865   0.063   4.232  1.5333  0.9814  1.0774
 8441SOL     OW35791   4.208   3.840   2.424  0.2121  0.0559  0.3542
 8441SOL    HW135792   4.209   3.740   2.427  2.3887  0.0518  0.7395
 8441SOL    HW235793   4.188   3.871   2.331 -2.6894 -0.6755  0.6832
 8442SOL     OW35794   4.975   9.894   3.123  0.3364 -0.0130  0.3351
 8442SOL    HW135795   5.025   9.849   3.049  1.4314  1.3226  0.2449
 8442SOL    HW235796   4.941   9.982   3.091 -0.8324 -0.2631  0.8548
 8443SOL     OW35797   3.680   9.095   4.612 -0.0114  0.0075 -0.0969
 8443SOL    HW135798   3.679   9.135   4.704  1.8135 -0.8406  0.3195
 8443SOL    HW235799   3.606   9.028   4.603  1.3542 -1.7708  1.6249
 8444SOL     OW35800   8.472   6.325   2.967  0.3006  0.4934 -0.4498
 8444SOL    HW135801   8.465   6.249   3.031 -0.6367  2.6644  2.1290
 8444SOL    HW235802   8.559   6.321   2.919 -0.8544 -3.7042 -2.3986
 8445SOL     OW35803   4.507   7.802   1.128 -0.5190 -0.6760  0.5016
 8445SOL    HW135804   4.476   7.882   1.179  1.0466 -0.1418  0.6259
 8445SOL    HW235805   4.487   7.814   1.031  1.5882  0.7995  0.2323
 8446SOL     OW35806   7.698   5.646   1.434  0.1708 -0.2305 -0.3283
 8446SOL    HW135807   7.652   5.699   1.504  1.4651  0.8974 -0.3265
 8446SOL    HW235808   7.650   5.559   1.421 -0.4796 -0.1378  1.4321
 8447SOL     OW35809   0.081   9.832   2.892  0.4774  0.0117  0.0637
 8447SOL    HW135810  -0.002   9.888   2.902  0.6137  0.2502 -0.1368
 8447SOL    HW235811   0.055   9.738   2.870  0.1643 -0.5206  2.5380
 8448SOL     OW35812   1.541   6.967   4.056 -0.4099  0.0116 -0.3398
 8448SOL    HW135813   1.612   6.963   4.126 -1.4011  1.3218  0.7659
 8448SOL    HW235814   1.500   6.876   4.045  1.7103 -0.8710 -1.3275
 8449SOL     OW35815   0.213   0.456   1.291  0.0338  0.6405 -0.3898
 8449SOL    HW135816   0.179   0.522   1.358  1.7719  0.5349  0.6432
 8449SOL    HW235817   0.187   0.363   1.320 -1.1395  0.7574 -1.0573
 8450SOL     OW35818   9.346   5.582   2.996 -0.4326 -0.0628  0.3738
 8450SOL    HW135819   9.400   5.503   2.967 -0.7083 -0.1511  0.0927
 8450SOL    HW235820   9.251   5.554   3.009 -0.5634  0.2543  0.1211
 8451SOL     OW35821   0.997   6.213   2.194 -0.1403  0.0557 -0.3375
 8451SOL    HW135822   1.013   6.216   2.095  1.6964 -0.6440 -0.0924
 8451SOL    HW235823   0.906   6.249   2.214  0.1929  2.0619 -2.1212
 8452SOL     OW35824   2.017   5.745   1.848  0.5179  0.2829 -0.4271
 8452SOL    HW135825   2.042   5.819   1.785  1.0803  0.5816  0.1368
 8452SOL    HW235826   2.043   5.771   1.941 -0.1511 -0.2267 -0.0969
 8453SOL     OW35827   1.492   2.955   4.480 -0.5851 -0.1924 -0.0887
 8453SOL    HW135828   1.578   2.905   4.485 -0.2386  0.4568  0.5163
 8453SOL    HW235829   1.505   3.038   4.426 -0.7168  0.1353  0.3838
 8454SOL     OW35830   8.875   9.454   3.446 -0.6525 -0.8277 -0.4519
 8454SOL    HW135831   8.859   9.428   3.351  1.0322  2.1014 -1.6199
 8454SOL    HW235832   8.806   9.520   3.475  0.1062 -0.0287 -0.4143
 8455SOL     OW35833   9.780   6.646   1.794  0.2510 -0.3473 -0.4149
 8455SOL    HW135834   9.823   6.700   1.722  0.8902  0.3383  0.4734
 8455SOL    HW235835   9.808   6.550   1.786  1.1715 -0.0815 -0.4433
 8456SOL     OW35836   0.187   6.694   3.677  0.2943  0.0135  0.5847
 8456SOL    HW135837   0.235   6.732   3.598 -1.9189  0.6792 -0.4745
 8456SOL    HW235838   0.095   6.665   3.649  0.5289 -2.4798  2.2626
 8457SOL     OW35839   3.725   3.114   2.214 -0.2738  0.0169  0.1797
 8457SOL    HW135840   3.670   3.158   2.285 -0.3835  0.5879 -0.2470
 8457SOL    HW235841   3.665   3.075   2.144 -0.1530  1.2424 -0.6426
 8458SOL     OW35842   1.257   8.610   4.754 -0.2990  0.0101 -0.4621
 8458SOL    HW135843   1.224   8.691   4.802  0.1110  0.0623 -0.2606
 8458SOL    HW235844   1.296   8.636   4.666  2.2031  0.3768  0.7121
 8459SOL     OW35845   4.188   8.556   3.209  0.3899 -0.6250 -0.1290
 8459SOL    HW135846   4.118   8.545   3.139  0.1920  1.8007 -0.3534
 8459SOL    HW235847   4.278   8.562   3.166  0.7269 -3.1756  0.1235
 8460SOL     OW35848   4.938   2.247   0.923  0.2498 -0.4657  0.3032
 8460SOL    HW135849   4.862   2.207   0.873  0.3660  0.3997 -0.6019
 8460SOL    HW235850   5.007   2.278   0.858  0.0638  1.3683  0.9473
 8461SOL     OW35851   0.181   6.704   4.299  0.4166 -0.1078  0.5632
 8461SOL    HW135852   0.265   6.746   4.333  0.4650  0.5683 -0.3567
 8461SOL    HW235853   0.199   6.660   4.211 -0.4605  1.1947 -0.3005
 8462SOL     OW35854   3.777   3.605   0.747 -0.1375  0.2445  0.2744
 8462SOL    HW135855   3.783   3.682   0.811  0.7604  0.2300  0.2183
 8462SOL    HW235856   3.870   3.577   0.721 -0.4626 -1.1520  0.6364
 8463SOL     OW35857   1.291   2.251   0.093  0.2000 -0.2561 -0.5435
 8463SOL    HW135858   1.192   2.266   0.093  0.1017 -0.8434 -0.0603
 8463SOL    HW235859   1.327   2.261   0.001 -0.2038  0.6564 -0.6027
 8464SOL     OW35860   0.915   5.358   0.616 -0.1496 -0.3625  0.2388
 8464SOL    HW135861   0.947   5.428   0.680  0.0702 -0.8648  0.6818
 8464SOL    HW235862   0.912   5.269   0.662  0.0249 -0.7309 -0.4498
 8465SOL     OW35863   5.224   0.028   4.619  0.0718  0.5174 -0.4509
 8465SOL    HW135864   5.158  -0.021   4.563 -0.5037  0.4095  0.3068
 8465SOL    HW235865   5.185   0.044   4.710  1.5640 -0.6612  0.4166
 8466SOL     OW35866   7.938   0.308   0.214  0.3242 -0.0440 -0.6517
 8466SOL    HW135867   7.891   0.372   0.274  1.7391  0.5957 -0.1935
 8466SOL    HW235868   7.874   0.271   0.147 -1.2049 -0.5493  1.0538
 8467SOL     OW35869   0.130   4.683   1.061  0.2230  0.3812 -0.1344
 8467SOL    HW135870   0.208   4.745   1.070  0.0730  0.7677 -1.3685
 8467SOL    HW235871   0.072   4.714   0.986 -1.3796  0.3679  1.0869
 8468SOL     OW35872   2.342   6.377   1.270  0.4008 -0.2685 -0.4398
 8468SOL    HW135873   2.259   6.333   1.233 -0.1753  0.4337  0.0170
 8468SOL    HW235874   2.325   6.475   1.282  0.7326 -0.4172  1.2784
 8469SOL     OW35875   0.333   0.097   3.329  0.4953 -0.1615  0.1824
 8469SOL    HW135876   0.333   0.022   3.263 -0.5977 -0.8109  0.8953
 8469SOL    HW235877   0.272   0.169   3.299  0.4271 -0.2112  0.2007
 8470SOL     OW35878   9.440   7.519   4.255  0.5869 -0.0857 -0.3779
 8470SOL    HW135879   9.459   7.422   4.260  0.0178 -0.1129  1.3740
 8470SOL    HW235880   9.361   7.534   4.196 -0.2008 -0.8095  0.4878
 8471SOL     OW35881   3.027   9.613   0.540 -0.1160 -0.1012  0.7842
 8471SOL    HW135882   2.949   9.668   0.512 -0.9254 -1.8562 -0.4853
 8471SOL    HW235883   3.112   9.663   0.518 -0.8208  0.5994 -0.4192
 8472SOL     OW35884   2.073   1.773   3.892  0.6972  0.3109 -0.0524
 8472SOL    HW135885   2.129   1.833   3.948  1.0535  0.7176 -0.8384
 8472SOL    HW235886   1.981   1.812   3.883 -0.3131 -1.2582  2.7576
 8473SOL     OW35887   0.442   9.648   3.023  0.2915  0.4154 -0.2157
 8473SOL    HW135888   0.436   9.635   3.122  0.8743  0.8143 -0.1219
 8473SOL    HW235889   0.361   9.609   2.979  0.6538 -0.9515  0.2989
 8474SOL     OW35890   3.355   1.722   1.541  0.2222 -0.1513  0.3953
 8474SOL    HW135891   3.311   1.789   1.601  2.9945  1.2866  0.8871
 8474SOL    HW235892   3.285   1.679   1.483 -1.8239  2.0704  1.1192
 8475SOL     OW35893   7.291   9.654   3.235  0.2510 -0.1256  0.6926
 8475SOL    HW135894   7.343   9.671   3.151  0.1071 -1.4348  0.3323
 8475SOL    HW235895   7.292   9.557   3.256 -1.2235 -0.0488  1.2223
 8476SOL     OW35896   1.232   9.481   3.574  0.0888 -0.6457  0.4084
 8476SOL    HW135897   1.173   9.554   3.609 -0.2682 -0.1813 -1.0995
 8476SOL    HW235898   1.271   9.509   3.486 -1.0510 -2.7421 -0.8160
 8477SOL     OW35899   7.344   6.307   2.069 -0.4982 -0.0660 -0.1409
 8477SOL    HW135900   7.261   6.250   2.068 -0.3791 -0.2320 -0.8528
 8477SOL    HW235901   7.319   6.400   2.097 -0.3952 -0.8958  2.9068
 8478SOL     OW35902   1.481   8.359   1.202 -0.4686 -0.3025 -0.2309
 8478SOL    HW135903   1.464   8.283   1.264 -2.1375 -0.1328 -0.4645
 8478SOL    HW235904   1.553   8.418   1.240  0.5046 -1.7283  0.1626
 8479SOL     OW35905   1.140   9.354   4.720  0.4239  0.1700  0.1368
 8479SOL    HW135906   1.189   9.396   4.643 -1.3100  0.0629 -1.0641
 8479SOL    HW235907   1.178   9.387   4.806  1.2064  1.7066 -0.7760
 8480SOL     OW35908   3.407   1.013   1.320  0.0402  0.0300 -0.1693
 8480SOL    HW135909   3.309   1.011   1.301  0.2139 -2.0490 -0.9972
 8480SOL    HW235910   3.422   1.011   1.418 -0.7460  1.6270  0.0020
 8481SOL     OW35911   1.765   5.121   1.798 -0.5016 -0.2892  0.4494
 8481SOL    HW135912   1.852   5.170   1.791 -0.5032 -0.2581  0.6507
 8481SOL    HW235913   1.690   5.182   1.774 -0.7567  0.6442  3.4973
 8482SOL     OW35914   1.049   5.569   1.865 -0.3650 -0.5771 -0.0133
 8482SOL    HW135915   1.012   5.569   1.772 -2.0077 -0.3605  0.6241
 8482SOL    HW235916   0.987   5.519   1.926  0.9459 -1.1507  0.8736
 8483SOL     OW35917   3.191   0.632   0.704 -0.3569  0.2773  0.0001
 8483SOL    HW135918   3.289   0.626   0.687 -0.2906  0.5268  0.2895
 8483SOL    HW235919   3.141   0.596   0.625 -0.0086 -3.3722  1.3720
 8484SOL     OW35920   4.026   0.345   2.755  0.3537 -0.2865 -0.1105
 8484SOL    HW135921   4.084   0.424   2.775  0.2873  0.2505 -1.9935
 8484SOL    HW235922   4.073   0.284   2.691 -0.3178 -0.8808 -0.0476
 8485SOL     OW35923   4.340   7.107   1.562  0.3861 -0.4467 -0.4926
 8485SOL    HW135924   4.437   7.096   1.538  0.4372 -0.2275 -0.3841
 8485SOL    HW235925   4.332   7.154   1.650  0.1690  0.4828 -0.9950
 8486SOL     OW35926   1.645   5.184   4.583  0.1844  0.2406  0.0190
 8486SOL    HW135927   1.700   5.258   4.545 -0.9328  1.9663  1.6196
 8486SOL    HW235928   1.587   5.145   4.512  0.5640  1.1201 -0.7805
 8487SOL     OW35929   8.286   8.458   0.296 -0.4123 -0.5434  0.4467
 8487SOL    HW135930   8.246   8.410   0.374  2.0119  1.2113  2.8714
 8487SOL    HW235931   8.359   8.402   0.256  0.4446 -0.1303  1.4254
 8488SOL     OW35932   8.161   8.109   0.770 -0.1476 -0.3294 -0.1213
 8488SOL    HW135933   8.069   8.121   0.808  0.2523 -1.6293  1.3149
 8488SOL    HW235934   8.160   8.032   0.706 -0.5232  1.0197 -1.7648
 8489SOL     OW35935   1.679   9.558   1.736 -0.4870  0.0652  0.8155
 8489SOL    HW135936   1.719   9.623   1.672 -1.2820 -0.9531 -0.7565
 8489SOL    HW235937   1.734   9.474   1.737 -1.7864 -0.8299 -0.3561
 8490SOL     OW35938   4.905   0.757   2.089 -0.5181 -0.4543 -0.0219
 8490SOL    HW135939   4.906   0.823   2.014  0.6332  1.0543  1.2830
 8490SOL    HW235940   4.936   0.668   2.056  1.9894  0.7017 -0.9188
 8491SOL     OW35941   1.455   4.268   4.721  0.1773  0.3639 -0.4175
 8491SOL    HW135942   1.523   4.271   4.794  0.3252  1.3749 -0.5888
 8491SOL    HW235943   1.401   4.352   4.722 -0.9092 -0.3227 -0.4421
 8492SOL     OW35944   0.120   9.455   3.232  0.2450 -0.2046 -0.7851
 8492SOL    HW135945   0.217   9.458   3.253 -0.0437 -1.8280  0.8748
 8492SOL    HW235946   0.093   9.362   3.207 -1.2994 -0.2527  0.9212
 8493SOL     OW35947   5.226   9.686   4.144  0.1366  0.0471  0.5495
 8493SOL    HW135948   5.164   9.670   4.067  0.7961 -0.2539  0.0801
 8493SOL    HW235949   5.175   9.725   4.220 -0.7493 -0.7823  0.3847
 8494SOL     OW35950   0.474   4.177   4.619  0.5896  0.5134  0.0180
 8494SOL    HW135951   0.543   4.245   4.595  1.4274  0.8029  2.9705
 8494SOL    HW235952   0.383   4.216   4.608  0.9150  0.5445 -2.7095
 8495SOL     OW35953   0.257   3.714   3.494  0.5266  0.5175  0.4862
 8495SOL    HW135954   0.213   3.802   3.511 -1.3449 -0.8139  2.7855
 8495SOL    HW235955   0.270   3.666   3.580  1.6867 -1.4051 -0.7283
 8496SOL     OW35956   0.476   2.921   1.034  0.5320  0.1227  0.0870
 8496SOL    HW135957   0.539   2.935   1.111  0.0622  0.7450  0.3588
 8496SOL    HW235958   0.384   2.906   1.069  0.1573  1.3152 -0.3846
 8497SOL     OW35959   4.819   3.762   0.015 -0.4844  0.2581  0.1942
 8497SOL    HW135960   4.748   3.716   0.067 -0.6125 -0.1621 -0.3406
 8497SOL    HW235961   4.894   3.698  -0.004 -0.2272  0.5365  0.2665
 8498SOL     OW35962   1.103   4.241   2.024 -0.3282 -0.0558 -0.2970
 8498SOL    HW135963   1.201   4.248   2.038 -0.0696  0.2719 -2.2046
 8498SOL    HW235964   1.082   4.163   1.965 -1.0699  0.8349 -1.2404
 8499SOL     OW35965   3.647   1.350   0.558 -0.7438 -0.4639  0.8676
 8499SOL    HW135966   3.566   1.292   0.552 -2.0215  1.4669 -1.4182
 8499SOL    HW235967   3.644   1.418   0.485  1.2655  1.7905  2.8308
 8500SOL     OW35968   5.413   9.764   3.752 -0.2535 -0.4855  0.0146
 8500SOL    HW135969   5.431   9.837   3.687  0.2533  0.5937  1.3521
 8500SOL    HW235970   5.328   9.718   3.727  0.3540 -0.6272 -1.8750
 8501SOL     OW35971   2.889   6.847   2.924  0.1196  0.6206  0.0978
 8501SOL    HW135972   2.962   6.798   2.973  1.3777  0.4656 -1.8544
 8501SOL    HW235973   2.801   6.808   2.949  0.9813 -1.6535 -0.2163
 8502SOL     OW35974   4.357   9.816   1.767  1.1363 -0.3062  0.0062
 8502SOL    HW135975   4.309   9.862   1.842  1.6823  0.7514 -0.2781
 8502SOL    HW235976   4.389   9.726   1.797 -2.1299 -1.5890 -0.1918
 8503SOL     OW35977   2.152   0.038   0.005  0.1265  0.0348  0.1184
 8503SOL    HW135978   2.158   0.131  -0.032 -2.8411 -0.6259 -2.2223
 8503SOL    HW235979   2.207  -0.024  -0.050 -1.8166 -0.3999 -1.4046
 8504SOL     OW35980   8.375   9.301   4.093  0.3821  0.7162  0.5857
 8504SOL    HW135981   8.470   9.308   4.064  0.5860  3.6476  1.7633
 8504SOL    HW235982   8.362   9.350   4.179 -1.4571 -2.8040  2.3894
 8505SOL     OW35983   0.892   7.324   0.461  0.9353 -0.5807  0.3134
 8505SOL    HW135984   0.866   7.399   0.401 -2.0219 -0.6190  1.4473
 8505SOL    HW235985   0.881   7.237   0.412 -1.3358 -0.6043  0.8194
 8506SOL     OW35986   9.887   8.825   4.144  0.1773  0.2126 -0.7835
 8506SOL    HW135987   9.807   8.843   4.202 -0.0103  1.4713 -1.4215
 8506SOL    HW235988   9.922   8.911   4.108  1.8778 -0.3277 -0.4583
 8507SOL     OW35989   2.446   7.134   0.292 -0.3244  0.7954 -0.1786
 8507SOL    HW135990   2.363   7.143   0.347 -0.0551 -0.7170  0.4982
 8507SOL    HW235991   2.526   7.154   0.349  0.1908 -3.8444  0.9749
 8508SOL     OW35992   0.181   1.025   0.341  0.6486  0.3732 -0.2259
 8508SOL    HW135993   0.243   1.037   0.418  1.1884 -1.2851 -0.3747
 8508SOL    HW235994   0.130   0.939   0.353 -0.8519  1.1817 -0.6306
 8509SOL     OW35995   1.972   1.536   3.138 -0.1069  0.0216 -0.1683
 8509SOL    HW135996   2.013   1.457   3.184 -0.5582  0.0956  0.3634
 8509SOL    HW235997   1.990   1.619   3.191 -0.1867  0.1832 -0.3942
 8510SOL     OW35998   0.913   9.424   3.570  0.4951  0.1856 -0.2848
 8510SOL    HW135999   0.987   9.382   3.517  0.1007 -1.8507  0.7163
 8510SOL    HW236000   0.905   9.520   3.546  2.2199 -0.0232 -1.7982
 8511SOL     OW36001   0.501   1.576   2.903  0.1466  0.3941  0.4462
 8511SOL    HW136002   0.520   1.619   2.992 -1.2540 -0.8645  1.3841
 8511SOL    HW236003   0.441   1.497   2.917  0.8472 -0.5149 -1.5023
 8512SOL     OW36004   1.004   6.141   1.370 -0.1425 -0.4453 -0.1510
 8512SOL    HW136005   1.031   6.237   1.383 -2.0861 -0.1406  2.1972
 8512SOL    HW236006   0.908   6.131   1.396  0.4797 -3.3295  1.1648
 8513SOL     OW36007   8.857   0.409   2.620 -0.3731  0.6928  0.4592
 8513SOL    HW136008   8.911   0.493   2.616 -1.8588  1.5732 -2.5710
 8513SOL    HW236009   8.836   0.379   2.527 -1.6085 -1.9159  1.5395
 8514SOL     OW36010   1.258   9.689   4.638  0.0333 -0.5808 -0.0371
 8514SOL    HW136011   1.266   9.594   4.668  0.4002 -0.5565 -0.0598
 8514SOL    HW236012   1.193   9.694   4.562 -0.7865 -0.6659  0.6450
 8515SOL     OW36013   8.750   7.539   3.650  0.0421  0.0055  0.2538
 8515SOL    HW136014   8.844   7.519   3.623  0.7966  2.5781  0.8870
 8515SOL    HW236015   8.705   7.454   3.678  1.3158 -1.6989 -2.5953
 8516SOL     OW36016   9.535   9.427   3.126 -0.1343  0.6451  0.3554
 8516SOL    HW136017   9.439   9.445   3.150 -0.5830 -0.5782 -0.4995
 8516SOL    HW236018   9.585   9.514   3.125 -0.5439  0.9821  3.6673
 8517SOL     OW36019   0.842   7.415   3.377  0.0189  0.0895  0.4275
 8517SOL    HW136020   0.892   7.345   3.427  0.0568 -1.9575 -2.3830
 8517SOL    HW236021   0.892   7.439   3.294 -2.5454 -0.4276 -1.3343
 8518SOL     OW36022   2.076   2.597   3.500  0.2358  0.5281  0.3667
 8518SOL    HW136023   2.173   2.580   3.486 -0.2563 -0.0929 -2.4555
 8518SOL    HW236024   2.049   2.680   3.451 -1.2184 -0.8330 -1.1849
 8519SOL     OW36025   3.427   8.645   1.536  0.5764 -0.0777 -0.6919
 8519SOL    HW136026   3.375   8.729   1.520  0.7126 -0.0099 -0.7818
 8519SOL    HW236027   3.496   8.661   1.607  1.1470  0.1206 -1.2834
 8520SOL     OW36028   1.156   6.733   4.037 -0.0757 -0.1980  0.5962
 8520SOL    HW136029   1.105   6.647   4.038 -1.1608  0.4099 -0.8338
 8520SOL    HW236030   1.242   6.721   4.086 -1.9167 -1.0324  3.7422
 8521SOL     OW36031   1.478   4.894   4.302  0.1300 -0.1853  0.1838
 8521SOL    HW136032   1.569   4.934   4.295  0.5010 -1.1490 -0.6342
 8521SOL    HW236033   1.413   4.962   4.335  0.7280  1.1309 -1.3165
 8522SOL     OW36034   8.588   0.865   1.818  0.4214 -0.0260  0.0418
 8522SOL    HW136035   8.516   0.930   1.795  1.0244 -0.0778 -2.1129
 8522SOL    HW236036   8.673   0.914   1.837  0.5472 -0.1100 -0.2968
 8523SOL     OW36037   2.696   7.668   1.458  0.1066  0.5268 -0.1982
 8523SOL    HW136038   2.647   7.742   1.505 -0.8558  0.3068 -0.8291
 8523SOL    HW236039   2.762   7.627   1.520 -0.1661  1.1639  0.5205
 8524SOL     OW36040   8.946   5.799   2.620 -0.1776 -0.1689  0.4353
 8524SOL    HW136041   8.958   5.892   2.653 -0.1358  0.2687 -0.7886
 8524SOL    HW236042   9.001   5.736   2.676 -0.7608  0.4390  1.7026
 8525SOL     OW36043   2.015   8.891   0.454 -0.3835  0.4735 -0.3700
 8525SOL    HW136044   2.037   8.794   0.445 -2.7475 -0.1074 -0.3124
 8525SOL    HW236045   2.020   8.918   0.550 -1.7622 -0.1220 -0.1254
 8526SOL     OW36046   4.257   9.152   4.189  0.0731 -0.1800  0.3923
 8526SOL    HW136047   4.266   9.197   4.100  1.4500  1.0264  1.1153
 8526SOL    HW236048   4.181   9.192   4.240  0.8899  0.9196  0.7725
 8527SOL     OW36049   3.028   7.686   0.513  0.1063 -0.5397 -0.2167
 8527SOL    HW136050   3.110   7.722   0.468 -0.5688  0.5745 -0.5538
 8527SOL    HW236051   3.039   7.587   0.526  0.9712 -0.6153 -1.4171
 8528SOL     OW36052   4.077   3.132   3.279 -0.0387 -0.3722  0.2389
 8528SOL    HW136053   3.995   3.077   3.263 -0.3966  0.0695  0.5346
 8528SOL    HW236054   4.112   3.167   3.192 -0.0522 -0.7205  0.0939
 8529SOL     OW36055   2.409   5.319   2.135 -0.1365 -0.3340  0.6386
 8529SOL    HW136056   2.313   5.344   2.119 -0.7348 -1.9955  1.4317
 8529SOL    HW236057   2.446   5.374   2.210 -0.4178  0.4632  0.1887
 8530SOL     OW36058   1.465   7.987   3.034 -0.4916  0.0523 -0.0236
 8530SOL    HW136059   1.380   7.967   2.986 -1.4726  1.4600  1.0876
 8530SOL    HW236060   1.493   7.907   3.088 -1.4353 -0.2133  0.0814
 8531SOL     OW36061   8.469   0.140   0.883  0.1721 -0.3182 -0.2036
 8531SOL    HW136062   8.373   0.148   0.907 -0.2585 -1.7148 -1.3669
 8531SOL    HW236063   8.524   0.141   0.966 -0.8795 -0.0197  0.5001
 8532SOL     OW36064   5.596   9.205   1.934  0.1362 -1.1490  0.2661
 8532SOL    HW136065   5.688   9.242   1.925  0.3270 -1.8889 -0.8997
 8532SOL    HW236066   5.599   9.121   1.990  0.0557 -0.7662  0.8512
 8533SOL     OW36067   1.007   8.254   2.271 -0.4424 -0.1519  0.3782
 8533SOL    HW136068   1.092   8.231   2.317 -1.8355 -0.6606  2.7703
 8533SOL    HW236069   1.027   8.301   2.185  2.2222  0.5192  1.3240
 8534SOL     OW36070   2.211   5.122   2.834  0.0075 -0.3496 -0.3567
 8534SOL    HW136071   2.223   5.046   2.897  0.9644 -0.3011 -0.4726
 8534SOL    HW236072   2.217   5.089   2.740 -1.0234 -0.3602 -0.4195
 8535SOL     OW36073   6.621   7.523   3.162  0.6876  0.0143 -0.2220
 8535SOL    HW136074   6.621   7.623   3.157  1.4555 -0.0750 -2.5087
 8535SOL    HW236075   6.612   7.485   3.070 -0.6314 -2.0351  0.7275
 8536SOL     OW36076   6.178   7.589   1.975 -0.0907 -0.5147  0.5094
 8536SOL    HW136077   6.238   7.585   1.895  0.2515 -1.3986  0.8057
 8536SOL    HW236078   6.227   7.632   2.051 -0.0725 -0.6096  0.5508
 8537SOL     OW36079   9.388   9.377   1.635 -0.1407  0.6331 -0.3595
 8537SOL    HW136080   9.356   9.450   1.696 -0.6652  0.7532 -0.7752
 8537SOL    HW236081   9.323   9.366   1.559 -0.0922 -0.2961 -0.2761
 8538SOL     OW36082   2.552   2.115   0.810 -0.0347 -0.0130 -0.4066
 8538SOL    HW136083   2.629   2.174   0.786  0.5430 -0.8067 -0.5478
 8538SOL    HW236084   2.497   2.158   0.881  1.3095 -0.0310  0.6762
 8539SOL     OW36085   2.364   4.042   3.619  0.3584  0.3515 -0.1843
 8539SOL    HW136086   2.336   4.091   3.536  2.8259  1.2304 -0.5456
 8539SOL    HW236087   2.463   4.033   3.620  0.2519 -0.9026  2.0089
 8540SOL     OW36088   1.599   6.026   2.738  0.3882  0.5401  0.0056
 8540SOL    HW136089   1.532   6.016   2.812  1.3101 -2.6463  0.4784
 8540SOL    HW236090   1.663   6.099   2.762  0.5096 -0.2548  2.2574
 8541SOL     OW36091   2.037   8.057   3.948 -0.1292  0.0047  0.2831
 8541SOL    HW136092   1.939   8.035   3.952  0.4938 -2.7004  1.6043
 8541SOL    HW236093   2.090   7.972   3.941  2.1282  1.4661 -0.8929
 8542SOL     OW36094   3.655   0.007   3.212 -0.7298 -0.4993  0.1847
 8542SOL    HW136095   3.562  -0.005   3.247 -0.2699  0.1232  1.6533
 8542SOL    HW236096   3.687   0.099   3.231  0.5942 -1.0449  0.6935
 8543SOL     OW36097   0.580   4.522   2.247 -0.2959 -0.5201 -0.0336
 8543SOL    HW136098   0.643   4.445   2.246  1.0150  0.5175  0.5947
 8543SOL    HW236099   0.606   4.585   2.321  0.2341  1.7662 -2.0847
 8544SOL     OW36100   2.747   7.614   2.321  0.2348  0.6124 -0.1556
 8544SOL    HW136101   2.777   7.522   2.296  0.3248  0.7377 -0.5052
 8544SOL    HW236102   2.647   7.616   2.324  0.2524  0.1138  1.3133
 8545SOL     OW36103   1.120   4.333   4.596 -0.5631  0.0363 -0.0508
 8545SOL    HW136104   1.138   4.361   4.501 -2.5110  1.2023 -0.1094
 8545SOL    HW236105   1.042   4.269   4.597 -0.7446  0.2701  0.7915
 8546SOL     OW36106   3.275   2.197   3.758  0.7722 -0.3932  0.3404
 8546SOL    HW136107   3.190   2.244   3.784  1.4232  1.4596 -0.7674
 8546SOL    HW236108   3.316   2.155   3.839  0.1895  1.0131  1.3932
 8547SOL     OW36109   4.481   1.204   2.671 -0.7993  0.6207 -0.1636
 8547SOL    HW136110   4.459   1.300   2.657 -0.1398  0.7705 -0.1993
 8547SOL    HW236111   4.559   1.197   2.733 -0.4441  0.1271 -0.6686
 8548SOL     OW36112   0.354   0.510   0.530  0.5282  0.1973  0.0689
 8548SOL    HW136113   0.349   0.537   0.626  0.7525 -0.3551  0.2437
 8548SOL    HW236114   0.285   0.439   0.512 -0.3857  1.2274 -0.4979
 8549SOL     OW36115   7.720   8.007   1.727  0.1235  0.6569  0.0496
 8549SOL    HW136116   7.664   7.926   1.747 -0.0680  0.6054 -0.6697
 8549SOL    HW236117   7.733   8.060   1.811  0.8904 -0.5201  0.6922
 8550SOL     OW36118   0.328   8.428   2.005 -0.4408  0.3641 -0.2175
 8550SOL    HW136119   0.284   8.508   2.046 -1.1798 -0.7124  1.1150
 8550SOL    HW236120   0.375   8.455   1.921 -1.4683  2.0103 -0.2681
 8551SOL     OW36121   2.197   3.831   3.959 -0.3861 -0.1466  0.3015
 8551SOL    HW136122   2.172   3.862   3.867 -1.3548 -1.1720  0.2048
 8551SOL    HW236123   2.223   3.910   4.015  1.6740  0.3464 -1.2754
 8552SOL     OW36124   2.114   1.110   2.588  0.0539  0.2117 -0.0037
 8552SOL    HW136125   2.176   1.034   2.606 -1.0372 -0.7680 -0.2759
 8552SOL    HW236126   2.056   1.125   2.668 -0.6939 -0.1804 -0.4673
 8553SOL     OW36127   3.314   9.660   3.555 -0.3226 -0.2054 -0.0602
 8553SOL    HW136128   3.376   9.605   3.499 -0.4588  0.8386 -1.2574
 8553SOL    HW236129   3.219   9.638   3.532 -0.3884 -0.5434  0.5260
 8554SOL     OW36130   9.843   5.500   3.620  0.0198  0.3740  0.2032
 8554SOL    HW136131   9.850   5.445   3.537 -0.7050  2.1787 -1.0852
 8554SOL    HW236132   9.758   5.479   3.667 -1.5306  2.2533 -1.6894
 8555SOL     OW36133   5.637   8.136   2.710  0.0626 -0.2031 -0.4005
 8555SOL    HW136134   5.704   8.154   2.782 -0.3351 -0.9232  0.1444
 8555SOL    HW236135   5.634   8.038   2.691 -3.7396 -0.6966  2.3789
 8556SOL     OW36136   0.487   7.935   4.704 -0.1461  0.2208  0.0605
 8556SOL    HW136137   0.568   7.877   4.694  0.2871  0.5645  1.4634
 8556SOL    HW236138   0.471   7.954   4.801 -0.3884  2.2781 -0.3495
 8557SOL     OW36139   4.852   7.257   1.910 -0.2123 -0.3546  0.9254
 8557SOL    HW136140   4.799   7.281   1.991  1.2342  0.7296  1.5653
 8557SOL    HW236141   4.867   7.339   1.854  1.2664 -0.5222  1.0504
 8558SOL     OW36142   2.434   7.643   4.031  0.0612  0.7516  0.0644
 8558SOL    HW136143   2.448   7.634   3.933 -1.5455 -0.6627 -0.0731
 8558SOL    HW236144   2.513   7.605   4.080 -0.3956 -1.2402 -0.6836
 8559SOL     OW36145   3.446   8.772   1.130 -0.2113  0.4355  0.7279
 8559SOL    HW136146   3.423   8.837   1.058 -1.8613 -1.1833 -0.2442
 8559SOL    HW236147   3.390   8.690   1.120  0.3884 -0.3090  3.1451
 8560SOL     OW36148   2.780   4.879   0.650  1.1323 -0.4662  0.8667
 8560SOL    HW136149   2.878   4.876   0.634  1.6497 -0.9149  3.8071
 8560SOL    HW236150   2.748   4.787   0.675  0.6695  0.3916  3.5607
 8561SOL     OW36151   1.826   7.676   0.523  0.6133  0.9283 -0.4713
 8561SOL    HW136152   1.878   7.713   0.600 -0.1534 -0.6027  0.8014
 8561SOL    HW236153   1.734   7.716   0.522  0.0541 -0.2913  0.4320
 8562SOL     OW36154   7.516   6.055   1.975 -0.1179  0.4971  0.4536
 8562SOL    HW136155   7.466   6.123   2.027 -0.3220  1.1319 -0.5494
 8562SOL    HW236156   7.542   5.979   2.034  0.7432  1.7791  1.7443
 8563SOL     OW36157   5.590   9.031   1.673  0.4122  0.0281 -0.1690
 8563SOL    HW136158   5.644   9.072   1.599  0.2913  0.0809 -0.2267
 8563SOL    HW236159   5.569   9.101   1.742  0.8722 -0.1103  0.1195
 8564SOL     OW36160   3.571   4.423   2.518 -0.1912  0.1695  0.1339
 8564SOL    HW136161   3.585   4.401   2.421 -0.7954  1.1527 -0.1920
 8564SOL    HW236162   3.558   4.339   2.570  2.5771 -0.5247 -0.2187
 8565SOL     OW36163   6.331   9.409   1.011  0.3273  0.5101  0.2519
 8565SOL    HW136164   6.281   9.324   0.993 -0.3215  0.6754  1.2912
 8565SOL    HW236165   6.381   9.400   1.097  1.6954  0.5348 -0.5135
 8566SOL     OW36166   2.661   2.366   0.162 -0.0094 -0.5110 -0.3675
 8566SOL    HW136167   2.637   2.269   0.159  0.5133 -0.6226 -1.0531
 8566SOL    HW236168   2.578   2.421   0.148 -0.7474 -0.8000  2.5872
 8567SOL     OW36169   4.174   3.683   4.308  0.0830 -0.0129  0.1835
 8567SOL    HW136170   4.095   3.711   4.362 -0.3909  0.2656 -0.6449
 8567SOL    HW236171   4.239   3.635   4.366 -1.1613 -1.1544  0.6635
 8568SOL     OW36172   1.448   8.843   2.148 -0.6858  0.1514 -0.7958
 8568SOL    HW136173   1.449   8.903   2.228  1.5388 -1.7636  0.6936
 8568SOL    HW236174   1.456   8.898   2.065 -1.8266  2.0973  0.3501
 8569SOL     OW36175   8.147   8.134   3.732 -0.6566 -0.4683  0.9931
 8569SOL    HW136176   8.225   8.196   3.719 -1.6943  0.7478  0.3877
 8569SOL    HW236177   8.177   8.053   3.781  1.0920 -0.2201  0.3877
 8570SOL     OW36178   4.446   3.345   2.169  0.1258  0.5521 -0.1654
 8570SOL    HW136179   4.426   3.422   2.230  0.6784  1.0807 -0.6412
 8570SOL    HW236180   4.476   3.267   2.224 -2.5204 -0.0465  0.5059
 8571SOL     OW36181   1.904   7.942   3.255 -0.0363  0.2537  0.0108
 8571SOL    HW136182   1.915   7.916   3.351 -0.7223  1.9988  0.5819
 8571SOL    HW236183   1.835   8.014   3.248  0.2244  0.3435 -1.7598
 8572SOL     OW36184   2.056   6.888   0.308  0.6185 -0.0061  0.1523
 8572SOL    HW136185   1.970   6.839   0.325  0.2171  0.2021 -1.2296
 8572SOL    HW236186   2.132   6.822   0.308  0.2242 -0.4665 -0.5279
 8573SOL     OW36187   0.484   0.986   1.660 -1.0127 -0.1540  0.6466
 8573SOL    HW136188   0.527   1.065   1.704 -1.5879  0.0086  0.9144
 8573SOL    HW236189   0.512   0.982   1.564 -1.3647  0.6530  0.5030
 8574SOL     OW36190   1.173   3.143   0.986  0.6749  0.0294  0.4702
 8574SOL    HW136191   1.117   3.066   1.016 -1.7103  1.4172 -0.2567
 8574SOL    HW236192   1.117   3.205   0.930  3.3257  0.7720 -1.4343
 8575SOL     OW36193   1.482   1.405   3.847  0.3300 -0.1262  0.2531
 8575SOL    HW136194   1.422   1.361   3.779  0.5553 -0.7144  0.4302
 8575SOL    HW236195   1.574   1.367   3.839  0.6735  0.7388  0.0190
 8576SOL     OW36196   2.489   7.252   2.168 -0.1280  0.5955 -0.0019
 8576SOL    HW136197   2.528   7.160   2.173  1.8226  1.2973 -1.4697
 8576SOL    HW236198   2.495   7.296   2.258  0.6660 -0.0578  0.2691
 8577SOL     OW36199   4.440   0.405   1.174  0.5462  0.4149 -0.6380
 8577SOL    HW136200   4.404   0.387   1.083  1.5397  0.8869 -1.1264
 8577SOL    HW236201   4.500   0.330   1.201 -2.1450 -1.2758  0.9123
 8578SOL     OW36202   8.436   0.443   2.196 -0.3268 -0.8029  0.6089
 8578SOL    HW136203   8.452   0.522   2.137 -0.9490 -0.6847  0.5935
 8578SOL    HW236204   8.504   0.373   2.176 -0.8887 -1.0028 -0.6804
 8579SOL     OW36205   9.957   0.135   3.362 -0.3327 -0.3492  0.8582
 8579SOL    HW136206  10.012   0.195   3.304 -0.0982  0.6119  2.0451
 8579SOL    HW236207   9.911   0.190   3.433 -2.1797 -1.2455  0.3789
 8580SOL     OW36208   8.117   8.322   3.314  0.2151  0.0715 -0.1156
 8580SOL    HW136209   8.139   8.229   3.342  0.5080 -0.8977 -3.3448
 8580SOL    HW236210   8.017   8.333   3.310  0.1799 -0.0146  0.5119
 8581SOL     OW36211   1.269   6.168   3.656  0.1454 -0.1141  0.0946
 8581SOL    HW136212   1.321   6.174   3.571 -0.5729  1.4204 -0.2569
 8581SOL    HW236213   1.311   6.100   3.716  1.2283 -0.5091 -1.0841
 8582SOL     OW36214   4.015   9.770   3.882  0.5733  0.2690 -0.4175
 8582SOL    HW136215   4.064   9.764   3.795  0.1371  1.2102 -0.7257
 8582SOL    HW236216   3.930   9.718   3.877  0.3108  0.7270 -0.7147
 8583SOL     OW36217   9.178   5.010   2.397 -0.1982 -0.0105  0.0336
 8583SOL    HW136218   9.253   5.029   2.333  0.9195  0.1655  1.3727
 8583SOL    HW236219   9.140   5.095   2.431 -0.8193 -0.1045 -0.4191
 8584SOL     OW36220   0.362   2.004   1.101  0.2061  0.0065  0.1399
 8584SOL    HW136221   0.346   2.019   1.199 -1.6012 -1.5062  0.1199
 8584SOL    HW236222   0.300   2.062   1.048  1.0724  0.7075 -0.1057
 8585SOL     OW36223   1.902   8.749   3.870 -0.7574  0.4995  0.0669
 8585SOL    HW136224   1.977   8.718   3.929 -0.7350  0.0510 -0.1988
 8585SOL    HW236225   1.879   8.844   3.893 -0.4655  0.4637  0.5098
 8586SOL     OW36226   1.643   6.601   0.974 -0.5427  0.2830  0.1617
 8586SOL    HW136227   1.664   6.698   0.956 -1.0791  0.0877 -1.5288
 8586SOL    HW236228   1.591   6.563   0.898  0.5553 -1.6258  0.3421
 8587SOL     OW36229   3.797   7.486   0.866  0.1851 -0.1723 -0.1270
 8587SOL    HW136230   3.759   7.523   0.781  2.6250 -2.3290 -2.2596
 8587SOL    HW236231   3.856   7.555   0.909  1.1313  0.0085 -1.6717
 8588SOL     OW36232   1.834   9.532   2.006 -0.1371  0.5659 -0.4971
 8588SOL    HW136233   1.756   9.583   2.044  0.0304 -0.4834  1.2743
 8588SOL    HW236234   1.844   9.445   2.053  0.8666 -0.2206 -2.1156
 8589SOL     OW36235   1.647   3.816   3.864  0.0353 -0.6936  0.1947
 8589SOL    HW136236   1.649   3.911   3.895 -2.7848 -0.7814  0.7916
 8589SOL    HW236237   1.677   3.756   3.938 -0.1182 -0.4038  0.4946
 8590SOL     OW36238   1.637   1.891   3.502  0.4873 -0.5150  0.3301
 8590SOL    HW136239   1.652   1.949   3.583 -0.4501 -0.4771  0.4894
 8590SOL    HW236240   1.720   1.842   3.480  0.7727 -0.4638  1.2821
 8591SOL     OW36241   0.826   0.087   2.667 -0.0463 -0.0483  0.1513
 8591SOL    HW136242   0.911   0.097   2.616 -1.6454 -0.9487 -2.8501
 8591SOL    HW236243   0.829   0.002   2.720  0.4095 -0.7672 -1.0096
 8592SOL     OW36244   8.191   8.084   3.382 -0.9682 -0.0447 -0.0945
 8592SOL    HW136245   8.270   8.134   3.417 -1.9733  0.5395  1.4407
 8592SOL    HW236246   8.220   7.994   3.348  0.7247  1.2051 -2.0712
 8593SOL     OW36247   1.583   6.228   2.436  0.4119  0.5337  0.0753
 8593SOL    HW136248   1.532   6.303   2.479  0.2735  1.9611 -2.4808
 8593SOL    HW236249   1.642   6.265   2.364 -0.0744 -1.8892 -1.6201
 8594SOL     OW36250   1.471   1.136   1.723 -0.3873  0.4279 -0.5988
 8594SOL    HW136251   1.383   1.181   1.712 -0.5265  0.0740 -0.9733
 8594SOL    HW236252   1.457   1.039   1.744 -0.0904  0.3513 -0.7432
 8595SOL     OW36253   4.001   0.031   0.329 -0.0883  0.4735  0.4994
 8595SOL    HW136254   4.043   0.095   0.265  0.3490 -0.9758 -0.6981
 8595SOL    HW236255   3.938   0.080   0.389 -0.6109  1.8597 -1.1326
 8596SOL     OW36256   6.286   9.682   2.932  0.0116  0.2945  0.0429
 8596SOL    HW136257   6.259   9.753   2.867 -2.5013 -1.9300 -1.4754
 8596SOL    HW236258   6.314   9.600   2.882  2.3889  0.0078  1.7605
 8597SOL     OW36259   3.521   4.193   1.924 -0.4484 -0.2168 -0.2776
 8597SOL    HW136260   3.426   4.163   1.932  0.0213 -1.7108 -0.1725
 8597SOL    HW236261   3.532   4.248   1.841 -1.3293 -0.3205 -0.4611
 8598SOL     OW36262   3.324   7.932   4.304  0.4841 -0.2426  0.1904
 8598SOL    HW136263   3.353   7.839   4.280  2.1054  0.8879 -2.4151
 8598SOL    HW236264   3.254   7.963   4.239 -1.7867 -0.4385  2.4361
 8599SOL     OW36265   9.796   9.214   4.471  0.4627  0.3626 -0.2258
 8599SOL    HW136266   9.856   9.287   4.504  0.1007  0.7401 -0.3867
 8599SOL    HW236267   9.779   9.148   4.545  1.2372  0.1431 -0.2450
 8600SOL     OW36268   5.090   8.172   2.078  0.3816  0.0335  0.0851
 8600SOL    HW136269   5.028   8.250   2.083  2.5253  1.7829  0.1796
 8600SOL    HW236270   5.182   8.201   2.105  1.2466 -2.4905 -0.0559
 8601SOL     OW36271   0.280   7.886   4.503  0.1194 -0.0624 -0.0667
 8601SOL    HW136272   0.350   7.910   4.571  0.2643 -0.2831 -0.1376
 8601SOL    HW236273   0.191   7.920   4.534  0.3894  0.9030 -0.3598
 8602SOL     OW36274   3.810   6.236   2.888  0.3689  0.2969 -0.4434
 8602SOL    HW136275   3.780   6.153   2.842 -2.5934  0.4599  1.0435
 8602SOL    HW236276   3.736   6.304   2.886  1.0170  1.1558  2.4311
 8603SOL     OW36277   3.680   8.333   3.046  0.5240  0.5865 -0.1191
 8603SOL    HW136278   3.747   8.291   2.985  0.4681  0.6670 -0.2352
 8603SOL    HW236279   3.589   8.298   3.023  0.5752  0.1769  0.2943
 8604SOL     OW36280   1.437   6.233   3.423  0.1544  0.4495 -0.4730
 8604SOL    HW136281   1.447   6.284   3.338  1.9984 -0.0752 -0.5903
 8604SOL    HW236282   1.439   6.296   3.501 -0.0993  0.7872 -0.7393
 8605SOL     OW36283   3.070   9.601   3.425 -0.2907 -0.0084 -0.1446
 8605SOL    HW136284   3.076   9.557   3.335 -1.5015 -1.2261  0.3474
 8605SOL    HW236285   2.979   9.640   3.436  0.0181  0.5706  0.3617
 8606SOL     OW36286   3.229   3.265   0.780 -0.3492  0.4944 -0.0103
 8606SOL    HW136287   3.147   3.215   0.807 -1.4123  1.2440 -1.7952
 8606SOL    HW236288   3.292   3.204   0.732  0.0110  0.0107  1.0456
 8607SOL     OW36289   9.648   4.480   1.872  0.4479 -0.2599  0.2566
 8607SOL    HW136290   9.739   4.518   1.861 -0.0819  0.8186 -0.4573
 8607SOL    HW236291   9.643   4.391   1.826  1.0482 -0.1974  0.0690
 8608SOL     OW36292   1.368   0.554   2.116 -0.0708  0.4348 -0.5347
 8608SOL    HW136293   1.457   0.508   2.112 -0.5115 -0.4657 -0.0438
 8608SOL    HW236294   1.379   0.649   2.088  0.5455 -0.3983 -3.3052
 8609SOL     OW36295   1.414   8.794   3.600 -0.0388  0.8737 -0.2739
 8609SOL    HW136296   1.415   8.874   3.659  1.5639  1.1694 -0.6930
 8609SOL    HW236297   1.495   8.794   3.541  0.0754 -1.1564 -0.1519
 8610SOL     OW36298   3.642   4.569   4.079 -0.0710 -0.1382  0.1832
 8610SOL    HW136299   3.668   4.622   4.160  1.5773 -1.5334  0.6084
 8610SOL    HW236300   3.631   4.473   4.105 -4.1995  0.1223 -0.3276
 8611SOL     OW36301   3.518   2.894   4.521 -0.0884 -0.4743 -0.3272
 8611SOL    HW136302   3.605   2.878   4.474  0.7311  0.7844  0.7490
 8611SOL    HW236303   3.443   2.880   4.457  0.9652  0.0128 -1.6839
 8612SOL     OW36304   3.827   0.231   0.448 -0.7993 -0.4969  0.4299
 8612SOL    HW136305   3.836   0.276   0.536  1.1273  1.0338 -0.5209
 8612SOL    HW236306   3.734   0.243   0.414 -0.3837  2.6874  0.2643
 8613SOL     OW36307   8.380   6.574   0.895  0.1198  0.1832 -0.2756
 8613SOL    HW136308   8.426   6.521   0.824  2.3632  0.2529  1.0674
 8613SOL    HW236309   8.283   6.582   0.873  0.5621 -0.7235 -2.7477
 8614SOL     OW36310   1.924   8.175   4.678 -0.0607  0.7565 -0.0239
 8614SOL    HW136311   1.833   8.142   4.702 -0.4509  2.2527  0.5976
 8614SOL    HW236312   1.968   8.110   4.615 -0.9420 -0.7420  0.8759
 8615SOL     OW36313   7.623   6.670   2.006 -0.4265  0.1841 -0.4418
 8615SOL    HW136314   7.594   6.585   1.963 -0.5679 -0.8995  1.7367
 8615SOL    HW236315   7.620   6.744   1.938 -1.5520 -1.2695 -2.0310
 8616SOL     OW36316   8.746   9.451   1.178  0.1858  0.3939  0.1259
 8616SOL    HW136317   8.834   9.466   1.132  1.4317 -1.1830  1.8855
 8616SOL    HW236318   8.738   9.354   1.202 -1.1731  0.8912  1.7340
 8617SOL     OW36319   3.927   9.299   3.473  0.3195 -0.2928 -1.2268
 8617SOL    HW136320   3.898   9.379   3.526  0.8638 -1.0897  0.3232
 8617SOL    HW236321   3.967   9.329   3.386 -1.4178  1.0073 -1.6105
 8618SOL     OW36322   4.851   3.394   2.754  0.3085  0.1347  0.3738
 8618SOL    HW136323   4.782   3.388   2.682  0.7673 -0.5283 -0.0058
 8618SOL    HW236324   4.900   3.307   2.762  1.4677  0.7677  0.2808
 8619SOL     OW36325   1.831   7.777   3.768 -0.7781 -0.3452  0.0088
 8619SOL    HW136326   1.895   7.763   3.844  1.3204 -0.4367 -1.7095
 8619SOL    HW236327   1.873   7.839   3.701 -2.6335 -0.1794 -1.0227
 8620SOL     OW36328   8.628   8.486   2.132 -0.6596 -0.2345  0.3642
 8620SOL    HW136329   8.701   8.440   2.182  0.3036  1.1026  0.2207
 8620SOL    HW236330   8.622   8.448   2.039  1.5502  1.3421 -0.4627
 8621SOL     OW36331   0.911   3.044   1.066 -0.3193 -0.1370 -0.4805
 8621SOL    HW136332   0.909   2.980   0.989  2.7608  3.2900 -3.6034
 8621SOL    HW236333   0.854   3.123   1.045 -0.2400  0.3930  1.2135
 8622SOL     OW36334   2.983   7.747   2.349  0.1268  0.3181  0.1721
 8622SOL    HW136335   2.893   7.718   2.316  0.2831  1.4475 -1.2944
 8622SOL    HW236336   2.982   7.751   2.449 -1.0135 -1.0671  0.2234
 8623SOL     OW36337   2.998   2.504   1.853 -0.1704  0.0963 -0.7219
 8623SOL    HW136338   3.008   2.593   1.807  2.3638  0.0974 -0.2504
 8623SOL    HW236339   3.042   2.508   1.942 -1.1028 -1.2920 -0.1967
 8624SOL     OW36340   5.178   0.637   2.296 -0.0714 -0.0456 -0.6889
 8624SOL    HW136341   5.150   0.676   2.208 -1.2154 -0.7758 -0.6563
 8624SOL    HW236342   5.103   0.646   2.362  0.9873  1.0327  0.3979
 8625SOL     OW36343   7.498   7.771   3.341 -0.3633  0.4009 -0.0203
 8625SOL    HW136344   7.400   7.760   3.328 -0.2813 -0.5683  0.1724
 8625SOL    HW236345   7.537   7.818   3.261 -0.7108 -0.8007 -0.9152
 8626SOL     OW36346   0.326   0.068   2.390 -0.8842  0.4228  0.6992
 8626SOL    HW136347   0.405   0.130   2.384 -1.1244  1.0050  2.9964
 8626SOL    HW236348   0.277   0.068   2.302 -0.2280  2.6138  0.2884
 8627SOL     OW36349   1.487   2.404   2.959 -0.4708 -0.1702 -0.2605
 8627SOL    HW136350   1.572   2.434   3.003 -2.3289  1.0661  2.6197
 8627SOL    HW236351   1.470   2.308   2.983 -0.3232 -0.1779 -0.1852
 8628SOL     OW36352   3.247   5.698   1.947  0.1645 -0.1163  0.4151
 8628SOL    HW136353   3.197   5.709   1.861  0.1443 -1.0403  0.3036
 8628SOL    HW236354   3.191   5.735   2.022 -0.7298 -1.1846  0.2961
 8629SOL     OW36355   3.439   3.557   0.301 -0.8507 -0.1078 -0.6430
 8629SOL    HW136356   3.365   3.575   0.236  0.1196  0.8914 -1.4926
 8629SOL    HW236357   3.507   3.497   0.259 -0.5279  0.0255 -0.3179
 8630SOL     OW36358   0.141   0.602   1.523  0.6890  0.6935 -0.1873
 8630SOL    HW136359   0.103   0.548   1.598 -2.0487  0.2189 -1.8447
 8630SOL    HW236360   0.240   0.607   1.533  0.5415 -0.7550  2.5307
 8631SOL     OW36361   3.789   9.367   4.477 -0.4720 -0.2993 -0.1326
 8631SOL    HW136362   3.769   9.277   4.438  1.7301 -0.7150 -0.3491
 8631SOL    HW236363   3.756   9.369   4.572 -2.1476 -0.7007 -0.6955
 8632SOL     OW36364   2.545   4.147   2.312 -0.1315  0.4672 -0.2048
 8632SOL    HW136365   2.562   4.138   2.410 -1.8417 -0.3479  0.0180
 8632SOL    HW236366   2.599   4.079   2.262  0.0561  0.3039  0.2213
 8633SOL     OW36367   4.168   0.472   3.138 -0.2651  0.8392 -0.1976
 8633SOL    HW136368   4.081   0.494   3.183  0.3042  2.3201  0.2179
 8633SOL    HW236369   4.159   0.487   3.040 -0.8551 -0.2512 -0.3165
 8634SOL     OW36370   8.940   8.651   0.408  0.3348  0.1692  0.0738
 8634SOL    HW136371   8.856   8.690   0.448  2.2292  0.5570  3.9022
 8634SOL    HW236372   8.942   8.553   0.425  0.3998  0.0655 -0.5292
 8635SOL     OW36373   0.285   4.994   2.951  0.0253  0.1540  0.3464
 8635SOL    HW136374   0.225   5.050   2.894 -0.0073  1.2142  1.4063
 8635SOL    HW236375   0.377   4.994   2.913 -0.5449 -1.2075 -1.1061
 8636SOL     OW36376   9.010   0.161   2.893 -0.4936  0.3629  0.2291
 8636SOL    HW136377   8.991   0.214   2.975  2.6243  0.4283  0.9647
 8636SOL    HW236378   9.008   0.222   2.813  0.7467  1.1553  0.7869
 8637SOL     OW36379   2.914   8.907   0.171 -0.4657  0.1908  0.3985
 8637SOL    HW136380   2.879   8.998   0.193 -0.5808 -0.0104  1.0462
 8637SOL    HW236381   2.983   8.881   0.238 -0.0306  0.0306 -0.1105
 8638SOL     OW36382   9.459   1.336   2.284 -0.1846 -0.4467 -0.2945
 8638SOL    HW136383   9.522   1.405   2.248  0.3154 -0.5639  0.3338
 8638SOL    HW236384   9.508   1.249   2.293 -0.2891 -0.4073  0.7043
 8639SOL     OW36385   2.150   9.628   2.925  0.4589  0.6217  0.0585
 8639SOL    HW136386   2.052   9.635   2.944  0.3594 -0.1908 -0.1418
 8639SOL    HW236387   2.166   9.638   2.827  0.3746 -1.2290 -0.1585
 8640SOL     OW36388   2.209   5.049   3.676  0.0216 -0.7610  0.4076
 8640SOL    HW136389   2.197   5.015   3.769  1.9074 -0.4103  0.8043
 8640SOL    HW236390   2.190   5.147   3.674 -1.1785 -0.9909  0.1636
 8641SOL     OW36391   9.621   7.025   3.789 -0.4694  0.3063  0.1174
 8641SOL    HW136392   9.639   6.984   3.879 -1.2640 -0.1871  0.0581
 8641SOL    HW236393   9.585   6.955   3.727  0.9398  0.4421 -0.8615
 8642SOL     OW36394   0.832   3.410   0.864 -0.3321  0.2255 -0.5966
 8642SOL    HW136395   0.925   3.385   0.838 -0.3187  0.0960 -0.4247
 8642SOL    HW236396   0.835   3.462   0.950 -0.3204  1.1778 -1.1588
 8643SOL     OW36397   0.730   2.374   2.978  0.0915  0.3347  0.4805
 8643SOL    HW136398   0.731   2.292   2.920 -1.4182  0.3525  0.4276
 8643SOL    HW236399   0.776   2.449   2.930  1.5692 -0.4960  0.5672
 8644SOL     OW36400   8.491   9.799   3.016 -0.3132 -0.5197  0.4349
 8644SOL    HW136401   8.528   9.821   2.925  0.3867 -1.3980  0.5100
 8644SOL    HW236402   8.551   9.734   3.062 -0.7190 -0.1480  1.4955
 8645SOL     OW36403   0.186   8.786   3.523  0.3273  0.2545  0.2876
 8645SOL    HW136404   0.102   8.734   3.541  0.3269  0.0609 -0.2356
 8645SOL    HW236405   0.163   8.881   3.501  0.1913  0.0339 -0.5356
 8646SOL     OW36406   0.863   3.942   2.769  0.0468 -0.2795  0.2397
 8646SOL    HW136407   0.837   3.852   2.803  1.8699 -0.8318  0.1888
 8646SOL    HW236408   0.811   3.962   2.686 -1.7290 -0.4800  1.2838
 8647SOL     OW36409   0.238   9.229   2.821  0.3918  0.4436 -0.2270
 8647SOL    HW136410   0.277   9.163   2.757  1.1231  0.5005  0.1556
 8647SOL    HW236411   0.180   9.181   2.887  0.0282  0.3254 -0.6315
 8648SOL     OW36412   2.553   2.471   0.620  0.1625 -0.5804  0.4939
 8648SOL    HW136413   2.523   2.415   0.543 -0.7960 -0.4685  0.7796
 8648SOL    HW236414   2.511   2.437   0.704  0.4676 -0.1279  0.8336
 8649SOL     OW36415   9.333   0.399   2.354  0.5144 -0.7819 -0.4565
 8649SOL    HW136416   9.286   0.323   2.311 -1.8663  1.3806 -1.8561
 8649SOL    HW236417   9.350   0.471   2.286  0.5940  0.8906  1.2824
 8650SOL     OW36418   0.835   5.232   3.945 -0.4858  0.4017 -0.3124
 8650SOL    HW136419   0.776   5.261   3.870 -0.5109 -0.3720 -0.6010
 8650SOL    HW236420   0.930   5.227   3.914 -0.1777  2.1972  0.3061
 8651SOL     OW36421   0.313   4.866   1.075  0.8823  0.1073  0.0253
 8651SOL    HW136422   0.367   4.894   0.996  1.2247 -1.0310 -0.1517
 8651SOL    HW236423   0.355   4.903   1.158  1.6993 -0.4194 -0.1482
 8652SOL     OW36424   0.499   3.320   1.623 -0.3858  0.1135 -0.1838
 8652SOL    HW136425   0.416   3.266   1.638  1.5210 -2.4456  1.5123
 8652SOL    HW236426   0.540   3.296   1.535 -1.0980  0.9593 -0.7577
 8653SOL     OW36427   0.830   0.608   3.304  0.1394  0.3383 -0.0489
 8653SOL    HW136428   0.805   0.687   3.248 -2.2250  0.5578  1.2326
 8653SOL    HW236429   0.846   0.529   3.245  0.1824  1.1863 -1.1878
 8654SOL     OW36430   1.813   3.698   2.390  0.0638 -0.1308  0.3021
 8654SOL    HW136431   1.891   3.758   2.407  2.3605 -2.2400 -2.3124
 8654SOL    HW236432   1.846   3.606   2.368 -3.2652 -1.5915  1.1113
 8655SOL     OW36433   8.175   8.805   1.388 -0.5691 -0.5358  0.2789
 8655SOL    HW136434   8.115   8.772   1.462  0.5174  0.2597  1.5405
 8655SOL    HW236435   8.202   8.899   1.407  0.7319 -0.7403 -0.5054
 8656SOL     OW36436   7.271   7.496   2.407 -0.1107  0.2824 -0.4017
 8656SOL    HW136437   7.350   7.524   2.352  1.5398 -1.5717  0.9871
 8656SOL    HW236438   7.268   7.548   2.492  1.3361 -1.6657  0.8839
 8657SOL     OW36439   2.239   7.881   0.339  0.2374 -0.2719 -0.8247
 8657SOL    HW136440   2.304   7.873   0.414 -0.1855  0.4516 -0.3612
 8657SOL    HW236441   2.217   7.791   0.303 -1.4380 -0.8982  1.5850
 8658SOL     OW36442   5.981   9.712   3.959  0.2518 -0.0221  0.7976
 8658SOL    HW136443   5.902   9.773   3.965  1.1831  1.1429  1.5823
 8658SOL    HW236444   6.047   9.735   4.031  1.9439 -0.0460 -0.6912
 8659SOL     OW36445   2.040   5.279   3.623 -0.0964  0.1235 -0.5775
 8659SOL    HW136446   1.955   5.226   3.619  0.5362 -0.9821  0.1992
 8659SOL    HW236447   2.020   5.375   3.606 -1.3905 -0.2445 -1.1969
 8660SOL     OW36448   9.972   1.376   2.591  0.3050 -0.5552 -0.1941
 8660SOL    HW136449   9.898   1.373   2.524 -0.1813  0.7875  0.2805
 8660SOL    HW236450  10.030   1.456   2.575  0.0973 -0.1367  1.0709
 8661SOL     OW36451   3.112   2.911   2.659  0.4644 -0.4972 -0.2707
 8661SOL    HW136452   3.164   2.994   2.639 -0.8521 -0.2901 -3.1130
 8661SOL    HW236453   3.018   2.934   2.681  0.2365 -1.1977 -0.4876
 8662SOL     OW36454   2.345   6.643   1.301  0.2301  0.4378 -0.1061
 8662SOL    HW136455   2.381   6.674   1.213  0.5034  0.4035 -0.0059
 8662SOL    HW236456   2.374   6.706   1.373  0.4806  0.1546  0.0435
 8663SOL     OW36457   6.439   8.796   3.863 -0.4629 -0.0111 -0.2036
 8663SOL    HW136458   6.373   8.760   3.797 -0.6931  0.1988 -0.0878
 8663SOL    HW236459   6.524   8.744   3.856 -1.3666 -1.7314  1.1671
 8664SOL     OW36460   1.057   8.387   4.146  0.0467 -0.2866 -0.5885
 8664SOL    HW136461   1.078   8.298   4.105 -1.9089 -0.9668 -0.2214
 8664SOL    HW236462   1.094   8.391   4.239 -0.0340 -0.8184 -0.5317
 8665SOL     OW36463   7.643   9.757   3.255 -0.1379  0.0940  0.7559
 8665SOL    HW136464   7.582   9.736   3.179 -0.1955  0.7200  0.6272
 8665SOL    HW236465   7.647   9.856   3.269 -1.3564 -0.0889  2.5852
 8666SOL     OW36466   3.784   0.558   2.443 -0.6337  0.1147 -0.3862
 8666SOL    HW136467   3.776   0.477   2.502  2.7818  0.4477  0.6724
 8666SOL    HW236468   3.791   0.640   2.499 -2.1736  0.9653 -1.4106
 8667SOL     OW36469   1.685   1.625   3.655  0.5069 -0.6201  0.0568
 8667SOL    HW136470   1.731   1.692   3.714  2.6926  0.4909 -2.8271
 8667SOL    HW236471   1.595   1.661   3.628  1.3618  0.8441 -0.8753
 8668SOL     OW36472   6.131   8.937   2.329  0.1108 -0.1537 -0.2150
 8668SOL    HW136473   6.073   8.975   2.401 -1.1904 -0.6330 -0.9885
 8668SOL    HW236474   6.073   8.899   2.257  1.4029 -1.1001 -0.7646
 8669SOL     OW36475   2.112   4.379   4.193  0.1206 -0.3649  0.0334
 8669SOL    HW136476   2.070   4.417   4.276 -0.8816 -1.9863  0.2904
 8669SOL    HW236477   2.042   4.371   4.122  0.1723 -2.2030  0.1614
 8670SOL     OW36478   9.525   5.129   3.529  0.0098 -0.5589  0.2318
 8670SOL    HW136479   9.478   5.156   3.445 -2.3121 -0.2392  1.5879
 8670SOL    HW236480   9.473   5.162   3.608  2.3721 -0.4709  1.8093
 8671SOL     OW36481   9.087   9.624   0.435 -0.8676  0.7865  0.2587
 8671SOL    HW136482   9.116   9.539   0.392 -1.4180  0.0271  1.3569
 8671SOL    HW236483   9.164   9.665   0.484 -0.4739  1.1831 -0.6904
 8672SOL     OW36484   8.355   8.412   1.180  0.6796  0.1908  0.5226
 8672SOL    HW136485   8.396   8.345   1.119 -2.9326 -0.0215 -1.7692
 8672SOL    HW236486   8.346   8.499   1.133 -0.1778  0.6331  1.4943
 8673SOL     OW36487   2.643   8.417   0.297  0.5999 -0.1149 -0.3772
 8673SOL    HW136488   2.589   8.360   0.234  2.6413  0.0120 -2.3149
 8673SOL    HW236489   2.626   8.513   0.277  2.2288 -0.0697 -1.6540
 8674SOL     OW36490   6.177   7.820   2.762  0.6448 -0.5677 -0.2781
 8674SOL    HW136491   6.112   7.745   2.765  1.2909 -1.1399 -0.4491
 8674SOL    HW236492   6.255   7.795   2.704  1.0712  0.0604  0.0093
 8675SOL     OW36493   9.597   5.755   4.211  0.1848  0.6690  0.8901
 8675SOL    HW136494   9.540   5.786   4.288 -2.9716  4.2901 -2.6583
 8675SOL    HW236495   9.570   5.662   4.185 -0.3230  0.2969  2.6922
 8676SOL     OW36496   5.930   0.354   2.603 -0.1998  0.2332 -0.5894
 8676SOL    HW136497   5.866   0.429   2.587  0.1004  0.5658 -0.2552
 8676SOL    HW236498   5.973   0.366   2.693 -0.5690 -0.6507 -0.2905
 8677SOL     OW36499   3.124   3.604   2.257 -0.5866  0.7170  0.0210
 8677SOL    HW136500   3.062   3.654   2.317 -0.1053  0.7910  0.4705
 8677SOL    HW236501   3.218   3.636   2.273 -0.3326  0.0013 -0.0178
 8678SOL     OW36502   5.972   0.204   3.970  0.0870 -0.1352  0.0279
 8678SOL    HW136503   5.893   0.156   4.009 -0.0486  1.5067  1.8396
 8678SOL    HW236504   6.055   0.174   4.017  0.4597 -1.1787 -1.2547
 8679SOL     OW36505   8.148   7.812   0.655 -0.4289 -0.4538 -0.2454
 8679SOL    HW136506   8.176   7.800   0.560 -0.4217 -1.4783 -0.1223
 8679SOL    HW236507   8.048   7.815   0.660 -0.4091  1.5044 -0.4893
 8680SOL     OW36508   6.405   9.270   3.403  0.2599 -0.0295  0.0176
 8680SOL    HW136509   6.405   9.206   3.325 -1.1832  0.2407 -0.2294
 8680SOL    HW236510   6.403   9.364   3.368  0.7666  0.1167  0.3838
 8681SOL     OW36511   5.668   0.064   3.614 -0.1317 -0.5025  0.1586
 8681SOL    HW136512   5.760   0.074   3.652 -0.9262  0.5564  1.8800
 8681SOL    HW236513   5.633   0.154   3.587 -0.3356 -1.0021 -1.3404
 8682SOL     OW36514   0.218   2.933   3.229  0.1100  0.3055  0.3833
 8682SOL    HW136515   0.210   2.946   3.130 -0.8721 -0.5519  0.3381
 8682SOL    HW236516   0.286   2.863   3.248  0.2445  0.4164  0.3063
 8683SOL     OW36517   0.400   8.768   2.448 -0.1218 -0.4712  0.1860
 8683SOL    HW136518   0.417   8.806   2.357 -2.4466 -0.9207 -0.4598
 8683SOL    HW236519   0.357   8.838   2.506 -0.3368 -0.7554  0.3706
 8684SOL     OW36520   6.812   8.716   3.403  0.4309 -0.3418  0.1234
 8684SOL    HW136521   6.833   8.813   3.390  1.7085 -0.2873  2.4860
 8684SOL    HW236522   6.897   8.665   3.415 -0.2890 -1.6379 -0.1835
 8685SOL     OW36523   2.526   2.815   1.887 -0.0776  0.3657 -0.3800
 8685SOL    HW136524   2.471   2.859   1.816  0.0544  1.8608  0.4093
 8685SOL    HW236525   2.623   2.831   1.868  0.0403 -1.0695 -1.0152
 8686SOL     OW36526   1.516   9.655   2.252 -0.1033  0.6319  0.1978
 8686SOL    HW136527   1.433   9.610   2.284 -0.0870 -1.0030 -1.8987
 8686SOL    HW236528   1.530   9.633   2.155  2.2790  1.6589  0.2759
 8687SOL     OW36529   6.985   8.177   1.224  0.3148  0.6559 -0.3467
 8687SOL    HW136530   6.918   8.223   1.283  0.0214  0.1370 -0.2755
 8687SOL    HW236531   7.077   8.198   1.256  0.1220 -1.3405  1.6032
 8688SOL     OW36532   5.508   7.006   3.268  0.1194 -0.0806  0.3561
 8688SOL    HW136533   5.492   6.941   3.194 -2.2205  1.5022 -0.5770
 8688SOL    HW236534   5.580   7.070   3.241  0.4597 -0.5463  0.1494
 8689SOL     OW36535   4.830   2.226   1.877 -0.3126 -0.1305  0.2749
 8689SOL    HW136536   4.744   2.269   1.902 -1.5923 -1.3504 -1.8138
 8689SOL    HW236537   4.867   2.270   1.795  0.3152 -0.5127  0.3495
 8690SOL     OW36538   8.887   8.342   3.821 -0.0068 -0.4671  0.4859
 8690SOL    HW136539   8.903   8.253   3.778  0.3139 -0.5218  0.7163
 8690SOL    HW236540   8.957   8.359   3.890 -0.1121 -0.0689  0.4982
 8691SOL     OW36541   3.315   3.159   1.383 -0.6356 -0.0790 -0.9261
 8691SOL    HW136542   3.247   3.098   1.426 -1.2833  0.5529 -1.0361
 8691SOL    HW236543   3.294   3.254   1.407  0.9321  0.0407  0.0301
 8692SOL     OW36544   4.566   1.019   2.929 -0.1110  0.4096  0.4906
 8692SOL    HW136545   4.555   0.923   2.904  0.7938  0.4673 -0.1711
 8692SOL    HW236546   4.506   1.042   3.005 -2.2170 -0.0411 -1.0157
 8693SOL     OW36547   9.990   9.959   4.668  0.1209 -0.4057  0.4043
 8693SOL    HW136548   9.901  10.004   4.662  0.5840  0.5875  0.7430
 8693SOL    HW236549   9.978   9.861   4.683 -0.9079 -0.2884  0.3603
 8694SOL     OW36550   3.756   9.660   1.305 -0.2498 -0.0642 -0.0544
 8694SOL    HW136551   3.737   9.723   1.380 -0.2283  0.3841 -0.4219
 8694SOL    HW236552   3.700   9.577   1.316 -0.8198  0.3283  0.0428
 8695SOL     OW36553   0.198   4.420   3.774  0.2573 -0.2000 -0.0850
 8695SOL    HW136554   0.143   4.447   3.695 -1.2261  3.1765  1.9412
 8695SOL    HW236555   0.295   4.431   3.753 -0.0997 -0.2155 -1.7421
 8696SOL     OW36556   2.715   5.821   2.950 -0.1498 -0.0050 -0.2509
 8696SOL    HW136557   2.697   5.771   2.865 -1.2894  1.3254 -0.8112
 8696SOL    HW236558   2.698   5.761   3.028  1.1151 -1.3046 -0.9616
 8697SOL     OW36559   5.985   9.088   3.595  0.1082 -0.2239  0.4045
 8697SOL    HW136560   6.052   9.144   3.645  0.9633 -0.8983  0.0280
 8697SOL    HW236561   5.910   9.146   3.565  1.4476  0.9377 -0.8112
 8698SOL     OW36562   0.548   4.908   1.852 -0.8139  0.2815 -0.0957
 8698SOL    HW136563   0.647   4.910   1.834 -0.4366 -0.0561  1.8263
 8698SOL    HW236564   0.523   4.818   1.888 -2.0141  0.0178 -1.5657
 8699SOL     OW36565   1.527   6.951   4.654 -0.1214  0.1071  0.0821
 8699SOL    HW136566   1.621   6.976   4.677 -0.3021  1.0231 -0.1632
 8699SOL    HW236567   1.492   7.014   4.585 -1.0663  0.0343  0.4972
 8700SOL     OW36568   4.266   8.503   3.677  0.0293  0.4005 -0.0765
 8700SOL    HW136569   4.182   8.554   3.692  0.2823  1.2250 -1.3458
 8700SOL    HW236570   4.305   8.528   3.588 -0.1473 -2.4483 -0.9945
 8701SOL     OW36571   0.333   4.868   0.160 -0.3145  0.5652 -0.4132
 8701SOL    HW136572   0.417   4.873   0.214 -0.7233  1.9188  0.1353
 8701SOL    HW236573   0.321   4.954   0.110 -1.4614  0.4653 -0.3307
 8702SOL     OW36574   0.826   7.913   3.581  0.0399 -0.5408 -0.6637
 8702SOL    HW136575   0.791   7.990   3.634 -1.2515  0.5622 -3.0197
 8702SOL    HW236576   0.864   7.844   3.643 -2.9895 -0.1082  1.8036
 8703SOL     OW36577   1.856   0.128   0.222 -0.3661  0.1479  0.2856
 8703SOL    HW136578   1.816   0.099   0.308 -0.5716  1.6711  0.7289
 8703SOL    HW236579   1.879   0.048   0.166 -2.1760 -0.7879  0.8521
 8704SOL     OW36580   3.255   8.222   3.947 -0.3268 -0.0280  0.4086
 8704SOL    HW136581   3.349   8.256   3.951  0.6110 -2.6646  1.8662
 8704SOL    HW236582   3.235   8.188   3.855 -0.3605  1.8124 -0.2936
 8705SOL     OW36583   1.251   1.058   3.302  0.3992 -0.1586 -0.1542
 8705SOL    HW136584   1.255   1.155   3.324  1.1937  0.0430 -1.1397
 8705SOL    HW236585   1.156   1.030   3.292  0.1478  0.4029  0.6125
 8706SOL     OW36586   1.148   9.285   3.726  0.0179 -0.5959 -0.5463
 8706SOL    HW136587   1.050   9.278   3.706 -0.0310  1.3124 -1.0207
 8706SOL    HW236588   1.187   9.360   3.673  1.1506  0.5811  1.9225
 8707SOL     OW36589   1.462   2.999   4.127  0.2146 -0.0458 -0.3296
 8707SOL    HW136590   1.454   3.007   4.027  2.2141 -1.2026 -0.6120
 8707SOL    HW236591   1.425   2.911   4.156 -1.4895  0.8021  0.1160
 8708SOL     OW36592   5.640   6.382   2.541  0.4313 -0.1737 -0.1375
 8708SOL    HW136593   5.585   6.449   2.591  0.1941  0.4041 -1.1622
 8708SOL    HW236594   5.737   6.405   2.550  0.2756  1.1690 -1.6979
 8709SOL     OW36595   9.663   0.325   1.832 -0.4909  0.6869  0.1508
 8709SOL    HW136596   9.592   0.378   1.879 -0.9649  1.1395 -1.0536
 8709SOL    HW236597   9.667   0.233   1.870  0.9430  1.8105  2.8957
 8710SOL     OW36598   3.424   6.208   1.501  0.4542  0.1785 -0.1781
 8710SOL    HW136599   3.359   6.169   1.567  2.2227  0.0647  1.5498
 8710SOL    HW236600   3.413   6.307   1.499  0.5289  0.2055  0.4676
 8711SOL     OW36601   0.184   1.015   1.949  0.1889  0.6909  0.6761
 8711SOL    HW136602   0.271   0.986   1.908 -0.9856 -0.2508 -1.2304
 8711SOL    HW236603   0.142   1.085   1.892 -0.2997  1.1655  1.6124
 8712SOL     OW36604   8.374   0.205   4.380 -0.1694 -0.0273  0.0569
 8712SOL    HW136605   8.306   0.232   4.312 -0.3875  0.2130  0.3685
 8712SOL    HW236606   8.465   0.232   4.348 -0.2616  0.0029 -0.1822
 8713SOL     OW36607   3.915   3.767   4.467  1.1383  0.1598 -0.1459
 8713SOL    HW136608   3.871   3.796   4.382  1.5617  1.3217  0.0216
 8713SOL    HW236609   3.913   3.841   4.533 -0.0916 -1.0788  1.2434
 8714SOL     OW36610   2.467   1.396   0.172 -0.3016 -0.0835 -0.4255
 8714SOL    HW136611   2.368   1.387   0.182 -0.2641  0.4548  0.4380
 8714SOL    HW236612   2.512   1.383   0.260  0.4533 -0.9399 -0.9197
 8715SOL     OW36613   6.034   9.459   1.943  0.7250  0.2040 -0.2162
 8715SOL    HW136614   6.061   9.433   1.850  2.6374  1.2210  0.0279
 8715SOL    HW236615   6.012   9.377   1.996  4.1469 -0.7939 -0.2191
 8716SOL     OW36616   9.146   7.635   2.211 -0.3608  0.3548  0.0944
 8716SOL    HW136617   9.078   7.577   2.166 -0.6332  0.3277  0.5383
 8716SOL    HW236618   9.138   7.729   2.176  1.4512 -0.2847 -2.1279
 8717SOL     OW36619   0.310   4.250   4.000 -0.0896 -0.0274  0.1606
 8717SOL    HW136620   0.356   4.180   3.946 -1.0461 -1.7855  1.5614
 8717SOL    HW236621   0.259   4.311   3.940  0.9766 -0.3659 -1.0978
 8718SOL     OW36622   3.690   7.172   2.372  0.2340 -0.6701  0.1092
 8718SOL    HW136623   3.650   7.083   2.350  0.3701 -0.3135 -1.6230
 8718SOL    HW236624   3.619   7.243   2.368  0.7341 -0.2534 -1.5357
 8719SOL     OW36625   0.249   8.180   3.157  0.1880  0.5310  0.2474
 8719SOL    HW136626   0.249   8.189   3.058  1.1044  0.0099  0.1998
 8719SOL    HW236627   0.343   8.172   3.190 -0.1661 -0.2648  1.0757
 8720SOL     OW36628   0.348   5.646   1.212  0.2603  0.0111 -0.3643
 8720SOL    HW136629   0.376   5.602   1.126  2.5219 -1.1715  0.9369
 8720SOL    HW236630   0.264   5.604   1.245  0.6268 -1.1093 -0.8349
 8721SOL     OW36631   2.551   7.869   1.553  0.4470 -0.1756  0.1197
 8721SOL    HW136632   2.539   7.897   1.648  0.5943 -1.3336  0.4822
 8721SOL    HW236633   2.464   7.874   1.505  0.5770  1.4847  0.0061
 8722SOL     OW36634   3.270   2.648   1.633  0.1698  0.4114  0.1192
 8722SOL    HW136635   3.236   2.560   1.601  1.3500 -0.7337  1.8869
 8722SOL    HW236636   3.284   2.709   1.555  0.2615 -1.3073 -1.2423
 8723SOL     OW36637   1.599   6.777   4.394  0.7287  0.6132  0.0888
 8723SOL    HW136638   1.598   6.681   4.365  1.3487  0.4203  0.6888
 8723SOL    HW236639   1.626   6.782   4.490 -0.6451  1.2895  0.4485
 8724SOL     OW36640   6.372   0.175   0.740 -0.4600  0.1149 -0.1598
 8724SOL    HW136641   6.296   0.129   0.784  0.8555 -1.2273  0.7177
 8724SOL    HW236642   6.366   0.274   0.758 -1.3620 -0.1152  0.8421
 8725SOL     OW36643   9.329   8.473   4.227  0.0562  0.1274 -0.2556
 8725SOL    HW136644   9.359   8.476   4.322  1.4885  2.8978 -0.7480
 8725SOL    HW236645   9.274   8.554   4.206 -1.8206 -1.3622 -1.3306
 8726SOL     OW36646   8.952   5.398   1.667 -0.1084 -0.3552 -0.4229
 8726SOL    HW136647   9.017   5.473   1.657  1.3995 -1.8047 -1.7313
 8726SOL    HW236648   8.965   5.354   1.755  0.2450 -0.2404 -0.4190
 8727SOL     OW36649   1.052   4.226   0.434 -0.2355  0.4150 -0.3825
 8727SOL    HW136650   0.975   4.162   0.439  0.5683 -0.7497 -2.2242
 8727SOL    HW236651   1.129   4.190   0.487 -0.6010  1.0852  0.6209
 8728SOL     OW36652   3.836   1.890   2.797 -0.3601  0.1057 -0.2118
 8728SOL    HW136653   3.779   1.818   2.836  0.2341 -0.2284  0.0407
 8728SOL    HW236654   3.812   1.977   2.838 -0.2451 -0.1342  0.3641
 8729SOL     OW36655   4.831   4.875   0.909  0.4711  0.1067 -0.0645
 8729SOL    HW136656   4.765   4.860   0.836  0.1787 -3.4151  0.7994
 8729SOL    HW236657   4.785   4.913   0.989  0.0572  0.3518 -0.4213
 8730SOL     OW36658   2.350   0.208   3.296 -0.7416 -0.3225  0.5486
 8730SOL    HW136659   2.396   0.226   3.384 -1.1630 -0.4558  0.7975
 8730SOL    HW236660   2.252   0.194   3.312 -0.7496 -0.7830  0.1074
 8731SOL     OW36661   2.733   6.729   3.090 -0.0679  0.2553  0.3994
 8731SOL    HW136662   2.758   6.794   3.162 -0.3495 -0.1279  0.8438
 8731SOL    HW236663   2.688   6.650   3.130  0.5107 -0.3391 -0.1267
 8732SOL     OW36664   1.945   6.363   4.053 -0.1790  0.3931 -0.1704
 8732SOL    HW136665   1.924   6.307   3.973  0.1755  0.3436 -0.2317
 8732SOL    HW236666   1.964   6.457   4.023 -0.2071  0.4128 -0.1272
 8733SOL     OW36667   7.913   6.770   2.042 -0.7857 -0.2945 -0.2339
 8733SOL    HW136668   7.844   6.809   2.103 -0.4927 -0.5612  0.2687
 8733SOL    HW236669   7.996   6.749   2.094 -0.2406  0.2200 -0.8704
 8734SOL     OW36670   2.005   6.870   0.657  0.3793 -0.1781  0.6035
 8734SOL    HW136671   2.017   6.890   0.754  0.5336  0.3836  0.4701
 8734SOL    HW236672   1.968   6.951   0.610  0.3982 -0.4134  0.1772
 8735SOL     OW36673   1.178   2.424   4.075  0.1004  0.8613  0.2185
 8735SOL    HW136674   1.197   2.517   4.107  1.0040  0.6124  0.4183
 8735SOL    HW236675   1.261   2.383   4.038 -0.3877  0.2783 -0.2564
 8736SOL     OW36676   2.639   2.909   3.473 -0.5215  0.5844  0.6132
 8736SOL    HW136677   2.714   2.959   3.429  1.2029 -1.3216  1.3098
 8736SOL    HW236678   2.619   2.950   3.562  1.6527 -0.5872  1.6809
 8737SOL     OW36679   3.401   3.082   0.672 -0.4473 -0.1985 -0.4201
 8737SOL    HW136680   3.447   3.046   0.753 -1.0867  0.7229  0.3708
 8737SOL    HW236681   3.379   3.007   0.610 -1.1142 -1.0714  0.8511
 8738SOL     OW36682   3.043   2.756   0.127 -0.2614 -0.4075 -0.2670
 8738SOL    HW136683   3.114   2.826   0.134 -0.1090 -0.5257 -0.6268
 8738SOL    HW236684   2.955   2.799   0.107 -0.8431  0.0212  2.8869
 8739SOL     OW36685   4.243   1.382   0.522 -0.1312 -0.2878  0.3999
 8739SOL    HW136686   4.250   1.322   0.443  0.3770 -0.8491  0.8636
 8739SOL    HW236687   4.233   1.477   0.492 -1.5869 -0.6716 -0.3451
 8740SOL     OW36688   0.371   4.017   4.320  0.1001  0.2448 -0.2612
 8740SOL    HW136689   0.314   3.980   4.247 -1.7019  0.7413  0.8587
 8740SOL    HW236690   0.391   3.945   4.387 -0.8834  0.5428  0.3635
 8741SOL     OW36691   2.029   1.614   1.122  0.8201 -0.5486  0.2101
 8741SOL    HW136692   2.045   1.705   1.084 -0.9116 -0.2239  0.2114
 8741SOL    HW236693   2.100   1.592   1.189  1.0735  0.9267  0.4251
 8742SOL     OW36694   4.741   8.753   2.540  0.1093  0.0513  0.0710
 8742SOL    HW136695   4.752   8.791   2.448  0.5189  0.3452  0.2420
 8742SOL    HW236696   4.799   8.803   2.604  1.1840 -1.2908  0.1812
 8743SOL     OW36697   7.531   7.513   1.699 -0.1756 -0.9035  0.2916
 8743SOL    HW136698   7.492   7.594   1.741  0.0717 -1.1667  1.0357
 8743SOL    HW236699   7.514   7.433   1.756  1.0056 -1.1036  0.3853
 8744SOL     OW36700   2.710   7.255   3.449 -0.0536 -0.1431  0.3988
 8744SOL    HW136701   2.663   7.192   3.512 -0.3247 -0.5374 -0.1938
 8744SOL    HW236702   2.642   7.314   3.405  0.1045 -0.0728  0.2524
 8745SOL     OW36703   1.610   2.406   0.655  0.2005  0.8549 -0.4457
 8745SOL    HW136704   1.604   2.502   0.629  1.9719  0.7484 -1.3510
 8745SOL    HW236705   1.519   2.371   0.677 -0.6515  2.3535 -1.5132
 8746SOL     OW36706   7.651   9.164   3.384 -0.2884 -0.2644  0.0334
 8746SOL    HW136707   7.708   9.214   3.319  0.6943 -0.8484  0.4308
 8746SOL    HW236708   7.591   9.101   3.334 -0.9849  0.7407 -0.4177
 8747SOL     OW36709   9.829   6.873   4.766  0.6525 -0.2341  0.1364
 8747SOL    HW136710   9.829   6.954   4.707 -1.4089 -0.2289  0.0916
 8747SOL    HW236711   9.914   6.823   4.753  0.2764 -0.2119 -2.8503
 8748SOL     OW36712   0.785   5.196   3.396 -0.3890  0.2387 -0.2916
 8748SOL    HW136713   0.769   5.218   3.300 -1.4268 -0.4971 -0.3018
 8748SOL    HW236714   0.710   5.139   3.430  0.6741 -0.6756  0.5720
 8749SOL     OW36715   5.049   1.583   2.408  0.4961 -0.4312 -0.0533
 8749SOL    HW136716   5.001   1.640   2.475  1.5081 -0.3471  0.6096
 8749SOL    HW236717   5.061   1.634   2.323  0.2142 -0.1344  0.0856
 8750SOL     OW36718   2.097   0.780   0.030 -0.3852  0.2241  0.7824
 8750SOL    HW136719   2.165   0.777   0.103  0.0274 -2.9935  0.3155
 8750SOL    HW236720   2.013   0.734   0.061 -0.2231 -1.1261 -0.7406
 8751SOL     OW36721   2.397   9.178   2.994 -0.6308  0.4871 -0.2648
 8751SOL    HW136722   2.334   9.237   2.944 -1.0470 -0.7082 -1.1888
 8751SOL    HW236723   2.368   9.173   3.090 -1.5958  0.4353 -0.5472
 8752SOL     OW36724   2.299   4.965   2.275 -0.3494  0.3824 -0.1167
 8752SOL    HW136725   2.211   4.959   2.321  0.1642  0.6913  0.9311
 8752SOL    HW236726   2.351   5.042   2.313  1.3226 -1.2461  0.9473
 8753SOL     OW36727   9.303   9.003   0.576 -0.3333 -0.2702  0.0279
 8753SOL    HW136728   9.241   9.030   0.650  0.4638  1.1603  0.1738
 8753SOL    HW236729   9.249   8.971   0.498 -1.2215 -0.0584  0.5427
 8754SOL     OW36730   2.031   8.041   2.609 -0.1417 -0.0141 -0.0523
 8754SOL    HW136731   2.101   8.048   2.679  0.3588 -0.8338 -0.4663
 8754SOL    HW236732   2.037   8.120   2.548  1.2668 -0.7254 -0.8529
 8755SOL     OW36733   1.274   2.646   3.810  0.2559  0.3501 -0.1067
 8755SOL    HW136734   1.306   2.681   3.722  0.5597 -0.5920 -0.3764
 8755SOL    HW236735   1.309   2.553   3.823 -1.4644 -0.2735  0.1105
 8756SOL     OW36736   3.021   0.987   0.329  0.2364  0.1783  0.1341
 8756SOL    HW136737   2.956   0.961   0.400 -2.0124 -1.8588 -2.5175
 8756SOL    HW236738   2.998   1.077   0.293  0.1944  0.3849  0.6851
 8757SOL     OW36739   3.022   6.962   0.751 -0.5172  0.0892 -0.0656
 8757SOL    HW136740   3.095   7.019   0.789  1.4702 -1.5792 -1.2866
 8757SOL    HW236741   3.033   6.868   0.783 -1.4185 -0.4392 -1.2613
 8758SOL     OW36742   7.098   9.174   0.444  0.4368 -0.0604  0.4146
 8758SOL    HW136743   7.196   9.162   0.464 -0.0141 -2.9038  1.1189
 8758SOL    HW236744   7.087   9.239   0.368  2.8696  0.1702  0.2213
 8759SOL     OW36745   1.866   5.549   3.758  0.5395 -0.0027 -0.3754
 8759SOL    HW136746   1.848   5.556   3.660 -0.8108 -2.1497 -0.3298
 8759SOL    HW236747   1.779   5.546   3.807  1.2067  1.0358  0.8978
 8760SOL     OW36748   1.418   4.835   3.942 -0.4385  0.1548 -0.0412
 8760SOL    HW136749   1.473   4.917   3.957 -1.0575  0.7031 -0.7261
 8760SOL    HW236750   1.351   4.826   4.015 -0.4739  0.3463 -0.0511
 8761SOL     OW36751   5.852   7.734   2.585  0.4391 -0.1630  0.2434
 8761SOL    HW136752   5.818   7.777   2.669  2.6990  1.3268  0.4198
 8761SOL    HW236753   5.814   7.781   2.505 -1.6899 -1.5620  0.3884
 8762SOL     OW36754   2.622   8.001   0.417 -0.6023  0.5141  0.5998
 8762SOL    HW136755   2.566   7.991   0.334  0.4440 -0.3947 -0.0212
 8762SOL    HW236756   2.568   8.045   0.489 -2.3903 -1.0858  0.2833
 8763SOL     OW36757   9.806   9.452   3.579  0.5764  0.2135 -0.5547
 8763SOL    HW136758   9.736   9.459   3.508 -1.0926 -0.7107  0.9492
 8763SOL    HW236759   9.894   9.479   3.542 -0.4385  0.6559 -2.7102
 8764SOL     OW36760   8.812   5.311   0.308 -0.3004 -0.0767 -0.2571
 8764SOL    HW136761   8.758   5.237   0.349 -0.5756  0.9426  1.2599
 8764SOL    HW236762   8.757   5.394   0.306  0.8460  0.7063  0.3096
 8765SOL     OW36763   8.793   8.659   2.866 -0.7701 -0.3819 -0.1350
 8765SOL    HW136764   8.826   8.749   2.838 -0.5473 -0.0969  1.0006
 8765SOL    HW236765   8.718   8.631   2.807 -0.4781  0.3117 -0.8347
 8766SOL     OW36766   8.989   6.579   0.302  0.0063 -0.4437  0.3204
 8766SOL    HW136767   8.934   6.652   0.342 -0.9401 -1.6778  1.3119
 8766SOL    HW236768   8.994   6.502   0.365  0.7674 -1.3481 -0.8134
 8767SOL     OW36769   1.001   1.550   1.888  0.5211 -0.1380  0.4211
 8767SOL    HW136770   1.014   1.569   1.986  1.8994  0.2910  0.1668
 8767SOL    HW236771   1.037   1.459   1.867 -0.4595 -0.5381  0.4492
 8768SOL     OW36772   3.048   1.060   3.689  0.4379  0.0618 -0.4006
 8768SOL    HW136773   2.972   1.037   3.749  1.5661 -0.4570  0.8669
 8768SOL    HW236774   3.061   1.159   3.687 -1.0648  0.2542 -1.6473
 8769SOL     OW36775   9.621   8.875   1.437  0.4365 -0.1484 -0.4238
 8769SOL    HW136776   9.535   8.891   1.389  0.1882 -0.7171 -0.1711
 8769SOL    HW236777   9.603   8.851   1.532  0.9818  2.4124  0.3721
 8770SOL     OW36778   0.678   0.451   0.235 -0.0030 -0.2395 -0.5456
 8770SOL    HW136779   0.711   0.541   0.264  1.0494 -0.4723 -1.0168
 8770SOL    HW236780   0.710   0.382   0.300 -1.8129 -0.1436  0.4927
 8771SOL     OW36781   2.100   0.648   1.532  0.4321  0.4589 -0.3070
 8771SOL    HW136782   2.150   0.572   1.573  1.6524  1.2954 -0.2170
 8771SOL    HW236783   2.068   0.709   1.605 -1.5290 -0.5385 -0.2967
 8772SOL     OW36784   1.772   1.472   0.934 -0.0365  0.6108  0.4097
 8772SOL    HW136785   1.751   1.532   1.011  1.7482 -0.9830  2.2057
 8772SOL    HW236786   1.779   1.378   0.966  0.7697 -0.0782 -1.7016
 8773SOL     OW36787   1.873   6.395   3.207  0.7975 -0.2150 -0.4180
 8773SOL    HW136788   1.811   6.333   3.255 -0.0979  1.2163  0.2987
 8773SOL    HW236789   1.902   6.352   3.121  0.6799 -1.8763  0.3427
 8774SOL     OW36790   4.670   1.048   1.481  0.1081  0.0563 -0.5961
 8774SOL    HW136791   4.641   0.957   1.450 -2.1617 -0.0920  1.8534
 8774SOL    HW236792   4.639   1.117   1.416 -3.2460 -0.3981  0.4208
 8775SOL     OW36793   1.956   3.912   1.151 -0.2198 -0.3978 -0.3754
 8775SOL    HW136794   1.994   3.907   1.058 -0.3912  1.6586 -0.5878
 8775SOL    HW236795   2.022   3.956   1.211  0.7746 -3.6580  1.0130
 8776SOL     OW36796   0.101   1.604   2.418 -0.1610 -0.1889 -0.1153
 8776SOL    HW136797   0.078   1.577   2.324 -0.6349 -1.2924  0.3051
 8776SOL    HW236798   0.184   1.660   2.417  1.9447 -3.1738 -0.8760
 8777SOL     OW36799   0.922   4.794   4.003  0.3413 -0.2506  0.6805
 8777SOL    HW136800   0.852   4.865   4.003  0.2346 -0.3514  0.4601
 8777SOL    HW236801   0.894   4.720   4.064 -0.0665 -0.5972  0.0845
 8778SOL     OW36802   8.650   6.465   1.139  0.2129 -0.3970 -0.0033
 8778SOL    HW136803   8.585   6.523   1.188  0.1167  1.1400 -1.8830
 8778SOL    HW236804   8.602   6.414   1.068  0.7495 -0.6719 -0.1685
 8779SOL     OW36805   1.105   6.376   3.697 -0.0420  0.1560  0.2716
 8779SOL    HW136806   1.111   6.425   3.610 -2.2360 -2.3165 -1.3589
 8779SOL    HW236807   1.150   6.287   3.688  1.1150  0.5469  2.1726
 8780SOL     OW36808   7.137   9.584   2.040 -0.0843  0.1787 -0.1673
 8780SOL    HW136809   7.197   9.561   2.117 -1.7290 -0.3309  0.9990
 8780SOL    HW236810   7.191   9.624   1.966  1.5109  0.7840  1.2920
 8781SOL     OW36811   0.170   6.044   4.210  0.5356  0.3220 -0.5858
 8781SOL    HW136812   0.194   5.948   4.202 -0.9209 -0.0553 -0.6462
 8781SOL    HW236813   0.136   6.077   4.121  2.0892  1.2097 -0.8818
 8782SOL     OW36814   4.548   0.072   4.241 -0.1952  0.5888  0.3953
 8782SOL    HW136815   4.448   0.062   4.247 -0.5952  3.1848 -1.3033
 8782SOL    HW236816   4.577   0.148   4.299  0.6488  0.5718 -0.0065
 8783SOL     OW36817   4.828   7.306   3.011  0.2234  0.1729  0.0876
 8783SOL    HW136818   4.837   7.340   3.105 -0.0221 -0.2445  0.2639
 8783SOL    HW236819   4.773   7.222   3.011 -0.7827  0.8134 -0.5591
 8784SOL     OW36820   8.986   7.953   1.862  0.1250 -0.2999  0.2253
 8784SOL    HW136821   8.990   8.014   1.783 -0.6778  1.3361  1.4387
 8784SOL    HW236822   9.060   7.886   1.855  0.1641 -0.0960 -1.8311
 8785SOL     OW36823   6.911   9.794   1.768 -0.2550 -0.3309 -0.2819
 8785SOL    HW136824   6.836   9.743   1.809 -0.4841 -0.7447 -1.1940
 8785SOL    HW236825   6.994   9.739   1.769 -0.0368  0.0084  0.4456
 8786SOL     OW36826   4.912   7.979   1.671 -0.2209 -0.5434 -0.0591
 8786SOL    HW136827   4.993   8.015   1.716 -1.2398  0.9195  0.6647
 8786SOL    HW236828   4.889   8.038   1.593 -1.4409 -0.0426  0.6526
 8787SOL     OW36829   1.897   7.687   0.191  0.3060 -0.8041  0.1769
 8787SOL    HW136830   1.993   7.673   0.168  0.0181 -0.1247 -1.4995
 8787SOL    HW236831   1.891   7.738   0.277  1.4618 -0.0789 -0.1580
 8788SOL     OW36832   1.831   3.417   2.139  0.0910 -0.1934  0.0215
 8788SOL    HW136833   1.868   3.324   2.136 -1.2426 -0.8401  2.6456
 8788SOL    HW236834   1.751   3.419   2.199 -0.6346  2.4092 -0.9865
 8789SOL     OW36835   7.971   9.017   1.188  0.0026  0.2945  0.3866
 8789SOL    HW136836   7.952   8.995   1.092 -2.2272 -0.3422  0.9281
 8789SOL    HW236837   8.055   8.970   1.217  0.8437  0.7118 -1.3156
 8790SOL     OW36838   8.587   7.392   2.740  0.2611  0.7452 -0.0614
 8790SOL    HW136839   8.548   7.429   2.656  0.9885  0.2154 -0.6456
 8790SOL    HW236840   8.550   7.300   2.756  0.0214  0.9001  0.2699
 8791SOL     OW36841   2.304   1.710   2.617  0.1162  0.6301  0.1907
 8791SOL    HW136842   2.231   1.761   2.570  0.4777  0.3658 -0.6604
 8791SOL    HW236843   2.377   1.690   2.552  0.1063 -0.7285  0.5920
 8792SOL     OW36844   1.277   9.199   1.977  0.2706  0.2283  0.1155
 8792SOL    HW136845   1.341   9.124   1.960 -0.7820 -0.2609 -1.7945
 8792SOL    HW236846   1.189   9.178   1.935 -0.5151  1.8553  0.9011
 8793SOL     OW36847   0.954   8.200   1.766 -0.2951  0.3570  0.3500
 8793SOL    HW136848   0.895   8.186   1.686 -1.8032 -0.5104  1.5752
 8793SOL    HW236849   1.028   8.132   1.765 -0.7998 -0.1973  0.1395
 8794SOL     OW36850   1.532   2.721   1.031 -0.3598  0.1427 -0.5332
 8794SOL    HW136851   1.564   2.807   1.068 -1.6835 -0.4812  2.1472
 8794SOL    HW236852   1.606   2.654   1.031  0.1809  0.7367 -0.9628
 8795SOL     OW36853   8.029   8.654   3.480  0.1541  0.2178 -0.2568
 8795SOL    HW136854   8.078   8.739   3.501  1.1197 -0.5524  0.6950
 8795SOL    HW236855   7.937   8.676   3.448  0.8493  1.6687 -1.3290
 8796SOL     OW36856   2.635   0.524   0.124  0.2366 -0.1047  0.1279
 8796SOL    HW136857   2.701   0.506   0.197 -0.9378 -3.7256  0.3890
 8796SOL    HW236858   2.682   0.531   0.037  1.3943  1.7936  0.8848
 8797SOL     OW36859   0.695   7.796   2.065  0.3094 -0.0975 -0.0460
 8797SOL    HW136860   0.680   7.860   1.990  1.2843 -0.0999 -0.2554
 8797SOL    HW236861   0.608   7.754   2.092 -0.1434  0.4023 -0.7229
 8798SOL     OW36862   8.097   6.105   1.425 -0.3210 -0.6204 -0.2729
 8798SOL    HW136863   8.052   6.031   1.476  0.2961 -1.2398 -0.6303
 8798SOL    HW236864   8.152   6.066   1.352  0.4006  0.1700 -0.1490
 8799SOL     OW36865   0.376   0.494   2.838 -0.0137 -0.3681  0.3240
 8799SOL    HW136866   0.384   0.398   2.811  2.4806  0.1849 -0.9735
 8799SOL    HW236867   0.372   0.551   2.756 -0.7298  0.7226  1.1065
 8800SOL     OW36868   2.567   0.802   0.467 -0.0385 -0.3072  0.2285
 8800SOL    HW136869   2.535   0.897   0.466  3.4028  0.9252  0.4648
 8800SOL    HW236870   2.578   0.769   0.373  0.7628  0.2455  0.1279
 8801SOL     OW36871   0.586   1.933   1.972 -0.0125  0.1508 -0.0988
 8801SOL    HW136872   0.573   1.869   2.048  1.0946 -1.2530 -1.0534
 8801SOL    HW236873   0.677   1.975   1.979  0.0521  0.0993 -0.5813
 8802SOL     OW36874   3.043   8.310   0.605 -0.1078  0.5389 -0.0643
 8802SOL    HW136875   3.010   8.316   0.511  0.7749 -0.2288 -0.4392
 8802SOL    HW236876   3.058   8.214   0.628 -0.5188  0.7125  0.9356
 8803SOL     OW36877   1.874   1.581   2.696 -0.7602  0.1586  0.3127
 8803SOL    HW136878   1.842   1.599   2.789 -1.0657 -0.0296  0.2437
 8803SOL    HW236879   1.863   1.664   2.640 -0.3090  0.3598  0.5172
 8804SOL     OW36880   7.986   0.685   1.595  0.0999 -0.0154  0.3289
 8804SOL    HW136881   8.046   0.715   1.520 -2.3003  1.3415 -1.1220
 8804SOL    HW236882   7.972   0.586   1.589 -0.6862  0.1835 -1.5075
 8805SOL     OW36883   8.135   9.228   4.528  0.4165  0.4461 -0.3457
 8805SOL    HW136884   8.211   9.267   4.581 -0.4392 -0.9889  2.0086
 8805SOL    HW236885   8.062   9.296   4.518 -0.4018  0.0017  2.3659
 8806SOL     OW36886   1.253   3.695   2.282  0.0024  0.0011 -0.2755
 8806SOL    HW136887   1.343   3.654   2.297  0.8118  0.9947 -2.2078
 8806SOL    HW236888   1.190   3.663   2.352  2.0630 -0.0835  1.5958
 8807SOL     OW36889   6.727   0.337   3.717  0.2891  0.0156 -0.8727
 8807SOL    HW136890   6.668   0.262   3.747 -1.2742  1.2278 -0.8042
 8807SOL    HW236891   6.702   0.420   3.767  2.6638  0.3658 -0.2163
 8808SOL     OW36892   2.080   1.931   4.618 -0.1309  0.2348 -0.0380
 8808SOL    HW136893   2.128   1.930   4.706 -2.5532 -2.8629  1.3538
 8808SOL    HW236894   2.114   1.857   4.561 -1.3238 -0.2378 -0.1355
 8809SOL     OW36895   3.181   0.986   2.615  0.3912 -0.2142 -0.2536
 8809SOL    HW136896   3.172   1.046   2.694  2.7963 -1.1398  0.7531
 8809SOL    HW236897   3.156   0.892   2.640 -1.3034 -0.0683 -1.2783
 8810SOL     OW36898   0.379   5.319   1.110  0.9607 -0.0532 -0.0763
 8810SOL    HW136899   0.465   5.281   1.147  1.0198 -0.5953 -0.7599
 8810SOL    HW236900   0.400   5.396   1.051  0.9626 -0.0537 -0.0758
 8811SOL     OW36901   8.177   8.109   2.096 -0.4488 -0.6395  0.2842
 8811SOL    HW136902   8.232   8.110   2.012 -0.8041  1.1287  0.0462
 8811SOL    HW236903   8.144   8.016   2.114  0.8739 -1.3163 -0.7079
 8812SOL     OW36904   0.026   8.229   1.031 -0.3659 -0.1931  0.0662
 8812SOL    HW136905   0.122   8.212   1.055 -0.3462  0.1516  0.2240
 8812SOL    HW236906   0.002   8.173   0.951  0.8970  2.1006 -1.9636
 8813SOL     OW36907   3.074   9.004   4.756  0.1665 -0.5040 -0.0524
 8813SOL    HW136908   3.018   8.956   4.823 -0.5970 -3.1734 -2.5115
 8813SOL    HW236909   3.024   9.083   4.722  0.2094  0.3683  1.8079
 8814SOL     OW36910   3.081   2.605   3.093 -0.5273 -0.4531 -0.0106
 8814SOL    HW136911   3.121   2.513   3.097  0.5992 -0.0410 -1.3398
 8814SOL    HW236912   3.125   2.664   3.161 -1.3520 -0.9338  0.9419
 8815SOL     OW36913   6.504   9.298   1.191  0.5723  0.4351  0.9047
 8815SOL    HW136914   6.494   9.212   1.142 -0.4229  1.0432 -0.0044
 8815SOL    HW236915   6.600   9.326   1.191  0.6388  0.2512 -0.4174
 8816SOL     OW36916   4.948   0.689   3.623  0.0192  0.0213  0.1988
 8816SOL    HW136917   4.979   0.731   3.708 -1.3704  0.5585  0.4567
 8816SOL    HW236918   4.936   0.759   3.553  0.6137 -0.3490 -0.2847
 8817SOL     OW36919   8.469   7.554   1.466 -0.1418 -0.0282 -0.4421
 8817SOL    HW136920   8.482   7.624   1.396 -0.1481  0.1859 -0.2267
 8817SOL    HW236921   8.497   7.465   1.429  1.1619  0.2971 -0.2617
 8818SOL     OW36922   3.792   2.255   3.569 -0.4245 -0.4973 -0.4856
 8818SOL    HW136923   3.762   2.349   3.588  0.3286 -0.4943  0.7201
 8818SOL    HW236924   3.892   2.254   3.558 -0.4067 -1.1884 -0.2534
 8819SOL     OW36925   1.922   7.356   2.464  0.1688  0.1386 -0.0544
 8819SOL    HW136926   1.964   7.401   2.385  0.8171  0.8477  0.6852
 8819SOL    HW236927   1.869   7.424   2.516  0.7092 -0.0670  0.7670
 8820SOL     OW36928   0.769   5.814   4.166 -0.1113 -0.3217 -0.5186
 8820SOL    HW136929   0.706   5.763   4.225  1.9434 -1.5478  0.6895
 8820SOL    HW236930   0.750   5.912   4.175  0.5065 -0.4148  2.7223
 8821SOL     OW36931   8.532   8.350   4.232  0.3864 -0.6783 -0.1845
 8821SOL    HW136932   8.573   8.377   4.145 -0.0216  0.8846  0.0863
 8821SOL    HW236933   8.550   8.421   4.300 -2.2793 -0.1662  0.0731
 8822SOL     OW36934   7.484   7.273   1.845 -0.2343  0.2897 -0.2161
 8822SOL    HW136935   7.569   7.225   1.826  0.5416  0.6926  2.0905
 8822SOL    HW236936   7.408   7.207   1.847  0.5917 -0.6375  1.4279
 8823SOL     OW36937   0.765   0.509   1.032  0.7527 -0.6311  0.1509
 8823SOL    HW136938   0.851   0.504   1.082  0.0965 -2.0252  1.1568
 8823SOL    HW236939   0.749   0.424   0.983 -0.5174 -0.7525  0.7555
 8824SOL     OW36940   2.361   1.946   0.764 -0.3298  0.2303 -0.0250
 8824SOL    HW136941   2.329   1.966   0.857  0.1722  1.6538 -0.1478
 8824SOL    HW236942   2.436   2.008   0.740 -0.9064  0.3278 -1.6404
 8825SOL     OW36943   0.201   5.704   2.241  0.1329 -0.1263 -0.8002
 8825SOL    HW136944   0.289   5.749   2.256  0.7617 -0.8572 -2.2180
 8825SOL    HW236945   0.215   5.618   2.192 -1.2911 -0.6541 -0.3012
 8826SOL     OW36946   9.279   8.068   4.310  0.1001  0.1214 -0.2896
 8826SOL    HW136947   9.313   8.091   4.218 -0.9123 -0.1435 -0.7363
 8826SOL    HW236948   9.202   8.005   4.302 -1.2570  1.6172  0.6324
 8827SOL     OW36949   0.696   8.428   3.113 -0.3006 -0.7150 -0.2625
 8827SOL    HW136950   0.728   8.522   3.121 -0.0525 -0.9169  1.2479
 8827SOL    HW236951   0.730   8.389   3.028  1.0484  0.0165 -0.0798
 8828SOL     OW36952   2.207   7.180   3.940  0.5207 -0.1131  0.3539
 8828SOL    HW136953   2.235   7.138   4.027 -0.1433  1.1972  1.2267
 8828SOL    HW236954   2.219   7.279   3.947  1.2538 -0.0721 -1.3673
 8829SOL     OW36955   5.263   7.804   3.309 -0.0807  0.1910 -0.6015
 8829SOL    HW136956   5.353   7.761   3.312  0.0527  0.5003 -0.2251
 8829SOL    HW236957   5.211   7.765   3.233 -0.3984 -1.5203  0.4572
 8830SOL     OW36958   9.054   8.148   1.676 -0.1526  0.7265 -0.0741
 8830SOL    HW136959   9.100   8.211   1.739 -0.6092 -0.0723  1.0761
 8830SOL    HW236960   9.117   8.120   1.604  0.9077  0.3406  0.9869
 8831SOL     OW36961   4.392   9.862   4.458 -0.3647 -0.4379 -1.2945
 8831SOL    HW136962   4.476   9.813   4.435  0.3316  0.0419  0.1613
 8831SOL    HW236963   4.355   9.905   4.376  1.8494  0.9373 -1.6153
 8832SOL     OW36964   3.168   0.279   4.147  0.0563  0.3669 -0.1016
 8832SOL    HW136965   3.157   0.357   4.209 -0.5967  1.1035 -1.1199
 8832SOL    HW236966   3.211   0.203   4.196  1.8977  1.7949  0.5770
 8833SOL     OW36967   9.393   7.526   2.117 -0.4566  0.1830 -0.7089
 8833SOL    HW136968   9.298   7.549   2.136  0.0879  2.0532 -0.1886
 8833SOL    HW236969   9.442   7.607   2.087  1.1766 -0.6032 -0.2213
 8834SOL     OW36970   5.481   6.552   2.721 -0.3027 -0.6772  0.0073
 8834SOL    HW136971   5.470   6.647   2.692  0.6057  0.1368  2.2266
 8834SOL    HW236972   5.398   6.501   2.701 -0.9196  0.6588 -0.9174
 8835SOL     OW36973   3.308   8.114   1.238 -0.2299  0.1765 -0.6719
 8835SOL    HW136974   3.333   8.210   1.241  0.6146 -0.0612  0.6064
 8835SOL    HW236975   3.333   8.075   1.150 -0.6231  1.1320 -1.2109
 8836SOL     OW36976   1.941   8.775   4.477  0.5539  0.3264 -0.0576
 8836SOL    HW136977   1.960   8.856   4.422  0.4721  0.9892  0.8772
 8836SOL    HW236978   1.861   8.727   4.441  0.1223  1.1032 -0.1204
 8837SOL     OW36979   0.658   5.772   0.199 -0.0521  1.1411 -0.2364
 8837SOL    HW136980   0.746   5.819   0.194  0.1894  0.5151 -2.0732
 8837SOL    HW236981   0.653   5.701   0.128 -1.5065  0.2656  0.7127
 8838SOL     OW36982   0.749   6.779   0.927  0.5145  0.1267  0.5660
 8838SOL    HW136983   0.662   6.811   0.888  0.7694  1.8395  1.3444
 8838SOL    HW236984   0.746   6.680   0.939 -1.2892  0.1563  0.4722
 8839SOL     OW36985   8.668   5.944   2.361  0.1130 -0.3349  0.1832
 8839SOL    HW136986   8.601   5.928   2.289  0.6347 -1.5261 -0.0525
 8839SOL    HW236987   8.670   5.866   2.423  1.1405 -0.2178  0.3054
 8840SOL     OW36988   6.089   8.726   2.672  0.0063  0.5622 -0.5628
 8840SOL    HW136989   6.015   8.721   2.605 -0.6592  0.0290  0.2016
 8840SOL    HW236990   6.085   8.814   2.718 -1.1236 -0.0645  0.5652
 8841SOL     OW36991   2.026   7.799   1.355  0.3494  0.0520 -0.7285
 8841SOL    HW136992   2.109   7.839   1.392 -0.2236  0.1488  0.4843
 8841SOL    HW236993   2.023   7.701   1.378 -0.8232  0.4699  1.0012
 8842SOL     OW36994   1.222   2.095   0.549  0.5905 -0.1695 -0.2264
 8842SOL    HW136995   1.164   2.015   0.537 -1.5909  1.2971  0.1771
 8842SOL    HW236996   1.276   2.111   0.467 -0.4522 -0.8983 -1.0578
 8843SOL     OW36997   2.618   3.812   4.368  0.1261  0.3980 -0.1369
 8843SOL    HW136998   2.653   3.727   4.329  1.1222 -0.2859  2.1407
 8843SOL    HW236999   2.560   3.791   4.447  1.4345  1.8549  1.2541
 8844SOL     OW37000   6.680   9.720   0.002 -0.2151 -0.2933 -0.7177
 8844SOL    HW137001   6.668   9.819   0.008 -1.8721 -0.4648 -0.8172
 8844SOL    HW237002   6.777   9.697   0.008  0.1597  1.3156 -0.4562
 8845SOL     OW37003   4.052   3.267   0.457  0.1834  0.5434  0.3538
 8845SOL    HW137004   4.063   3.353   0.407 -0.7284  0.5250  0.1197
 8845SOL    HW237005   3.997   3.204   0.402  2.8793 -1.1034 -0.5973
 8846SOL     OW37006   6.657   8.413   3.643 -0.2502 -0.0262 -0.1408
 8846SOL    HW137007   6.722   8.469   3.694  0.9477 -0.2048 -1.4282
 8846SOL    HW237008   6.690   8.319   3.639 -0.4062 -0.0499 -1.0900
 8847SOL     OW37009   0.935   0.928   1.070 -0.2332  0.2326  0.3812
 8847SOL    HW137010   1.032   0.920   1.048 -0.4541 -0.1477 -0.4747
 8847SOL    HW237011   0.900   1.014   1.033 -0.2929  0.2261  0.4227
 8848SOL     OW37012   0.571   7.998   3.931 -0.1940 -0.1523 -0.9051
 8848SOL    HW137013   0.565   7.898   3.938  0.8068 -0.1217  0.7800
 8848SOL    HW237014   0.543   8.027   3.840 -0.2222 -2.0063 -1.5059
 8849SOL     OW37015   9.129   9.588   1.282  0.0452 -0.0349 -0.1357
 8849SOL    HW137016   9.220   9.566   1.246  0.5232  0.4258  0.7644
 8849SOL    HW237017   9.123   9.686   1.298 -0.9617  0.0626 -1.1155
 8850SOL     OW37018   8.647   0.305   4.303 -0.1930 -0.3956 -0.2756
 8850SOL    HW137019   8.695   0.380   4.349  1.1665 -1.8406  0.7040
 8850SOL    HW237020   8.645   0.322   4.204  3.2229 -0.7624 -0.4645
 8851SOL     OW37021   4.855   3.534   0.415  0.7376  0.4063  0.3975
 8851SOL    HW137022   4.830   3.630   0.409 -0.0053  0.2285  0.5692
 8851SOL    HW237023   4.813   3.494   0.496 -1.0537 -0.6765 -1.0303
 8852SOL     OW37024   1.837   5.390   1.570  0.0253 -0.0919  0.1373
 8852SOL    HW137025   1.775   5.323   1.529 -0.4742 -0.4473  1.4611
 8852SOL    HW237026   1.891   5.346   1.642 -1.5854  1.3249  2.2469
 8853SOL     OW37027   8.863   0.016   1.921 -0.1485 -0.3790  0.4163
 8853SOL    HW137028   8.883   0.068   1.837  0.1072  0.9197  1.2636
 8853SOL    HW237029   8.767  -0.009   1.923 -0.7479  1.8662  0.9639
 8854SOL     OW37030   9.538   8.790   1.015  0.1866  0.5839  0.3902
 8854SOL    HW137031   9.569   8.698   1.035 -1.9905 -0.0936  0.7725
 8854SOL    HW237032   9.611   8.855   1.035  1.3307 -0.9395  1.2538
 8855SOL     OW37033   9.988   4.337   2.527  0.4438  0.1013 -0.7286
 8855SOL    HW137034   9.998   4.250   2.478  1.9161  0.5504 -1.2526
 8855SOL    HW237035  10.079   4.378   2.542 -0.0535  0.4936  1.4421
 8856SOL     OW37036   5.606   7.990   3.501 -0.1548  0.1077  0.2637
 8856SOL    HW137037   5.640   7.967   3.410  0.1704 -1.2705  0.7265
 8856SOL    HW237038   5.522   7.939   3.519 -0.4005  0.6325  0.6088
 8857SOL     OW37039   3.527   7.255   3.608 -0.2064 -0.0438  0.1385
 8857SOL    HW137040   3.507   7.252   3.510 -0.6169  2.5862  0.1166
 8857SOL    HW237041   3.541   7.350   3.636  0.2184 -0.8063  2.5814
 8858SOL     OW37042   3.906   0.097   1.465 -0.1416 -0.1028  0.1834
 8858SOL    HW137043   3.936   0.188   1.435  0.3214  0.9192  3.4762
 8858SOL    HW237044   3.819   0.075   1.422 -0.4314  2.0740 -0.4301
 8859SOL     OW37045   2.378   4.207   1.895  0.0220 -0.4859  0.1896
 8859SOL    HW137046   2.311   4.203   1.821 -0.4175  1.1092  0.4963
 8859SOL    HW237047   2.332   4.192   1.982  0.4351 -1.6605  0.2202
 8860SOL     OW37048   9.909   8.602   0.381  0.2348 -0.5566  0.0530
 8860SOL    HW137049   9.957   8.515   0.375  0.3348 -0.3988 -1.7271
 8860SOL    HW237050   9.954   8.669   0.321 -2.5220 -0.5883 -2.1627
 8861SOL     OW37051   9.301   4.641   0.803 -0.2304 -0.0269 -0.1317
 8861SOL    HW137052   9.259   4.557   0.837 -2.4378  0.1637 -2.2110
 8861SOL    HW237053   9.275   4.717   0.862  1.5562 -0.7465  1.6050
 8862SOL     OW37054   1.105   7.768   0.041  0.3276  0.4384  0.0483
 8862SOL    HW137055   1.045   7.804  -0.030 -1.3140 -1.1461  0.5968
 8862SOL    HW237056   1.105   7.668   0.038 -0.1991  0.3162  2.5688
 8863SOL     OW37057   8.701   7.980   4.291 -0.0826 -0.4674  0.0197
 8863SOL    HW137058   8.786   7.931   4.309  0.7747  0.5944 -1.0729
 8863SOL    HW237059   8.658   8.004   4.378 -0.0587 -2.3469  0.5625
 8864SOL     OW37060   2.955   0.111   2.744 -0.2145 -0.2907 -0.1664
 8864SOL    HW137061   2.954   0.016   2.775 -0.9609  0.0601  0.9202
 8864SOL    HW237062   2.883   0.163   2.792 -0.2075  0.6794 -1.1886
 8865SOL     OW37063   3.089   6.359   2.973  0.1081 -0.4370 -0.4830
 8865SOL    HW137064   3.004   6.346   3.024  0.1891  0.2062 -0.1911
 8865SOL    HW237065   3.140   6.273   2.970 -0.1328 -0.5961  0.0884
 8866SOL     OW37066   1.720   0.715   3.651  0.0789 -0.2121  0.0730
 8866SOL    HW137067   1.695   0.733   3.556  2.0637 -1.3287 -0.6896
 8866SOL    HW237068   1.712   0.617   3.670  1.6004 -0.2642  0.4768
 8867SOL     OW37069   4.922   7.719   3.317  0.0136  0.2642  0.0560
 8867SOL    HW137070   4.847   7.687   3.259 -1.3324  1.1417  1.3011
 8867SOL    HW237071   5.009   7.707   3.268 -0.8864 -1.0973 -1.2448
 8868SOL     OW37072   3.254   9.330   4.618  0.2239  0.6719  0.8049
 8868SOL    HW137073   3.155   9.319   4.616  0.1089  1.2601  2.3708
 8868SOL    HW237074   3.282   9.367   4.707  2.0431 -1.3927  1.1423
 8869SOL     OW37075   7.082   9.392   2.786 -0.4807 -0.2595  0.3870
 8869SOL    HW137076   6.990   9.429   2.793 -0.0784  0.5316  1.6671
 8869SOL    HW237077   7.087   9.304   2.833 -0.0020  0.8432  2.4735
 8870SOL     OW37078   1.452   8.186   3.283  0.5641 -0.1738  0.0762
 8870SOL    HW137079   1.489   8.269   3.239  0.4852 -0.5398 -0.6855
 8870SOL    HW237080   1.379   8.149   3.226  0.6222 -0.7843  0.4060
 8871SOL     OW37081   0.251   9.918   3.103 -0.2063  0.2269 -0.1442
 8871SOL    HW137082   0.348   9.900   3.083 -0.0119  0.5830  0.4401
 8871SOL    HW237083   0.194   9.880   3.031  0.4329  0.9085 -1.0202
 8872SOL     OW37084   3.296   7.375   2.703  0.3414  0.4207  0.4644
 8872SOL    HW137085   3.376   7.397   2.646  0.5921  2.1389  1.4407
 8872SOL    HW237086   3.255   7.460   2.737 -2.2181 -0.3944 -0.4173
 8873SOL     OW37087   2.734   2.459   3.257  0.1195  0.2542  0.4465
 8873SOL    HW137088   2.799   2.472   3.182  0.6042 -1.0369  0.6184
 8873SOL    HW237089   2.740   2.536   3.319 -0.4252  1.4347 -0.9418
 8874SOL     OW37090   1.796   2.691   2.214  0.0427  0.5905  0.5333
 8874SOL    HW137091   1.778   2.769   2.275 -1.3002  1.1390 -0.5359
 8874SOL    HW237092   1.731   2.693   2.138  0.8619 -0.8337 -0.2169
 8875SOL     OW37093   9.447   5.599   1.850 -0.1046 -0.6932 -0.4384
 8875SOL    HW137094   9.392   5.516   1.862 -1.0962  0.2326  1.5702
 8875SOL    HW237095   9.493   5.622   1.936 -1.2863  1.8489 -0.4471
 8876SOL     OW37096   8.607   7.134   3.935  0.3265 -1.0311  0.1550
 8876SOL    HW137097   8.628   7.075   4.013  0.2955 -3.1054 -1.3701
 8876SOL    HW237098   8.646   7.095   3.852 -1.8194 -0.1856 -1.2912
 8877SOL     OW37099   3.957   3.243   3.746 -0.2021 -0.3681  0.3232
 8877SOL    HW137100   3.959   3.174   3.818 -2.4941  0.9114  1.6357
 8877SOL    HW237101   4.025   3.314   3.766  0.5224 -1.0143  0.1848
 8878SOL     OW37102   0.120   5.181   2.838  0.4716 -0.3687  0.0682
 8878SOL    HW137103   0.126   5.276   2.866  2.2290 -0.0046 -1.4715
 8878SOL    HW237104   0.049   5.171   2.768 -0.4179 -0.3977  0.9547
 8879SOL     OW37105   2.595   8.421   0.567  0.1681  0.2694  0.1066
 8879SOL    HW137106   2.530   8.496   0.575  0.3067  0.2217  1.9180
 8879SOL    HW237107   2.618   8.406   0.471 -0.9573  1.5970 -0.3744
 8880SOL     OW37108   2.718   6.209   1.299 -0.4262  0.3203 -0.1772
 8880SOL    HW137109   2.697   6.220   1.396 -1.1607  0.7205 -0.3829
 8880SOL    HW237110   2.729   6.111   1.278  0.8255  0.3024  0.5314
 8881SOL     OW37111   3.498   6.265   2.575  0.3639  0.0893 -0.2710
 8881SOL    HW137112   3.404   6.296   2.583  0.2185 -0.1450 -1.0313
 8881SOL    HW237113   3.556   6.315   2.639 -0.1143  0.9345 -0.5013
 8882SOL     OW37114   0.201   7.657   3.302 -0.1109  0.6196  0.3030
 8882SOL    HW137115   0.233   7.563   3.307 -0.1775  0.5220 -1.0981
 8882SOL    HW237116   0.104   7.660   3.326 -0.2655  0.2434 -0.2751
 8883SOL     OW37117   7.168   8.863   1.679  0.7171  0.2678 -0.3898
 8883SOL    HW137118   7.196   8.820   1.765 -0.7000 -2.2189 -1.1078
 8883SOL    HW237119   7.248   8.904   1.635  1.4640  1.5415  2.0650
 8884SOL     OW37120   9.480   6.768   4.260  0.3589  0.8495  0.5360
 8884SOL    HW137121   9.436   6.719   4.335 -0.1658  0.7132  0.1424
 8884SOL    HW237122   9.576   6.741   4.254  0.5304  1.2246  1.4662
 8885SOL     OW37123   1.506   3.022   0.359  0.0225 -0.6603  0.4059
 8885SOL    HW137124   1.496   3.088   0.433 -0.9612 -2.2500  1.7051
 8885SOL    HW237125   1.418   3.011   0.313  0.0094 -1.6211  0.6619
 8886SOL     OW37126   2.373   6.066   1.937 -0.3310  0.6742 -0.5592
 8886SOL    HW137127   2.409   6.151   1.898 -0.1608  1.7248  1.8196
 8886SOL    HW237128   2.400   6.059   2.033 -1.5293 -1.4099 -0.3384
 8887SOL     OW37129   3.151   4.398   0.978 -0.1787 -0.4033  0.1041
 8887SOL    HW137130   3.206   4.414   0.897  0.8587  1.8730  1.2212
 8887SOL    HW237131   3.197   4.332   1.038 -0.1766 -0.8764 -0.4233
 8888SOL     OW37132   9.770   5.667   2.723 -0.6531  0.0160 -0.6119
 8888SOL    HW137133   9.842   5.616   2.770  0.2838  0.8482 -1.1146
 8888SOL    HW237134   9.700   5.604   2.690 -1.4565 -0.5627  2.0892
 8889SOL     OW37135   5.437   9.556   2.891 -0.5768 -0.2583  0.2100
 8889SOL    HW137136   5.384   9.589   2.969 -0.0820 -2.2131  1.4052
 8889SOL    HW237137   5.533   9.580   2.903 -0.8921  1.9383 -1.2206
 8890SOL     OW37138   8.388   6.616   1.209  0.1994  0.6091 -0.4313
 8890SOL    HW137139   8.336   6.696   1.239 -0.6864  0.8800 -2.6139
 8890SOL    HW237140   8.433   6.636   1.122 -1.7386 -1.8780 -2.0897
 8891SOL     OW37141   7.999   7.582   3.837  0.2465  0.2805  0.3125
 8891SOL    HW137142   8.064   7.541   3.773  0.6841  0.0166  0.9285
 8891SOL    HW237143   7.937   7.512   3.871 -0.3375  0.5234 -0.2378
 8892SOL     OW37144   5.027   2.465   1.138  0.1917 -0.1579  0.6123
 8892SOL    HW137145   4.950   2.444   1.077 -0.6924  0.3392  1.5434
 8892SOL    HW237146   5.065   2.554   1.113 -0.4347  0.2355  1.0323
 8893SOL     OW37147   0.670   8.089   0.531  0.5241  0.0692 -0.2877
 8893SOL    HW137148   0.758   8.133   0.549 -0.3237  0.8165  2.2405
 8893SOL    HW237149   0.600   8.158   0.517 -0.2858 -0.4792  0.9790
 8894SOL     OW37150   3.717   4.936   1.081  0.1182  0.4633  0.6811
 8894SOL    HW137151   3.696   4.907   1.175 -2.5691  1.4965  0.4405
 8894SOL    HW237152   3.711   5.036   1.075 -3.0525  0.2144 -1.3169
 8895SOL     OW37153   8.361   6.849   3.629 -0.3219  0.1499  0.1062
 8895SOL    HW137154   8.333   6.810   3.540 -0.5349  1.1778 -0.2809
 8895SOL    HW237155   8.336   6.785   3.702  1.3811 -1.5045 -0.6863
 8896SOL     OW37156   2.344   2.349   3.943 -0.0910 -0.2856 -0.5600
 8896SOL    HW137157   2.443   2.361   3.957 -0.2797 -0.1792  0.7348
 8896SOL    HW237158   2.306   2.432   3.901  0.3406 -0.2769 -0.9423
 8897SOL     OW37159   0.365   1.335   2.845  0.0033 -0.0951  0.2790
 8897SOL    HW137160   0.268   1.325   2.868 -0.0042 -0.7809 -0.0496
 8897SOL    HW237161   0.420   1.278   2.906  0.0924 -0.7578 -0.4131
 8898SOL     OW37162   7.247   8.027   2.681 -0.7758  0.0515  0.3732
 8898SOL    HW137163   7.219   7.947   2.734 -0.8642  0.9031  1.6448
 8898SOL    HW237164   7.201   8.027   2.592 -1.3307 -0.9166  0.6593
 8899SOL     OW37165   4.492   4.082   4.555 -0.0354  0.2496 -0.5397
 8899SOL    HW137166   4.531   4.017   4.621 -0.2473 -0.1117 -0.7670
 8899SOL    HW237167   4.419   4.037   4.504  0.3325  0.4267 -1.2377
 8900SOL     OW37168   0.801   4.288   0.800  0.7800 -0.1748 -0.0750
 8900SOL    HW137169   0.874   4.220   0.791 -0.6125 -1.6299 -0.6505
 8900SOL    HW237170   0.717   4.252   0.760 -0.6300  0.9122  1.8284
 8901SOL     OW37171   2.267   3.993   2.777  0.2684 -0.0426  0.2459
 8901SOL    HW137172   2.336   4.063   2.758  0.4500 -0.2483  0.1408
 8901SOL    HW237173   2.176   4.035   2.778  0.4149  0.2722  0.6174
 8902SOL     OW37174   3.760   9.419   0.949 -0.0566  0.1920  0.3458
 8902SOL    HW137175   3.748   9.392   1.044  0.2016  2.0810  0.9223
 8902SOL    HW237176   3.680   9.470   0.918  1.7370  3.4484  0.9295
 8903SOL     OW37177   2.392   3.402   3.743 -0.0373  0.1598  0.1079
 8903SOL    HW137178   2.356   3.308   3.746 -0.1388  0.1632 -0.8041
 8903SOL    HW237179   2.395   3.439   3.835  1.9122 -1.4504  0.7362
 8904SOL     OW37180   1.752   1.852   1.860 -0.0646  0.0574  0.0541
 8904SOL    HW137181   1.773   1.784   1.790  2.0187 -0.2511  0.9427
 8904SOL    HW237182   1.722   1.937   1.817  1.0526 -0.1750 -1.2075
 8905SOL     OW37183   0.478   0.451   3.302  0.0558  0.1738  0.1498
 8905SOL    HW137184   0.497   0.511   3.223 -0.1893  0.4996  0.3357
 8905SOL    HW237185   0.528   0.365   3.291 -0.9643 -0.2959 -0.9800
 8906SOL     OW37186   1.588   3.671   2.961  0.4465 -0.1565 -0.4348
 8906SOL    HW137187   1.591   3.714   2.871  2.3767 -0.3706 -0.4900
 8906SOL    HW237188   1.564   3.574   2.951  0.8533 -0.2250 -0.7366
 8907SOL     OW37189   3.782   7.593   3.050 -0.3875 -0.3396 -0.2222
 8907SOL    HW137190   3.780   7.550   3.139  0.2237 -0.2453 -0.1543
 8907SOL    HW237191   3.715   7.550   2.989 -1.4995  0.2532  0.5701
 8908SOL     OW37192   3.041   2.832   1.780  0.0856 -0.4392 -0.9833
 8908SOL    HW137193   3.033   2.932   1.783  0.7481 -0.4374  1.4457
 8908SOL    HW237194   3.117   2.807   1.720 -1.5940  0.3817 -3.5735
 8909SOL     OW37195   7.204   8.904   2.757  0.3002  0.1078  0.2668
 8909SOL    HW137196   7.163   8.815   2.778  0.5674  0.0842  0.6909
 8909SOL    HW237197   7.259   8.896   2.673  1.4009 -0.4668  1.0174
 8910SOL     OW37198   8.340   8.099   0.033 -0.0545  0.4247  0.3797
 8910SOL    HW137199   8.380   8.136   0.117 -1.2262  0.2161  1.0343
 8910SOL    HW237200   8.412   8.086  -0.035  0.7023  1.8725  0.8872
 8911SOL     OW37201   2.453   2.967   2.874 -0.4575  0.0550  0.4786
 8911SOL    HW137202   2.551   2.944   2.877 -0.7045 -1.1553 -0.4331
 8911SOL    HW237203   2.443   3.063   2.848  0.4809  0.0758  0.1637
 8912SOL     OW37204   6.944   7.861   1.786 -0.2979 -0.2362  0.0598
 8912SOL    HW137205   6.880   7.928   1.749  1.0458  0.8490 -0.3343
 8912SOL    HW237206   7.010   7.835   1.715  0.5594 -0.2818  0.8598
 8913SOL     OW37207   1.968   7.670   4.005  0.0611 -0.2848  0.1311
 8913SOL    HW137208   1.969   7.686   4.104  2.3197  0.2994  0.0340
 8913SOL    HW237209   1.911   7.590   3.986  1.4689 -1.8432  2.1606
 8914SOL     OW37210   3.629   0.335   1.879 -0.9645 -0.6295 -0.3596
 8914SOL    HW137211   3.667   0.300   1.964 -0.1357  1.2326  0.0618
 8914SOL    HW237212   3.696   0.326   1.806 -1.5084 -1.8018 -0.7325
 8915SOL     OW37213   2.433   2.401   0.843 -0.1406 -0.3294 -0.5525
 8915SOL    HW137214   2.338   2.432   0.838  0.1578  0.7802  0.5142
 8915SOL    HW237215   2.453   2.371   0.936  0.3202 -1.3515 -0.9757
 8916SOL     OW37216   1.327   3.687   4.214 -0.7584  0.0215  0.3508
 8916SOL    HW137217   1.406   3.691   4.275 -0.1308 -1.5821 -0.3367
 8916SOL    HW237218   1.251   3.737   4.255  0.3123  0.7791  1.4531
 8917SOL     OW37219   9.775   5.033   3.528 -0.1708 -0.0365 -0.3077
 8917SOL    HW137220   9.781   4.986   3.440 -0.8475  0.2044 -0.4809
 8917SOL    HW237221   9.680   5.050   3.551 -0.1643 -2.2941  1.6557
 8918SOL     OW37222   4.417   7.979   4.479  0.3971 -0.0586  0.3357
 8918SOL    HW137223   4.493   8.035   4.514 -0.5006  0.6042  1.2543
 8918SOL    HW237224   4.357   8.035   4.423  0.0693 -0.3458  0.3934
 8919SOL     OW37225   9.069   8.268   2.525  0.5771  0.3461 -0.8436
 8919SOL    HW137226   8.971   8.269   2.544  0.8806  0.4740  0.8065
 8919SOL    HW237227   9.098   8.174   2.506  0.4682  0.0091  0.5871
 8920SOL     OW37228   3.053   0.037   3.898  0.4788 -0.1834  0.2182
 8920SOL    HW137229   3.059   0.030   3.998  2.7701 -1.3488  0.0319
 8920SOL    HW237230   3.106   0.115   3.867 -0.0524  0.0470 -0.1097
 8921SOL     OW37231   9.078   7.248   3.450  0.2487 -0.4122  0.5926
 8921SOL    HW137232   9.016   7.208   3.382 -0.4144 -2.2911  2.2510
 8921SOL    HW237233   9.129   7.175   3.496  0.6915  0.8107  2.0900
 8922SOL     OW37234   2.357   3.610   3.954  0.2252  0.0072  0.0355
 8922SOL    HW137235   2.315   3.660   3.878 -2.6942  0.6376  1.9912
 8922SOL    HW237236   2.374   3.672   4.030  0.2776 -1.1970  1.0246
 8923SOL     OW37237   6.760   8.152   1.504 -0.1878 -0.1965 -0.2578
 8923SOL    HW137238   6.683   8.150   1.568  0.3081  0.5922  0.3681
 8923SOL    HW237239   6.773   8.061   1.465 -2.1408 -0.1071 -1.1965
 8924SOL     OW37240   2.507   1.316   4.161  0.1113  0.2370 -0.1305
 8924SOL    HW137241   2.476   1.410   4.176  0.9245  0.7389 -1.5420
 8924SOL    HW237242   2.524   1.302   4.063 -0.5892 -1.5611  0.0006
 8925SOL     OW37243   4.275   8.796   2.705 -0.2079  0.3590  0.0154
 8925SOL    HW137244   4.271   8.814   2.804 -0.5947  0.5694 -0.0397
 8925SOL    HW237245   4.206   8.728   2.681  0.4896 -0.3676  0.0364
 8926SOL     OW37246   9.710   8.956   4.295  0.1968  0.1134 -0.2315
 8926SOL    HW137247   9.664   9.042   4.275 -0.7866 -0.3354  0.0688
 8926SOL    HW237248   9.771   8.968   4.374  1.3492  0.9556 -1.2322
 8927SOL     OW37249   0.291   0.981   1.442  0.3550 -0.4713  0.1328
 8927SOL    HW137250   0.358   0.945   1.507  2.7049  0.2567 -1.8142
 8927SOL    HW237251   0.245   1.060   1.481  0.8730 -0.7719  1.3656
 8928SOL     OW37252   3.571   9.325   0.734 -0.7396  0.9893  0.1076
 8928SOL    HW137253   3.585   9.294   0.828  1.7477 -3.5105 -1.5571
 8928SOL    HW237254   3.473   9.326   0.713 -1.1559 -1.6286  1.6837
 8929SOL     OW37255   2.320   7.878   1.380  0.1089  0.6898 -0.2162
 8929SOL    HW137256   2.348   7.789   1.416  1.0759  1.1704  0.2374
 8929SOL    HW237257   2.339   7.882   1.282  1.8759  1.0833  0.1221
 8930SOL     OW37258   4.942   0.694   2.453  0.6845 -0.4065 -0.0368
 8930SOL    HW137259   4.936   0.769   2.519 -0.8629 -2.1480  1.8384
 8930SOL    HW237260   4.862   0.696   2.394  0.5966 -0.6587  0.0772
 8931SOL     OW37261   2.419   9.809   0.805  0.4275  0.2396  0.0244
 8931SOL    HW137262   2.445   9.782   0.713  0.7078  1.1144 -0.1593
 8931SOL    HW237263   2.399   9.727   0.860 -1.8930 -0.2142 -1.4159
 8932SOL     OW37264   9.830   6.833   3.146  0.5867 -0.3221  0.4872
 8932SOL    HW137265   9.756   6.782   3.102  0.9002 -0.7534  0.4579
 8932SOL    HW237266   9.825   6.929   3.118  1.0477 -0.6714 -0.8633
 8933SOL     OW37267   8.332   7.058   2.983  0.3080  0.5112 -0.3001
 8933SOL    HW137268   8.294   6.972   3.018  0.2288  0.5152 -0.3784
 8933SOL    HW237269   8.293   7.134   3.034 -1.1192  0.6405 -1.5356
 8934SOL     OW37270   5.982   0.345   2.893 -0.3543 -0.1742  0.1049
 8934SOL    HW137271   5.969   0.247   2.878  0.0198  0.1181 -2.2421
 8934SOL    HW237272   5.896   0.393   2.879 -0.2757 -0.0294  0.1171
 8935SOL     OW37273   3.364   6.757   2.211  0.0797  0.0028 -0.6665
 8935SOL    HW137274   3.354   6.672   2.159 -1.6017  0.1142 -0.5353
 8935SOL    HW237275   3.308   6.829   2.169  2.2708  1.3547 -1.3961
 8936SOL     OW37276   7.384   6.700   3.048 -0.0746 -0.3052 -0.2919
 8936SOL    HW137277   7.322   6.772   3.018  1.3548  1.2665  0.4219
 8936SOL    HW237278   7.456   6.688   2.980 -0.9319 -1.8697 -0.9484
 8937SOL     OW37279   7.566   7.117   3.695 -0.6099  0.2634 -0.6032
 8937SOL    HW137280   7.661   7.097   3.673 -0.3843  1.0899 -0.4144
 8937SOL    HW237281   7.549   7.215   3.683 -1.6399  0.0073 -1.3791
 8938SOL     OW37282   6.870   9.622   1.302  0.2473  0.0257  0.7319
 8938SOL    HW137283   6.811   9.702   1.298  0.9842  0.5837  0.9659
 8938SOL    HW237284   6.875   9.580   1.212 -1.2665 -0.5895  0.9131
 8939SOL     OW37285   1.198   4.514   3.379  0.0130 -0.1495 -0.3107
 8939SOL    HW137286   1.126   4.568   3.334  1.4892  1.1827 -1.1415
 8939SOL    HW237287   1.195   4.531   3.477 -0.6426  0.1127 -0.3723
 8940SOL     OW37288   1.160   1.173   4.617 -0.0533  0.1924 -0.1565
 8940SOL    HW137289   1.130   1.107   4.549 -0.5123 -0.3908  0.6054
 8940SOL    HW237290   1.082   1.203   4.672  0.6239 -0.8024  1.3664
 8941SOL     OW37291   2.509   9.201   1.614 -0.0994  0.1976  0.3929
 8941SOL    HW137292   2.603   9.172   1.631  0.3279  2.3942  1.9621
 8941SOL    HW237293   2.456   9.124   1.577  2.7591 -0.5816 -2.2563
 8942SOL     OW37294   4.050   7.514   2.974 -0.0829 -0.5723  0.7182
 8942SOL    HW137295   4.059   7.421   3.008 -1.7304 -0.4255  1.5842
 8942SOL    HW237296   3.957   7.546   2.988 -0.1529  0.3875 -1.6833
 8943SOL     OW37297   6.010   9.171   2.479  0.4376 -0.3043 -0.4444
 8943SOL    HW137298   6.007   9.179   2.579 -2.6274  1.6396 -0.6171
 8943SOL    HW237299   6.070   9.241   2.442  0.1223  0.1815 -0.0494
 8944SOL     OW37300   3.780   2.650   2.977 -0.8309  0.4774 -0.5053
 8944SOL    HW137301   3.874   2.629   2.954 -0.4842  1.6049 -0.1604
 8944SOL    HW237302   3.758   2.743   2.947 -1.8931  0.1577 -0.7687
 8945SOL     OW37303   0.339   5.563   3.049  0.1856 -0.4338  1.0022
 8945SOL    HW137304   0.339   5.661   3.067 -0.9579 -0.1066 -0.6133
 8945SOL    HW237305   0.255   5.522   3.085  1.4159 -1.1404  3.1542
 8946SOL     OW37306   0.042   8.375   3.568  0.2924  0.7067  0.0099
 8946SOL    HW137307  -0.029   8.305   3.559  1.1963 -0.1193 -0.9399
 8946SOL    HW237308   0.000   8.465   3.576 -0.9187 -0.0019  1.9901
 8947SOL     OW37309   5.308   9.182   3.560 -0.3703  0.0336  0.0783
 8947SOL    HW137310   5.237   9.236   3.604 -0.4155  0.1902 -0.1836
 8947SOL    HW237311   5.339   9.109   3.622 -1.2931 -0.5106 -0.0935
 8948SOL     OW37312   2.713   5.483   3.771 -0.1184 -0.3668  0.0405
 8948SOL    HW137313   2.660   5.567   3.783 -0.8145 -0.9057  0.7717
 8948SOL    HW237314   2.672   5.410   3.825  0.7609 -1.0618 -0.2252
 8949SOL     OW37315   1.083   6.511   3.427  0.3449  0.0594 -0.3156
 8949SOL    HW137316   1.035   6.599   3.424 -0.6518 -0.5108 -1.8005
 8949SOL    HW237317   1.136   6.498   3.343  2.0449  0.0863  0.7389
 8950SOL     OW37318   2.123   8.249   2.133 -0.1380 -0.3786  0.1671
 8950SOL    HW137319   2.121   8.344   2.101  0.3714 -0.3980  0.0679
 8950SOL    HW237320   2.214   8.210   2.115  0.1334 -0.4191  1.5487
 8951SOL     OW37321   5.158   9.587   2.551  0.2488  0.6049  0.4558
 8951SOL    HW137322   5.195   9.546   2.634  1.1420  0.6435  0.0790
 8951SOL    HW237323   5.063   9.615   2.568 -0.9432 -3.0144  0.2426
 8952SOL     OW37324   1.179   8.771   3.285  0.5304 -0.0327  0.4879
 8952SOL    HW137325   1.088   8.793   3.322  0.0094 -2.6587  0.8311
 8952SOL    HW237326   1.240   8.745   3.359  0.9232 -0.4708  0.0086
 8953SOL     OW37327   3.729   6.639   3.073 -0.4148  0.5475 -0.2084
 8953SOL    HW137328   3.775   6.552   3.093 -0.3666 -0.5572 -4.6477
 8953SOL    HW237329   3.789   6.715   3.097  0.6666 -0.6889  1.1156
 8954SOL     OW37330   2.224   8.988   4.329 -0.3373  0.0000 -0.3217
 8954SOL    HW137331   2.212   8.950   4.237 -0.4043  0.5670 -0.5451
 8954SOL    HW237332   2.159   9.063   4.343 -0.4592 -0.2083  0.2582
 8955SOL     OW37333   2.685   0.836   0.768 -0.1046 -0.4083  0.0095
 8955SOL    HW137334   2.630   0.911   0.804  0.0621 -0.6782  0.8274
 8955SOL    HW237335   2.709   0.773   0.842 -1.6882 -2.1851 -0.9389
 8956SOL     OW37336   1.833   1.419   4.062 -0.6536 -0.0489 -0.0702
 8956SOL    HW137337   1.769   1.413   3.986  0.6540 -3.4736 -1.0092
 8956SOL    HW237338   1.918   1.461   4.030 -1.6482  2.6479  0.6825
 8957SOL     OW37339   2.316   7.891   0.620  0.2469 -0.7482  0.2336
 8957SOL    HW137340   2.246   7.962   0.608  0.0121 -0.9150  0.5725
 8957SOL    HW237341   2.271   7.803   0.635  0.5443 -1.0707 -0.7891
 8958SOL     OW37342   0.007   0.170   0.169  0.0387 -0.4140 -0.3707
 8958SOL    HW137343  -0.057   0.210   0.103  0.5037 -0.3141 -0.7633
 8958SOL    HW237344   0.071   0.111   0.121 -0.9759 -2.0528  0.2765
 8959SOL     OW37345   8.109   6.573   4.214  0.0195  0.0748  0.2927
 8959SOL    HW137346   8.123   6.604   4.120 -0.3878 -1.7813 -0.4069
 8959SOL    HW237347   8.013   6.585   4.239 -0.3979 -1.6473 -0.3947
 8960SOL     OW37348   8.599   8.092   2.174  0.1928  0.4562  0.2316
 8960SOL    HW137349   8.672   8.079   2.107  1.0202 -2.3681  1.5841
 8960SOL    HW237350   8.542   8.011   2.178 -1.8965  1.8982  0.5769
 8961SOL     OW37351   9.142   9.671   3.638 -0.3064 -0.3373  0.0293
 8961SOL    HW137352   9.144   9.571   3.631 -1.4746 -0.4768  1.3636
 8961SOL    HW237353   9.235   9.705   3.648  0.1758 -1.2174 -1.3351
 8962SOL     OW37354   6.486   9.485   2.964  0.2843  0.3616 -0.1459
 8962SOL    HW137355   6.416   9.441   3.020  1.9667 -1.5358  0.5210
 8962SOL    HW237356   6.552   9.530   3.024  1.3560 -0.5302 -0.6409
 8963SOL     OW37357   3.809   9.954   3.828 -0.9031 -0.0595 -0.1286
 8963SOL    HW137358   3.805   9.858   3.853 -0.5303 -0.0875 -0.1638
 8963SOL    HW237359   3.844  10.007   3.905  0.8420 -0.2241 -0.7759
 8964SOL     OW37360   1.014   9.423   3.112 -1.0438 -0.0810 -0.0939
 8964SOL    HW137361   1.015   9.481   3.030  0.3241 -2.5321 -1.8821
 8964SOL    HW237362   0.928   9.371   3.113  0.0700 -2.0526 -1.5144
 8965SOL     OW37363   3.728   7.833   0.204 -0.0360 -0.1790 -0.2343
 8965SOL    HW137364   3.703   7.916   0.254  0.2463  1.0101 -2.0353
 8965SOL    HW237365   3.739   7.854   0.107 -0.6104 -2.4726 -0.8245
 8966SOL     OW37366   1.165   2.913   3.174  0.4315  0.1792 -0.0455
 8966SOL    HW137367   1.131   2.995   3.129 -1.2360 -1.1472 -1.2251
 8966SOL    HW237368   1.092   2.872   3.229  0.9629 -1.0506 -0.2346
 8967SOL     OW37369   4.572   7.472   3.743 -0.4037 -0.4386  0.2892
 8967SOL    HW137370   4.660   7.496   3.703 -1.8252  0.9919 -2.0731
 8967SOL    HW237371   4.536   7.550   3.794 -0.5385 -0.8629  0.8514
 8968SOL     OW37372   1.671   5.942   2.492  0.1944  0.3265  0.2838
 8968SOL    HW137373   1.646   6.029   2.450 -1.1658 -0.2323 -0.0816
 8968SOL    HW237374   1.630   5.936   2.583 -0.2227 -0.1870  0.0646
 8969SOL     OW37375   2.876   9.506   1.312 -0.0863 -0.1981 -0.0624
 8969SOL    HW137376   2.888   9.512   1.213  0.8237 -0.0674  0.0463
 8969SOL    HW237377   2.915   9.421   1.346  1.6218  0.7555  0.4511
 8970SOL     OW37378   3.789   4.701   3.696  0.8986 -0.3644  0.5359
 8970SOL    HW137379   3.725   4.748   3.757  2.2372 -0.4065  2.0097
 8970SOL    HW237380   3.742   4.677   3.611 -0.4572  1.4881  0.7221
 8971SOL     OW37381   7.879   8.776   4.087 -0.3468 -0.1966 -0.6826
 8971SOL    HW137382   7.844   8.715   4.158  2.1873  0.2417  1.0159
 8971SOL    HW237383   7.887   8.726   4.001 -2.3312 -1.0609 -0.3899
 8972SOL     OW37384   1.097   3.245   4.363  1.1116 -0.1584 -0.3319
 8972SOL    HW137385   1.134   3.256   4.455  0.3901  2.5550 -0.3064
 8972SOL    HW237386   1.155   3.294   4.298  1.4343 -1.7809 -1.2828
 8973SOL     OW37387   3.251   6.420   2.543  0.1179 -0.3643  0.1226
 8973SOL    HW137388   3.277   6.512   2.514  0.7060  0.1248  2.1398
 8973SOL    HW237389   3.180   6.426   2.613 -1.3809 -1.5317 -1.2501
 8974SOL     OW37390   2.220   3.060   1.208  0.6435  0.6138  0.0687
 8974SOL    HW137391   2.242   3.042   1.112 -1.1989 -0.3891 -0.1842
 8974SOL    HW237392   2.135   3.014   1.232 -0.5073  3.3310  1.3676
 8975SOL     OW37393   9.518   9.933   4.321  0.2916 -0.2610 -0.3156
 8975SOL    HW137394   9.437   9.914   4.266 -1.2510  1.9061  1.1343
 8975SOL    HW237395   9.542   9.852   4.374 -1.4136 -0.6867 -0.1590
 8976SOL     OW37396   9.497   0.122   1.493  0.2785 -0.5433  0.3553
 8976SOL    HW137397   9.592   0.138   1.519  0.3000  2.6708 -1.3567
 8976SOL    HW237398   9.438   0.129   1.573  1.3620 -1.2949  1.2226
 8977SOL     OW37399   2.586   1.746   2.575 -0.2644 -0.7066  0.2037
 8977SOL    HW137400   2.601   1.737   2.476 -1.5373 -2.4719  0.1583
 8977SOL    HW237401   2.599   1.842   2.601  0.1511 -0.2260 -1.6629
 8978SOL     OW37402   8.949   9.271   0.194 -0.0496  0.7272  0.2145
 8978SOL    HW137403   8.937   9.272   0.095 -1.2950  0.1311  0.3587
 8978SOL    HW237404   8.891   9.341   0.236 -1.8822 -1.0766  0.7687
 8979SOL     OW37405   4.151   9.214   1.374 -0.7657  0.1821  0.5327
 8979SOL    HW137406   4.210   9.267   1.313 -0.9698  0.6562  0.7477
 8979SOL    HW237407   4.129   9.126   1.331 -1.8407  0.9804 -0.5664
 8980SOL     OW37408   0.091   0.319   2.710 -0.6481 -0.2330  0.7889
 8980SOL    HW137409   0.024   0.307   2.783 -0.2024  1.7626  1.5601
 8980SOL    HW237410   0.177   0.275   2.736 -1.2880 -1.8023  0.2971
 8981SOL     OW37411   7.704   7.046   3.311 -0.0521  0.6549 -0.3694
 8981SOL    HW137412   7.802   7.029   3.307 -0.2794 -0.5859 -0.8744
 8981SOL    HW237413   7.656   6.979   3.255 -1.0483  2.5004 -1.7772
 8982SOL     OW37414   4.321   3.510   1.662  0.3459  0.1405  0.5968
 8982SOL    HW137415   4.383   3.435   1.684 -1.8608 -1.5130  1.3500
 8982SOL    HW237416   4.288   3.552   1.746 -0.7721 -0.0367  0.2538
 8983SOL     OW37417   2.190   1.810   3.335 -0.0909  0.2181 -0.3115
 8983SOL    HW137418   2.184   1.797   3.434 -1.1942 -1.5978 -0.6087
 8983SOL    HW237419   2.132   1.888   3.309  0.3007  0.7809  0.4786
 8984SOL     OW37420   3.311   5.014   0.929  0.2520  0.2420  0.0281
 8984SOL    HW137421   3.293   5.013   0.830 -0.1272  3.0048  0.0329
 8984SOL    HW237422   3.368   4.936   0.953 -1.6258 -1.8300 -1.9846
 8985SOL     OW37423   9.266   0.575   2.587 -0.1519  0.4826 -0.5309
 8985SOL    HW137424   9.269   0.521   2.503 -2.3729 -1.6123  0.6509
 8985SOL    HW237425   9.325   0.532   2.656 -1.4266 -0.0778  0.2172
 8986SOL     OW37426   9.749   7.078   0.420  0.2590  0.3713  0.7718
 8986SOL    HW137427   9.758   7.066   0.519  0.2290  2.0385  0.9909
 8986SOL    HW237428   9.655   7.059   0.392  0.3667 -0.5065  0.9987
 8987SOL     OW37429   4.161   2.766   1.669 -0.4504  0.2591 -0.4764
 8987SOL    HW137430   4.091   2.725   1.727 -0.9417 -0.7195 -1.7384
 8987SOL    HW237431   4.129   2.855   1.635 -0.7233  0.1983 -0.3752
 8988SOL     OW37432   9.190   9.577   0.776 -0.3035  0.2750 -0.0352
 8988SOL    HW137433   9.215   9.627   0.693 -0.2440  0.6065  0.1845
 8988SOL    HW237434   9.111   9.519   0.757 -0.5983  0.7262 -0.1880
 8989SOL     OW37435   1.344   2.708   3.225  0.0004 -0.1176 -0.4189
 8989SOL    HW137436   1.292   2.791   3.203  0.3183 -0.6366 -3.3804
 8989SOL    HW237437   1.434   2.733   3.260  0.0015  0.7974 -1.0586
 8990SOL     OW37438   8.636   9.197   0.374  0.1192 -0.0041 -0.4907
 8990SOL    HW137439   8.570   9.151   0.314  0.5741  0.2954 -1.2334
 8990SOL    HW237440   8.714   9.137   0.389 -0.4762 -0.5025  0.6843
 8991SOL     OW37441   4.990   0.513   3.973 -0.0711 -0.3969  0.7614
 8991SOL    HW137442   4.906   0.564   3.953  1.0223  0.9720 -0.4584
 8991SOL    HW237443   5.020   0.532   4.066  0.2099  1.0439  0.3819
 8992SOL     OW37444   2.945   2.909   0.995  0.2310 -0.4502 -0.7816
 8992SOL    HW137445   2.984   2.890   1.085 -0.5405 -1.6273 -0.6882
 8992SOL    HW237446   2.963   3.005   0.971  0.0814 -0.0009  0.8022
 8993SOL     OW37447   1.086   1.726   3.393  0.7207  0.4173 -0.7673
 8993SOL    HW137448   1.123   1.775   3.314  0.0362 -0.1266 -1.4372
 8993SOL    HW237449   1.134   1.755   3.476  0.1880  2.3497 -1.1131
 8994SOL     OW37450   1.836   2.190   0.349  0.1487  0.5219  0.7936
 8994SOL    HW137451   1.784   2.107   0.371 -1.0086  0.9460 -0.3128
 8994SOL    HW237452   1.930   2.179   0.380 -0.1417 -0.9801  1.1801
 8995SOL     OW37453   2.982   7.647   2.662 -0.0650  0.0896  0.2853
 8995SOL    HW137454   3.059   7.638   2.725 -1.3693  1.7043  2.1665
 8995SOL    HW237455   2.902   7.682   2.712 -1.2675  0.9202 -2.1600
 8996SOL     OW37456   9.114   6.377   1.641 -0.0922 -0.5375  0.2081
 8996SOL    HW137457   9.213   6.389   1.652 -0.2920 -0.2515  1.7994
 8996SOL    HW237458   9.085   6.298   1.695 -0.9040  0.0494  0.6331
 8997SOL     OW37459   2.919   8.991   4.401 -0.1000 -0.2984 -0.3324
 8997SOL    HW137460   3.011   9.027   4.389 -0.3594  0.9322  1.2419
 8997SOL    HW237461   2.922   8.891   4.404  1.3230 -0.2347  0.8377
 8998SOL     OW37462   2.673   1.067   4.601 -0.0109  0.5156  0.3218
 8998SOL    HW137463   2.751   1.041   4.657  0.3829 -0.7454 -0.7805
 8998SOL    HW237464   2.627   1.145   4.642  0.8473  0.2304  1.8644
 8999SOL     OW37465   4.498   7.236   3.146  0.0251 -0.1959 -0.0427
 8999SOL    HW137466   4.593   7.246   3.175  0.1204 -0.3813 -0.2852
 8999SOL    HW237467   4.450   7.174   3.209 -0.1583  0.5622  0.5666
 9000SOL     OW37468   1.730   0.186   3.314  0.6089 -0.3499 -0.0023
 9000SOL    HW137469   1.685   0.192   3.402 -0.2869 -0.6636 -0.4368
 9000SOL    HW237470   1.686   0.117   3.258  1.4008 -0.4115 -0.5673
 9001SOL     OW37471   3.113   5.702   1.600 -0.2741  0.2522 -0.3964
 9001SOL    HW137472   3.146   5.660   1.516  0.6599 -1.6077  0.8632
 9001SOL    HW237473   3.018   5.732   1.588 -0.0433  0.3266 -2.1928
 9002SOL     OW37474   1.729   7.720   3.447 -0.3784  0.1259 -0.1096
 9002SOL    HW137475   1.679   7.761   3.524  0.7807 -3.5284  2.7266
 9002SOL    HW237476   1.817   7.767   3.437 -1.7067  2.4854 -1.1077
 9003SOL     OW37477   3.376   8.436   0.271  0.0843  0.4505  0.0675
 9003SOL    HW137478   3.293   8.462   0.223 -0.4607 -0.4647  0.4865
 9003SOL    HW237479   3.439   8.513   0.273 -0.5090  0.9717 -0.7701
 9004SOL     OW37480   3.196   5.825   2.652 -0.5220 -0.1175  0.4412
 9004SOL    HW137481   3.272   5.890   2.658 -0.4447 -0.1596 -0.0419
 9004SOL    HW237482   3.189   5.774   2.738  0.3745 -0.5300  0.2681
 9005SOL     OW37483   9.256   6.363   4.456 -0.3477 -0.2297 -0.7450
 9005SOL    HW137484   9.314   6.288   4.487 -0.6789 -1.0692 -2.0995
 9005SOL    HW237485   9.160   6.340   4.475 -0.4895 -0.4010 -1.6498
 9006SOL     OW37486   2.193   9.337   4.756 -0.4324 -0.2127  0.0434
 9006SOL    HW137487   2.276   9.335   4.700  0.4790 -2.6314  1.4063
 9006SOL    HW237488   2.208   9.395   4.835 -0.2467 -0.1457 -0.0403
 9007SOL     OW37489   1.289   3.732   4.485  0.1504  0.3579  0.1750
 9007SOL    HW137490   1.267   3.825   4.457  0.7612  0.2936 -0.5162
 9007SOL    HW237491   1.325   3.734   4.578  1.7021  1.0092 -0.4199
 9008SOL     OW37492   1.014   7.865   0.275  0.0920  0.5871 -0.2577
 9008SOL    HW137493   1.055   7.798   0.213 -0.5972  0.1428 -0.2402
 9008SOL    HW237494   1.081   7.936   0.297  0.1390  1.1258 -2.0424
 9009SOL     OW37495   2.734   3.649   1.674  0.2698  0.0401 -0.2821
 9009SOL    HW137496   2.678   3.619   1.597 -0.0901  1.3031 -0.5208
 9009SOL    HW237497   2.796   3.575   1.701 -0.4785 -0.8425 -0.9679
 9010SOL     OW37498   1.887   6.922   3.931 -0.3397 -0.0811 -0.0903
 9010SOL    HW137499   1.852   6.909   4.024 -0.9380  0.3336 -0.2505
 9010SOL    HW237500   1.987   6.915   3.931 -0.2856  0.6290  0.7059
 9011SOL     OW37501   4.430   3.700   1.292 -0.7594 -0.2295 -0.6745
 9011SOL    HW137502   4.469   3.704   1.384 -1.7453 -1.4158 -0.1791
 9011SOL    HW237503   4.371   3.779   1.277  0.6282  0.7737 -0.8671
 9012SOL     OW37504   1.273   6.613   1.255  0.3006 -0.2433  0.3396
 9012SOL    HW137505   1.253   6.534   1.312  1.4111 -1.4700 -0.9510
 9012SOL    HW237506   1.311   6.583   1.168 -0.5882  1.6432 -0.7392
 9013SOL     OW37507   4.635   0.346   1.636  0.1411  0.3451  0.2872
 9013SOL    HW137508   4.696   0.424   1.645  0.8821 -0.3478  1.4859
 9013SOL    HW237509   4.638   0.311   1.542  1.5768  0.3349  0.3239
 9014SOL     OW37510   1.817   3.467   2.638  0.5535  0.1323  0.1384
 9014SOL    HW137511   1.895   3.523   2.668 -0.1501  1.0525  0.2657
 9014SOL    HW237512   1.776   3.423   2.718  1.8290 -1.5274 -0.0956
 9015SOL     OW37513   9.152   7.196   4.033 -0.1619 -0.2707  0.1110
 9015SOL    HW137514   9.209   7.201   3.951  1.5873 -2.4000  1.1235
 9015SOL    HW237515   9.090   7.118   4.026  0.6522 -1.0297  1.1915
 9016SOL     OW37516   9.474   9.919   1.750 -0.6506  0.5450  0.1663
 9016SOL    HW137517   9.458  10.014   1.778  0.0595  0.3755  1.1692
 9016SOL    HW237518   9.417   9.898   1.671 -2.6665  1.0510  1.4635
 9017SOL     OW37519   8.582   8.593   2.707  0.3631  0.3022  0.0058
 9017SOL    HW137520   8.608   8.615   2.613 -0.9339  1.5920 -0.0591
 9017SOL    HW237521   8.492   8.549   2.708  1.3095 -1.6933  0.4676
 9018SOL     OW37522   3.046   5.415   2.636  0.8740 -0.0261  0.6099
 9018SOL    HW137523   2.964   5.472   2.634  1.0640  0.2318 -2.2625
 9018SOL    HW237524   3.035   5.344   2.705 -1.9765 -0.2677 -0.0107
 9019SOL     OW37525   1.338   6.461   1.035 -0.1632 -0.6713 -0.0498
 9019SOL    HW137526   1.405   6.394   1.004 -1.2687 -1.0388 -1.7616
 9019SOL    HW237527   1.292   6.501   0.955 -1.7282 -0.1887  1.0678
 9020SOL     OW37528   1.391   8.383   0.744  0.5437  0.5289  0.3094
 9020SOL    HW137529   1.439   8.381   0.656  1.7430  1.2463  0.9431
 9020SOL    HW237530   1.378   8.478   0.773  1.2952  0.2654  1.5258
 9021SOL     OW37531   5.562   8.278   2.008  0.0133 -0.0082  0.6770
 9021SOL    HW137532   5.639   8.264   2.069  0.8213 -0.7126 -0.4787
 9021SOL    HW237533   5.567   8.213   1.932 -1.4399  0.2707  0.3207
 9022SOL     OW37534   1.493   5.633   3.660  0.1301 -0.2753  0.0458
 9022SOL    HW137535   1.447   5.669   3.579  0.4304  0.0982  0.0410
 9022SOL    HW237536   1.425   5.615   3.732  0.1187  1.5822  0.5336
 9023SOL     OW37537   3.278   6.529   3.435 -0.0971 -0.8205  0.1095
 9023SOL    HW137538   3.253   6.625   3.450 -1.9197 -0.9844 -1.7028
 9023SOL    HW237539   3.378   6.520   3.437  0.1166  1.1616 -0.0369
 9024SOL     OW37540   2.338   5.006   2.020  0.4304  0.3940  0.7534
 9024SOL    HW137541   2.424   5.057   2.019  1.0826 -0.6995  0.0820
 9024SOL    HW237542   2.302   5.003   2.113  2.3461 -1.1479  1.4921
 9025SOL     OW37543   0.906   6.575   1.281 -0.4002  0.2470  0.2920
 9025SOL    HW137544   0.891   6.492   1.227 -0.5336 -0.9841  2.1749
 9025SOL    HW237545   0.938   6.648   1.221 -0.8146 -0.9920 -1.4973
 9026SOL     OW37546   8.472   0.441   0.347  0.3769  0.2036 -0.0806
 9026SOL    HW137547   8.526   0.363   0.377  0.0331 -0.1920 -0.4904
 9026SOL    HW237548   8.423   0.418   0.263 -0.2998  0.6064  0.1927
 9027SOL     OW37549   3.284   2.674   0.868 -0.2941 -0.0907  0.1759
 9027SOL    HW137550   3.193   2.634   0.861 -1.0985  1.7956 -0.3900
 9027SOL    HW237551   3.288   2.736   0.947  1.1488 -1.7486  1.4646
 9028SOL     OW37552   6.381   7.939   2.435 -0.1377 -0.1929 -0.5195
 9028SOL    HW137553   6.388   8.033   2.469  2.5938 -0.0456 -1.3195
 9028SOL    HW237554   6.449   7.882   2.483 -1.4760 -1.6704 -0.3527
 9029SOL     OW37555   2.109   0.847   4.538  0.1844  0.0463  0.5787
 9029SOL    HW137556   2.108   0.828   4.636 -1.5011 -0.6475  0.4479
 9029SOL    HW237557   2.128   0.763   4.487 -2.6503 -0.4393  0.1939
 9030SOL     OW37558   3.940   9.547   1.686  0.0702  0.3133 -0.1692
 9030SOL    HW137559   3.951   9.530   1.784 -0.1646  1.3610  0.0395
 9030SOL    HW237560   4.010   9.611   1.655 -0.4003  0.6576 -0.5135
 9031SOL     OW37561   8.909   5.589   1.059 -0.4672  0.5483 -0.1408
 9031SOL    HW137562   8.958   5.670   1.091 -0.7592  0.5987  0.1852
 9031SOL    HW237563   8.855   5.613   0.978 -0.1497  0.5531 -0.3509
 9032SOL     OW37564   3.168   7.533   2.266 -0.0546 -0.2332 -0.5093
 9032SOL    HW137565   3.092   7.585   2.304 -0.1340 -0.4002 -0.4381
 9032SOL    HW237566   3.189   7.456   2.327 -0.2895 -0.5942 -0.8769
 9033SOL     OW37567   0.241   7.263   0.978  0.4181  0.2371  0.4806
 9033SOL    HW137568   0.151   7.224   0.998  0.6404 -0.1616  0.7108
 9033SOL    HW237569   0.298   7.193   0.936 -0.2983  1.2671 -2.3062
 9034SOL     OW37570   1.738   9.235   0.216  0.1802  0.2958 -0.1740
 9034SOL    HW137571   1.652   9.187   0.199 -0.3507  1.3240 -0.4316
 9034SOL    HW237572   1.774   9.208   0.306 -0.3370 -0.2333 -0.1211
 9035SOL     OW37573   2.334   2.105   4.765 -0.1980  0.5788 -0.7867
 9035SOL    HW137574   2.263   2.138   4.827  0.2031 -0.0255  0.0070
 9035SOL    HW237575   2.379   2.025   4.805  0.9859  1.0055 -1.2453
 9036SOL     OW37576   1.372   3.974   2.021 -0.3609  0.5263  0.6590
 9036SOL    HW137577   1.468   3.976   1.990 -0.8304  2.2272 -0.7285
 9036SOL    HW237578   1.315   4.024   1.956 -2.6410 -2.7610  0.0050
 9037SOL     OW37579   1.081   6.310   4.319  0.2732  0.2739 -0.0951
 9037SOL    HW137580   1.033   6.266   4.395 -1.6749  1.3743 -0.6475
 9037SOL    HW237581   1.015   6.334   4.247  1.2705  3.7812  0.0373
 9038SOL     OW37582   0.547   9.205   4.516 -0.1264  0.0295  0.0320
 9038SOL    HW137583   0.586   9.215   4.424  0.3321  0.4959  0.2762
 9038SOL    HW237584   0.451   9.178   4.508 -0.3140  0.8730 -0.5917
 9039SOL     OW37585   9.013   0.159   0.837  0.3239 -0.4279 -0.4612
 9039SOL    HW137586   9.017   0.130   0.932  1.1910  0.8925 -0.0820
 9039SOL    HW237587   8.917   0.172   0.810  0.1032 -0.2344  0.4113
 9040SOL     OW37588   0.028   6.784   2.008 -0.4678  0.1283  0.0214
 9040SOL    HW137589   0.098   6.747   2.068 -0.0288  0.9250  0.0081
 9040SOL    HW237590  -0.062   6.752   2.038  0.0126 -2.2931 -1.0033
 9041SOL     OW37591   4.067   9.280   2.602 -0.3992 -0.5584 -0.1223
 9041SOL    HW137592   4.021   9.368   2.594  2.2330  0.8802  0.3008
 9041SOL    HW237593   4.059   9.231   2.515  0.6855  1.3892 -1.3565
 9042SOL     OW37594   4.294   1.670   0.682  0.0566  0.0841  0.3044
 9042SOL    HW137595   4.204   1.668   0.725 -0.7495 -0.2522 -1.3699
 9042SOL    HW237596   4.362   1.704   0.748 -0.9714 -1.3473  2.1364
 9043SOL     OW37597   7.774   7.899   2.080  0.2419 -0.1517  0.7007
 9043SOL    HW137598   7.863   7.864   2.110  0.9515  0.2287 -0.9454
 9043SOL    HW237599   7.724   7.826   2.034  0.1198 -0.0955  0.7444
 9044SOL     OW37600   7.003   8.320   3.563 -0.1843 -0.1832 -0.0306
 9044SOL    HW137601   7.072   8.259   3.525 -0.6490  0.1201 -1.3788
 9044SOL    HW237602   6.912   8.278   3.554 -0.2175 -0.4934  1.5556
 9045SOL     OW37603   0.644   9.187   1.343  0.1393 -0.6520 -0.0561
 9045SOL    HW137604   0.576   9.128   1.387 -0.7414 -0.6010 -1.3170
 9045SOL    HW237605   0.603   9.232   1.263  1.1500  0.7630  0.2073
 9046SOL     OW37606   4.507   9.287   1.760  0.4668  0.1496  0.4621
 9046SOL    HW137607   4.568   9.354   1.718  1.0732 -0.8701 -0.3019
 9046SOL    HW237608   4.422   9.281   1.707  1.4661 -1.5544 -0.9716
 9047SOL     OW37609   0.293   5.768   0.875 -0.3948  0.1587  0.1494
 9047SOL    HW137610   0.320   5.853   0.920  0.7394 -1.0973  1.8877
 9047SOL    HW237611   0.304   5.778   0.776 -0.3139  2.0382  0.3303
 9048SOL     OW37612   2.510   1.217   4.757 -0.0719  0.2735 -0.8466
 9048SOL    HW137613   2.456   1.220   4.673 -1.3766 -2.8009 -0.1916
 9048SOL    HW237614   2.479   1.289   4.819 -0.2583  1.4677 -2.2763
 9049SOL     OW37615   0.948   6.440   1.956  0.2711 -0.1662 -0.1161
 9049SOL    HW137616   0.896   6.522   1.935 -0.0477 -0.7818 -1.7709
 9049SOL    HW237617   1.017   6.425   1.886  2.5272  0.4621  1.8765
 9050SOL     OW37618   8.449   8.332   4.624  0.0289 -0.1482 -0.2939
 9050SOL    HW137619   8.368   8.382   4.653  0.1666  0.2668 -0.6262
 9050SOL    HW237620   8.522   8.343   4.693  0.1277  0.2752 -0.4672
 9051SOL     OW37621   8.680   5.592   2.014  0.1925 -0.5340 -0.2987
 9051SOL    HW137622   8.653   5.498   1.993 -0.2032 -0.7174  0.9565
 9051SOL    HW237623   8.664   5.650   1.935 -2.4182 -0.9348 -0.0916
 9052SOL     OW37624   3.022   2.990   4.198 -0.0276 -0.4849  0.3192
 9052SOL    HW137625   3.106   3.045   4.195  0.7203 -1.6485 -0.8890
 9052SOL    HW237626   2.982   2.994   4.289 -0.0771  2.1772  0.1957
 9053SOL     OW37627   3.736   8.317   1.507  0.4110  0.0260  0.1536
 9053SOL    HW137628   3.682   8.361   1.435  0.4034 -2.9705 -1.7709
 9053SOL    HW237629   3.831   8.346   1.500  0.3355  0.0518 -0.8286
 9054SOL     OW37630   0.593   1.232   4.687  0.7119 -0.3482 -0.5676
 9054SOL    HW137631   0.596   1.327   4.718  2.1810  0.2405 -2.4051
 9054SOL    HW237632   0.546   1.176   4.755  0.2123  1.6088  0.7403
 9055SOL     OW37633   7.853   9.446   2.285  0.6829 -0.5057 -0.1039
 9055SOL    HW137634   7.876   9.497   2.368 -2.4538 -3.3200  2.6670
 9055SOL    HW237635   7.785   9.497   2.232  3.0756  1.5406 -1.2731
 9056SOL     OW37636   3.247   3.608   4.309 -0.6474 -0.0435  0.3765
 9056SOL    HW137637   3.268   3.663   4.390 -3.0853 -1.3702  1.9548
 9056SOL    HW237638   3.285   3.516   4.321 -1.6572 -0.4677  0.3542
 9057SOL     OW37639   2.101   3.721   4.744 -0.2391 -0.1103  0.0252
 9057SOL    HW137640   2.018   3.767   4.777 -0.6447 -0.4062 -0.5918
 9057SOL    HW237641   2.130   3.762   4.658  0.5023  0.2791  0.4560
 9058SOL     OW37642   0.971   1.426   1.265 -0.3664  0.3917 -0.4434
 9058SOL    HW137643   0.919   1.342   1.248  0.0261  0.3287 -1.4121
 9058SOL    HW237644   0.909   1.498   1.296 -0.8186 -0.0540 -0.3070
 9059SOL     OW37645   9.238   0.998   1.726  0.1479 -0.1768 -0.2456
 9059SOL    HW137646   9.227   0.901   1.749  1.2723 -0.3326 -0.3275
 9059SOL    HW237647   9.197   1.054   1.798  0.1963 -0.7015  0.1927
 9060SOL     OW37648   1.365   9.754   0.532 -0.1931  0.1425  0.6584
 9060SOL    HW137649   1.358   9.788   0.626 -0.7440 -0.0930  0.7042
 9060SOL    HW237650   1.441   9.799   0.486 -1.3014  1.9377  0.5227
 9061SOL     OW37651   1.914   5.111   3.333 -0.1573 -0.6642  0.4704
 9061SOL    HW137652   1.924   5.089   3.430  1.6869  0.2056  0.5002
 9061SOL    HW237653   1.962   5.196   3.313 -3.3979  0.9946 -0.5566
 9062SOL     OW37654   3.219   8.115   0.020  0.1969  0.0946 -0.0817
 9062SOL    HW137655   3.233   8.137  -0.076 -0.8009 -1.8755 -0.7066
 9062SOL    HW237656   3.293   8.055   0.051 -0.2798 -0.4637 -0.0265
 9063SOL     OW37657   2.367   9.365   1.788 -0.2231  0.1641 -0.1635
 9063SOL    HW137658   2.386   9.338   1.882 -0.5698  0.2231 -0.0729
 9063SOL    HW237659   2.423   9.312   1.725  1.8848  1.8843  0.2007
 9064SOL     OW37660   2.255   3.440   2.658 -0.8113 -0.6834  0.0614
 9064SOL    HW137661   2.275   3.487   2.744  0.0959  0.0321 -0.5345
 9064SOL    HW237662   2.312   3.478   2.585 -0.1179 -2.6341 -0.4400
 9065SOL     OW37663   3.343   3.987   3.595 -0.1107 -0.1216 -0.0125
 9065SOL    HW137664   3.330   3.963   3.499 -1.5306  1.5091 -0.2392
 9065SOL    HW237665   3.264   3.955   3.648  0.2382 -0.2008  0.4630
 9066SOL     OW37666   1.046   1.822   2.142  0.4959 -0.3917  0.2996
 9066SOL    HW137667   0.997   1.735   2.138  0.2941 -0.2885  0.5584
 9066SOL    HW237668   1.139   1.806   2.174  0.9677 -0.7338 -1.1700
 9067SOL     OW37669   4.771   9.733   3.584  0.5420  0.7161 -0.1909
 9067SOL    HW137670   4.723   9.744   3.671 -0.8124 -1.9824 -0.5419
 9067SOL    HW237671   4.704   9.721   3.511  1.7015 -0.1192 -1.1338
 9068SOL     OW37672   2.440   8.707   3.534 -0.3815 -0.4049 -0.0010
 9068SOL    HW137673   2.401   8.618   3.559  1.3367 -1.0160  0.6290
 9068SOL    HW237674   2.534   8.694   3.503 -1.5815  0.6507 -4.4008
 9069SOL     OW37675   3.174   8.516   1.610  0.2761  0.3058 -0.3118
 9069SOL    HW137676   3.261   8.556   1.638  0.4894  0.6822 -1.4747
 9069SOL    HW237677   3.115   8.586   1.571 -0.3753 -0.0330  0.0498
 9070SOL     OW37678   1.963   7.849   3.518 -0.2840  0.5295 -0.3418
 9070SOL    HW137679   1.978   7.912   3.594 -0.4838 -0.5836  0.6412
 9070SOL    HW237680   2.034   7.778   3.519 -1.3646 -0.5570 -0.0743
 9071SOL     OW37681   7.166   9.678   4.656  0.2916  0.7777 -0.0777
 9071SOL    HW137682   7.079   9.686   4.706  0.7330 -1.4527  1.0964
 9071SOL    HW237683   7.237   9.730   4.704 -0.2090  2.0677 -0.6879
 9072SOL     OW37684   3.148   2.777   4.567 -0.0907 -0.3671  0.7090
 9072SOL    HW137685   3.202   2.773   4.482  0.3328  1.3294  0.8787
 9072SOL    HW237686   3.179   2.705   4.629 -0.1865 -1.4296 -0.4433
 9073SOL     OW37687   5.186   0.620   4.172  0.1505  0.0223  0.0483
 9073SOL    HW137688   5.249   0.546   4.198 -0.6142  0.0398  2.0342
 9073SOL    HW237689   5.170   0.678   4.252 -1.1921  0.9027 -0.8619
 9074SOL     OW37690   9.946   6.350   4.139 -0.2884 -0.3168  0.0491
 9074SOL    HW137691   9.936   6.327   4.235 -3.2692 -0.0928 -0.1305
 9074SOL    HW237692   9.919   6.446   4.125  0.9367 -0.0957 -0.8823
 9075SOL     OW37693   4.401   4.668   1.620  0.1536 -0.1781  0.3019
 9075SOL    HW137694   4.376   4.597   1.686 -2.4695 -0.6305 -1.1170
 9075SOL    HW237695   4.319   4.720   1.594  1.0881 -0.0834 -2.6666
 9076SOL     OW37696   3.685   0.749   0.856  0.2716 -0.6825 -0.3512
 9076SOL    HW137697   3.646   0.834   0.890 -0.2555 -1.5122  1.1485
 9076SOL    HW237698   3.612   0.690   0.823  0.3244 -1.8130  1.5027
 9077SOL     OW37699   3.238   9.779   0.471 -0.0147  0.2005 -0.3301
 9077SOL    HW137700   3.211   9.818   0.560  1.3231  0.7536 -0.1568
 9077SOL    HW237701   3.271   9.852   0.412 -1.8685 -0.0182 -1.6629
 9078SOL     OW37702   2.818   5.813   0.508  0.0733 -0.1694  0.4165
 9078SOL    HW137703   2.846   5.838   0.601  1.1167 -0.4482  0.1929
 9078SOL    HW237704   2.736   5.863   0.482 -0.4413 -0.3701  1.6333
 9079SOL     OW37705   9.829   5.345   3.969  0.1518 -0.5423 -0.2618
 9079SOL    HW137706   9.733   5.361   3.945 -0.0807 -0.6122  0.5999
 9079SOL    HW237707   9.864   5.266   3.917  0.0155  0.0364 -1.2488
 9080SOL     OW37708   8.392   7.910   0.980  0.6206  0.5103  0.2929
 9080SOL    HW137709   8.447   7.933   1.061  0.4357 -1.4644  0.9985
 9080SOL    HW237710   8.451   7.869   0.910  0.2629 -0.5672  0.6118
 9081SOL     OW37711   4.124   0.763   3.911  0.3258 -0.2322  0.3217
 9081SOL    HW137712   4.050   0.800   3.968  0.0962  0.9409 -0.7270
 9081SOL    HW237713   4.103   0.780   3.815  1.3850 -0.9827 -0.0453
 9082SOL     OW37714   0.657   1.341   1.518 -0.1926 -0.2756 -0.6567
 9082SOL    HW137715   0.696   1.433   1.518 -0.1644 -0.2547 -2.6575
 9082SOL    HW237716   0.726   1.275   1.549  0.2512  0.2072 -0.6164
 9083SOL     OW37717   1.231   8.121   3.736  1.1378  0.2228  0.1461
 9083SOL    HW137718   1.308   8.164   3.784 -0.7076  1.6045  1.9687
 9083SOL    HW237719   1.150   8.179   3.746 -0.2384 -1.3962 -1.4309
 9084SOL     OW37720   3.860   0.020   1.056  0.5946 -0.0272  0.0390
 9084SOL    HW137721   3.813   0.039   1.142 -1.8914 -1.8424 -0.8685
 9084SOL    HW237722   3.872  -0.079   1.045  2.6094  0.2883 -0.8350
 9085SOL     OW37723   7.754   7.538   1.132 -0.3870  0.4121  0.4131
 9085SOL    HW137724   7.787   7.584   1.215  1.8921 -2.1690  1.0051
 9085SOL    HW237725   7.828   7.534   1.065 -0.9198 -1.3125 -0.0805
 9086SOL     OW37726   0.580   9.782   3.250  0.1106  0.3359 -0.0607
 9086SOL    HW137727   0.493   9.747   3.283  0.0823 -0.1539 -0.6325
 9086SOL    HW237728   0.598   9.871   3.290 -1.3298  1.0699 -1.0183
 9087SOL     OW37729   1.262   5.698   0.196 -0.2231  0.2614  0.2879
 9087SOL    HW137730   1.246   5.681   0.099 -0.7964 -0.5347  0.5235
 9087SOL    HW237731   1.343   5.647   0.226 -1.4185 -1.3545  0.7821
 9088SOL     OW37732   5.271   9.151   2.076 -0.1439 -0.1627 -0.0144
 9088SOL    HW137733   5.212   9.207   2.134 -2.5084  0.7552 -3.1671
 9088SOL    HW237734   5.232   9.060   2.066  0.1327 -0.2475 -0.3406
 9089SOL     OW37735   8.282   7.924   2.523  0.1646 -0.1395 -0.0866
 9089SOL    HW137736   8.219   7.984   2.473 -0.6955 -0.5207  0.5277
 9089SOL    HW237737   8.285   7.950   2.619  1.5921  0.4007 -0.2770
 9090SOL     OW37738   3.322   9.952   3.482  0.0224  0.0281 -0.3699
 9090SOL    HW137739   3.284   9.860   3.487  0.3552 -0.1065 -0.2751
 9090SOL    HW237740   3.413   9.952   3.524 -0.5799  0.7198  0.9417
 9091SOL     OW37741   8.274   7.699   2.154 -0.3928 -0.3906  0.2264
 9091SOL    HW137742   8.334   7.761   2.205 -1.1355  0.5870 -0.0805
 9091SOL    HW237743   8.297   7.703   2.056  0.3664 -1.5189  0.3481
 9092SOL     OW37744   0.705   0.609   2.732  0.2955  0.4080 -0.0575
 9092SOL    HW137745   0.700   0.531   2.671 -0.8276  0.0275  0.5145
 9092SOL    HW237746   0.734   0.578   2.823  1.0219  0.8346 -0.1371
 9093SOL     OW37747   0.922   8.606   1.335  0.1229  0.3213 -0.1587
 9093SOL    HW137748   0.957   8.674   1.399  1.1578 -1.1677  0.8989
 9093SOL    HW237749   0.833   8.635   1.300 -0.0720  1.5534  1.3118
 9094SOL     OW37750   4.578   8.038   3.022  0.4421 -0.3822  0.0343
 9094SOL    HW137751   4.577   8.137   3.006  0.4180 -0.3438  0.2762
 9094SOL    HW237752   4.632   7.993   2.951 -0.8419 -0.3584 -0.9718
 9095SOL     OW37753   1.937   6.744   2.666 -0.1886 -0.6499  0.3011
 9095SOL    HW137754   1.889   6.765   2.751  1.6982  0.2682  1.1769
 9095SOL    HW237755   1.901   6.801   2.592 -1.0753 -0.6475  0.7233
 9096SOL     OW37756   0.198   9.996   1.142 -0.7984 -0.2365 -0.0824
 9096SOL    HW137757   0.262  10.070   1.167 -2.8495  0.7885  2.4139
 9096SOL    HW237758   0.234   9.945   1.064  2.2643  1.3366  0.2357
 9097SOL     OW37759   9.885   9.949   0.643 -0.4628 -0.1605  0.1690
 9097SOL    HW137760   9.967  10.005   0.657  0.0728 -0.9420  0.1590
 9097SOL    HW237761   9.804  10.006   0.657  0.0644 -0.0146  2.9228
 9098SOL     OW37762   5.863   9.874   2.099  0.4417  0.2919 -0.1371
 9098SOL    HW137763   5.866   9.776   2.080  0.4439  0.4370 -0.9149
 9098SOL    HW237764   5.831   9.923   2.017  0.6150  0.9520  0.1868
 9099SOL     OW37765   9.811   6.171   4.380 -0.1099  0.1230 -0.7442
 9099SOL    HW137766   9.765   6.090   4.416  0.2461  0.1124 -0.3089
 9099SOL    HW237767   9.908   6.169   4.408  0.1929  0.0551 -1.7903
 9100SOL     OW37768   3.541   2.216   2.589  0.3869 -0.2848  0.4213
 9100SOL    HW137769   3.559   2.305   2.546  0.3481 -1.6514 -2.5463
 9100SOL    HW237770   3.449   2.217   2.627 -1.2092 -0.3137 -3.1880
 9101SOL     OW37771   5.341   0.890   3.550  0.0513 -0.2676 -0.5984
 9101SOL    HW137772   5.354   0.907   3.453  1.2730  2.4746  0.0050
 9101SOL    HW237773   5.397   0.811   3.578  0.8470 -0.1407 -1.8107
 9102SOL     OW37774   3.507   9.182   2.474  0.0011  0.2828  0.0217
 9102SOL    HW137775   3.424   9.216   2.518 -0.0543  1.0570 -0.6716
 9102SOL    HW237776   3.483   9.110   2.409 -0.3715  1.9448 -1.7124
 9103SOL     OW37777   3.611   9.142   0.436  0.7382  0.5092 -0.0031
 9103SOL    HW137778   3.517   9.140   0.468  0.6985  2.1752  0.0545
 9103SOL    HW237779   3.672   9.155   0.515  1.1291 -2.0202  0.1282
 9104SOL     OW37780   8.571   7.406   1.249  0.1179 -0.0174  0.1762
 9104SOL    HW137781   8.546   7.317   1.209 -0.0016  0.1120 -0.0381
 9104SOL    HW237782   8.612   7.464   1.179  1.2634 -0.3202  0.5952
 9105SOL     OW37783   2.722   4.408   2.457 -0.6888 -0.3392  0.5762
 9105SOL    HW137784   2.782   4.342   2.500 -0.1974 -1.0517 -1.1638
 9105SOL    HW237785   2.697   4.479   2.523  1.6217 -0.3227  1.4517
 9106SOL     OW37786   2.708   8.368   2.405  0.6018  0.2726  0.9230
 9106SOL    HW137787   2.740   8.371   2.500 -0.9539  0.9599  1.4517
 9106SOL    HW237788   2.666   8.279   2.387 -0.8200  0.8173  1.4790
 9107SOL     OW37789   8.817   6.234   4.752 -0.1832 -0.2479 -0.0761
 9107SOL    HW137790   8.795   6.233   4.655 -0.4194 -0.6060 -0.0189
 9107SOL    HW237791   8.912   6.207   4.766 -0.1552 -0.2130 -0.2034
 9108SOL     OW37792   1.348   5.966   3.849  0.0681 -0.1126 -0.0576
 9108SOL    HW137793   1.304   5.987   3.937  1.0231 -0.0228  0.4045
 9108SOL    HW237794   1.319   5.876   3.819 -0.3292 -0.1122  0.3095
 9109SOL     OW37795   9.686   9.064   1.832  0.3553 -0.5374  0.0588
 9109SOL    HW137796   9.778   9.025   1.841  1.4087  1.4555 -1.7225
 9109SOL    HW237797   9.691   9.152   1.785 -2.2680  0.5006  1.5609
 9110SOL     OW37798   7.945   7.303   2.649  0.4168 -0.8953  0.1840
 9110SOL    HW137799   7.972   7.236   2.579 -0.2552 -0.3066 -0.6427
 9110SOL    HW237800   8.006   7.382   2.644  0.0274 -0.6137 -0.0978
 9111SOL     OW37801   1.535   3.021   2.807 -0.3278  0.1377  0.0932
 9111SOL    HW137802   1.612   2.957   2.801  0.1884  0.7936 -0.3630
 9111SOL    HW237803   1.499   3.021   2.900  2.0894  1.9574  1.0856
 9112SOL     OW37804   4.638   3.230   0.824 -0.0923  0.5314 -0.8039
 9112SOL    HW137805   4.669   3.273   0.909 -1.2714  0.6226 -0.4102
 9112SOL    HW237806   4.626   3.132   0.839  1.5827  0.2061 -1.4159
 9113SOL     OW37807   2.314   6.043   0.443 -0.4238 -0.1424  0.2629
 9113SOL    HW137808   2.261   6.053   0.527 -0.9621  1.2861 -0.2189
 9113SOL    HW237809   2.260   6.077   0.366  0.8436  0.4816 -0.3660
 9114SOL     OW37810   1.900   8.844   4.751  0.0692 -0.0786 -0.3474
 9114SOL    HW137811   1.953   8.813   4.672 -0.1094 -1.7425  0.1752
 9114SOL    HW237812   1.958   8.846   4.832  0.0475  0.8547 -0.3488
 9115SOL     OW37813   1.322   3.739   4.742  0.6205 -0.3430 -0.5402
 9115SOL    HW137814   1.335   3.683   4.824  3.0656 -0.3236 -0.8553
 9115SOL    HW237815   1.344   3.834   4.763 -1.4471  0.1483 -0.5445
 9116SOL     OW37816   2.661   1.415   2.507 -0.2546  0.6659  0.3129
 9116SOL    HW137817   2.562   1.400   2.510  0.1142 -1.8370  1.1667
 9116SOL    HW237818   2.686   1.484   2.576 -1.1897 -0.0356  1.3705
 9117SOL     OW37819   3.331   6.701   2.495 -0.1539 -0.4349 -0.3004
 9117SOL    HW137820   3.428   6.713   2.518 -0.4836 -0.0839  0.8967
 9117SOL    HW237821   3.316   6.731   2.401  0.7767  0.1212 -0.2808
 9118SOL     OW37822   0.997   3.611   4.646  0.1320 -0.3553  0.2531
 9118SOL    HW137823   0.936   3.535   4.624 -0.6259  0.1626  0.5501
 9118SOL    HW237824   1.091   3.585   4.623 -0.3936 -0.5011 -1.9013
 9119SOL     OW37825   1.162   8.807   4.542 -0.2982  0.3442  0.5732
 9119SOL    HW137826   1.100   8.739   4.503 -0.9100  2.3141 -2.0056
 9119SOL    HW237827   1.109   8.874   4.594 -0.1666  1.0743 -0.2203
 9120SOL     OW37828   2.972   6.988   1.071  0.3004 -0.8071 -0.4930
 9120SOL    HW137829   2.946   6.927   1.146  0.3101 -0.8882 -0.5559
 9120SOL    HW237830   2.940   6.951   0.984 -0.9194 -0.0271 -0.3967
 9121SOL     OW37831   4.031   7.870   0.171 -0.2749 -0.0032 -0.1033
 9121SOL    HW137832   3.992   7.961   0.180  0.5981  0.3692  0.0249
 9121SOL    HW237833   4.012   7.833   0.080 -1.6802 -0.2009  0.2658
 9122SOL     OW37834   2.943   5.886   2.503 -0.1359 -0.2530 -0.6157
 9122SOL    HW137835   2.879   5.850   2.572  0.5818 -0.5760 -0.1132
 9122SOL    HW237836   3.036   5.880   2.538  0.1032  0.9923 -1.0105
 9123SOL     OW37837   9.451   6.767   3.985  0.5198 -0.0148 -0.0590
 9123SOL    HW137838   9.391   6.844   3.964 -0.4444 -0.8191 -0.3263
 9123SOL    HW237839   9.462   6.760   4.084  1.9433  1.4482 -0.0959
 9124SOL     OW37840   3.350   1.704   3.545 -0.5186  0.0677  0.0571
 9124SOL    HW137841   3.339   1.686   3.448 -0.0703 -2.2383  0.3962
 9124SOL    HW237842   3.426   1.648   3.580 -1.8846 -0.5623  2.0948
 9125SOL     OW37843   2.849   5.800   1.491  0.2093  0.7206  0.0887
 9125SOL    HW137844   2.915   5.874   1.471 -0.3434  1.9658  2.6711
 9125SOL    HW237845   2.771   5.838   1.540 -0.4220 -1.5091  0.8370
 9126SOL     OW37846   4.988   6.915   2.582 -0.3021 -0.0092  0.3161
 9126SOL    HW137847   4.975   7.014   2.591 -0.4336  0.0339 -0.3856
 9126SOL    HW237848   4.911   6.875   2.534 -0.1762 -0.4390  0.4698
 9127SOL     OW37849   0.251   8.995   1.618  0.0087  0.8100  0.5665
 9127SOL    HW137850   0.153   8.978   1.611  0.1264  0.0958  0.6297
 9127SOL    HW237851   0.269   9.093   1.607 -0.6562  0.8678 -0.0142
 9128SOL     OW37852   3.591   3.235   0.444 -0.9099  0.1667 -0.1128
 9128SOL    HW137853   3.530   3.161   0.473 -0.4453 -0.3711 -0.4938
 9128SOL    HW237854   3.624   3.284   0.525 -1.1350 -0.1085  0.1507
 9129SOL     OW37855   3.741   9.869   4.143  0.0898 -0.4037 -0.6944
 9129SOL    HW137856   3.773   9.952   4.190 -0.6827  0.5127 -1.7495
 9129SOL    HW237857   3.729   9.795   4.210  1.6592  0.0615  0.1226
 9130SOL     OW37858   0.160   6.885   0.886 -0.0380  0.4240 -0.0897
 9130SOL    HW137859   0.087   6.952   0.899 -1.9191 -1.3429 -1.2490
 9130SOL    HW237860   0.150   6.810   0.952  0.2385 -0.2418 -0.7954
 9131SOL     OW37861   2.970   2.901   3.935 -0.0341  0.2145 -0.0599
 9131SOL    HW137862   3.046   2.924   3.875 -1.1748 -1.1371 -2.0897
 9131SOL    HW237863   2.994   2.921   4.030  1.7989  2.3987 -0.9574
 9132SOL     OW37864   2.043   4.704   1.863 -0.1340  0.2482 -0.1568
 9132SOL    HW137865   2.120   4.665   1.913 -0.7415  0.5366  1.0193
 9132SOL    HW237866   1.958   4.686   1.912 -0.9645 -1.0424 -2.0092
 9133SOL     OW37867   4.752   1.968   2.018  0.2411 -0.7690 -0.0108
 9133SOL    HW137868   4.760   1.892   1.955  0.1804 -1.5433  0.9103
 9133SOL    HW237869   4.804   2.046   1.983 -0.4827 -0.9156 -1.4255
 9134SOL     OW37870   2.208   7.469   3.957 -0.0880  0.1408  0.0241
 9134SOL    HW137871   2.140   7.542   3.953 -0.2442  0.1086  1.7676
 9134SOL    HW237872   2.288   7.500   4.009 -0.0986 -0.8797  0.6621
 9135SOL     OW37873   4.857   1.436   1.830 -0.5248  0.0487 -0.1401
 9135SOL    HW137874   4.780   1.405   1.887 -0.1266  0.5864  0.7066
 9135SOL    HW237875   4.840   1.412   1.735 -0.0835 -3.0621  0.5257
 9136SOL     OW37876   2.076   0.294   0.290  0.2799  0.2439 -0.5793
 9136SOL    HW137877   2.128   0.226   0.342  1.1230  0.8768 -0.5890
 9136SOL    HW237878   1.989   0.254   0.260  0.5810 -0.6867 -0.2173
 9137SOL     OW37879   1.250   3.728   0.577 -0.0950 -0.2667  0.5467
 9137SOL    HW137880   1.314   3.804   0.563 -0.3010  0.1505  1.8885
 9137SOL    HW237881   1.167   3.744   0.523  0.7188 -0.5895 -0.8467
 9138SOL     OW37882   3.195   2.812   3.229 -0.2149  0.6921  0.3263
 9138SOL    HW137883   3.214   2.909   3.210  2.5065 -0.1059 -1.3274
 9138SOL    HW237884   3.150   2.804   3.318 -0.6329  3.4714  0.4371
 9139SOL     OW37885   3.890   4.517   3.912 -0.8075  0.3237  0.3750
 9139SOL    HW137886   3.817   4.506   3.980 -1.4425 -1.0369 -0.5199
 9139SOL    HW237887   3.864   4.588   3.846 -1.9597 -1.1488 -0.7691
 9140SOL     OW37888   0.538   2.825   3.266 -0.0180 -0.2295  0.1943
 9140SOL    HW137889   0.476   2.829   3.344  0.9566 -1.5156  1.0729
 9140SOL    HW237890   0.596   2.907   3.265 -0.8595  0.3633  0.1148
 9141SOL     OW37891   2.617   0.322   1.939  0.0716  0.4016  0.1753
 9141SOL    HW137892   2.557   0.397   1.909  0.9432  0.6910 -0.8662
 9141SOL    HW237893   2.574   0.274   2.015 -1.5547  0.5388 -0.6311
 9142SOL     OW37894   7.229   7.891   1.334  0.1720  0.1640 -0.7218
 9142SOL    HW137895   7.240   7.989   1.314  1.3626  0.1109 -0.3857
 9142SOL    HW237896   7.319   7.850   1.346 -0.4014 -0.2197  2.7647
 9143SOL     OW37897   5.936   7.407   2.734  0.2216 -0.1268 -0.5682
 9143SOL    HW137898   5.895   7.316   2.739  1.9964 -0.9972 -1.2363
 9143SOL    HW237899   5.869   7.472   2.701 -1.5789 -0.8615  1.5010
 9144SOL     OW37900   1.467   8.162   1.427 -0.6601 -0.2163  0.6962
 9144SOL    HW137901   1.469   8.063   1.441 -1.8019 -0.3230  0.0845
 9144SOL    HW237902   1.495   8.207   1.512 -0.1829 -1.0589  0.9948
 9145SOL     OW37903   1.268   0.828   2.338  0.8357  0.2112  0.5929
 9145SOL    HW137904   1.219   0.774   2.406  1.1384  0.7179  1.2238
 9145SOL    HW237905   1.332   0.890   2.385  0.2640  1.3358 -0.1010
 9146SOL     OW37906   8.146   0.298   1.778  0.1049  0.3302  0.8499
 9146SOL    HW137907   8.085   0.265   1.851 -1.9710  1.2716 -0.4013
 9146SOL    HW237908   8.090   0.333   1.702  2.2465  1.9301 -0.0115
 9147SOL     OW37909   2.411   9.158   2.464  0.4741 -0.3495  0.0359
 9147SOL    HW137910   2.414   9.058   2.462  1.1515 -0.3157 -2.3360
 9147SOL    HW237911   2.317   9.188   2.448  0.4535 -0.6039 -0.3496
 9148SOL     OW37912   1.967   7.119   1.808 -0.2201  0.4643 -0.4103
 9148SOL    HW137913   2.014   7.032   1.817 -2.4431 -0.8084 -0.7969
 9148SOL    HW237914   1.954   7.160   1.898 -1.2985 -0.7534 -0.0116
 9149SOL     OW37915   9.647   4.936   0.225 -0.5662 -0.1900  0.1235
 9149SOL    HW137916   9.692   4.847   0.215  0.3070  0.2093  0.4078
 9149SOL    HW237917   9.576   4.930   0.296 -0.2366 -0.5589  0.4261
 9150SOL     OW37918   0.850   2.173   4.341 -0.1952 -0.8387 -0.3657
 9150SOL    HW137919   0.899   2.152   4.257  0.7386 -0.1278 -0.0031
 9150SOL    HW237920   0.754   2.195   4.319  0.5061  1.2734 -1.4655
 9151SOL     OW37921   0.637   1.416   3.608  0.2463  0.1848  0.1250
 9151SOL    HW137922   0.594   1.498   3.569  1.2611 -0.2338 -1.9365
 9151SOL    HW237923   0.717   1.442   3.661  0.3842  0.5416 -0.2586
 9152SOL     OW37924   3.212   2.477   0.313 -0.3770 -0.2869  0.0834
 9152SOL    HW137925   3.171   2.548   0.370 -0.0641  0.6448 -0.8361
 9152SOL    HW237926   3.141   2.434   0.257 -0.8685 -1.9316  1.9007
 9153SOL     OW37927   9.805   0.590   1.565 -0.2755  0.3919 -0.4827
 9153SOL    HW137928   9.781   0.686   1.573  2.7158  1.3215 -2.0208
 9153SOL    HW237929   9.875   0.567   1.633  0.0776 -0.3483 -1.0883
 9154SOL     OW37930   9.122   8.285   0.741 -0.5049  0.1556 -0.0999
 9154SOL    HW137931   9.150   8.234   0.660 -0.5246 -0.2889  0.1707
 9154SOL    HW237932   9.144   8.232   0.823 -0.7134  0.4895  0.1747
 9155SOL     OW37933   0.798   3.900   4.617  0.2560 -0.0902 -0.5489
 9155SOL    HW137934   0.838   3.834   4.680 -0.3973 -2.0654 -2.1484
 9155SOL    HW237935   0.702   3.917   4.642  0.0654 -0.6979 -0.8492
 9156SOL     OW37936   2.469   0.005   1.298  0.3725  0.2033  0.3199
 9156SOL    HW137937   2.387   0.060   1.280  1.0793  1.2631  0.2716
 9156SOL    HW237938   2.443  -0.088   1.322 -0.9202  0.9923  2.0658
 9157SOL     OW37939   3.724   3.967   4.022 -0.3419  0.6802 -0.1686
 9157SOL    HW137940   3.761   3.895   3.964  1.3569  1.1507  0.2897
 9157SOL    HW237941   3.660   3.928   4.088 -0.4208 -0.2092 -0.7772
 9158SOL     OW37942   9.283   6.343   0.597 -0.3185 -0.2178  0.1553
 9158SOL    HW137943   9.294   6.267   0.532 -2.0477 -0.3628  0.0185
 9158SOL    HW237944   9.216   6.318   0.667  1.2226  0.0968  1.7851
 9159SOL     OW37945   8.889   0.121   4.637 -0.2211 -0.8678  0.1920
 9159SOL    HW137946   8.900   0.213   4.675  0.3027 -0.6385 -0.5174
 9159SOL    HW237947   8.849   0.061   4.707 -0.6516 -0.0823  0.6223
 9160SOL     OW37948   1.568   0.989   0.445 -0.2839  0.3037  0.5495
 9160SOL    HW137949   1.523   1.079   0.444  0.2142  0.5765  1.7187
 9160SOL    HW237950   1.661   0.998   0.481 -0.3502 -0.7424  1.0038
 9161SOL     OW37951   1.858   4.954   0.397  0.9026  0.2519 -0.2423
 9161SOL    HW137952   1.796   5.029   0.376  2.4256  1.1971 -1.3821
 9161SOL    HW237953   1.806   4.878   0.436 -0.6302  1.9382  1.0772
 9162SOL     OW37954   2.729   1.465   0.645 -0.4838 -0.0751 -0.0130
 9162SOL    HW137955   2.814   1.501   0.609  0.5718 -1.1864  1.3279
 9162SOL    HW237956   2.674   1.539   0.684 -1.3439  1.0620 -3.1671
 9163SOL     OW37957   6.145   8.895   3.779 -0.1235 -0.0382  0.0850
 9163SOL    HW137958   6.189   8.970   3.828  1.3129 -0.0012 -1.2156
 9163SOL    HW237959   6.082   8.933   3.711  0.1573 -0.0257 -0.1674
 9164SOL     OW37960   0.882   3.271   0.182  0.4392 -0.3968 -0.3399
 9164SOL    HW137961   0.816   3.238   0.250 -0.5473 -0.5259 -1.3571
 9164SOL    HW237962   0.882   3.371   0.181  0.2004 -0.3973 -0.3952
 9165SOL     OW37963   9.582   5.483   4.341 -0.3953 -0.2381 -0.1840
 9165SOL    HW137964   9.500   5.495   4.285 -0.5567 -0.1062  0.0834
 9165SOL    HW237965   9.660   5.464   4.281 -0.7884 -1.2580 -0.3746
 9166SOL     OW37966   3.778   9.837   1.843  0.1705  0.0447 -0.6042
 9166SOL    HW137967   3.842   9.787   1.902  2.4921 -0.0112 -3.1040
 9166SOL    HW237968   3.770   9.931   1.875  0.3146 -0.3522  0.6358
 9167SOL     OW37969   9.295   8.968   2.251  0.2711  0.3977  0.5481
 9167SOL    HW137970   9.336   9.058   2.238  0.1014  0.2914 -0.7816
 9167SOL    HW237971   9.292   8.919   2.163 -1.4218 -0.1359  0.8775
 9168SOL     OW37972   2.526   2.014   4.070  0.1799 -0.3456 -0.5224
 9168SOL    HW137973   2.561   1.988   4.160 -1.0683  0.3934  0.1972
 9168SOL    HW237974   2.568   2.101   4.043  0.4131 -0.4724 -0.5716
 9169SOL     OW37975   3.000   8.006   2.232 -0.1780  0.8880 -0.0022
 9169SOL    HW137976   3.055   8.009   2.149 -0.7234 -0.2733 -0.4208
 9169SOL    HW237977   3.005   7.915   2.273 -2.1953  0.6066 -0.3374
 9170SOL     OW37978   1.824   4.183   0.954  0.0503 -0.0321 -0.1477
 9170SOL    HW137979   1.776   4.220   0.874 -1.7810 -0.8877  0.5152
 9170SOL    HW237980   1.764   4.117   1.000  1.5439 -0.4223  1.2518
 9171SOL     OW37981   0.469   8.946   1.388 -0.3263 -0.1648 -0.3832
 9171SOL    HW137982   0.439   8.947   1.292 -0.7309 -0.1687 -0.2569
 9171SOL    HW237983   0.390   8.949   1.448 -0.0357  1.4288 -0.0442
 9172SOL     OW37984   3.647   9.009   3.056  0.9666  0.3141 -0.2716
 9172SOL    HW137985   3.611   8.983   2.967  0.9298 -1.1524  0.1533
 9172SOL    HW237986   3.732   9.060   3.045  0.9716  0.1106 -1.1459
 9173SOL     OW37987   1.970   9.317   3.054  0.2679 -0.5807  0.1784
 9173SOL    HW137988   2.063   9.316   3.016  0.4625 -1.9304  0.6815
 9173SOL    HW237989   1.918   9.392   3.012  0.3759 -2.2238 -3.0420
 9174SOL     OW37990   9.202   6.603   1.194 -0.0515 -0.2676  0.1456
 9174SOL    HW137991   9.188   6.560   1.105 -0.5111  1.2954 -0.5357
 9174SOL    HW237992   9.139   6.562   1.261  0.5556 -1.7049 -0.1375
 9175SOL     OW37993   3.392   5.155   4.498 -0.3969  0.5560 -0.8242
 9175SOL    HW137994   3.450   5.149   4.417  0.4226 -2.8005 -0.0670
 9175SOL    HW237995   3.449   5.173   4.578 -0.4004 -2.1325 -0.1661
 9176SOL     OW37996   9.684   7.526   4.097 -0.0222 -0.5010  1.0527
 9176SOL    HW137997   9.652   7.579   4.018  0.9228 -0.4235  0.7146
 9176SOL    HW237998   9.606   7.501   4.154 -0.6673 -0.1961  0.3137
 9177SOL     OW37999   9.256   8.432   2.900  0.2164 -0.0246  0.1991
 9177SOL    HW138000   9.259   8.369   2.823  0.5103  0.5427 -0.2614
 9177SOL    HW238001   9.349   8.454   2.930  0.0978 -0.6016  1.0176
 9178SOL     OW38002   9.563   8.343   4.689  0.1565  0.2229 -0.1798
 9178SOL    HW138003   9.650   8.297   4.675 -0.0074 -0.3194  0.5563
 9178SOL    HW238004   9.544   8.351   4.787  0.1767  1.8615 -0.2948
 9179SOL     OW38005   4.155   9.713   1.605  0.6025 -0.1025 -0.2087
 9179SOL    HW138006   4.224   9.769   1.651  0.6459 -0.5042  0.2143
 9179SOL    HW238007   4.106   9.769   1.538  0.1507  0.6310  0.7285
 9180SOL     OW38008   4.882   4.626   0.755  0.5170  0.1083 -0.0302
 9180SOL    HW138009   4.966   4.666   0.789  0.3523  1.4331 -1.1489
 9180SOL    HW238010   4.828   4.696   0.708 -1.1481 -0.7445  0.5529
 9181SOL     OW38011   3.944   3.991   3.211 -0.1316 -0.1891 -0.4507
 9181SOL    HW138012   3.907   4.081   3.229 -0.4250 -0.8065  2.2479
 9181SOL    HW238013   3.875   3.921   3.232  1.4475 -1.2019  1.5688
 9182SOL     OW38014   6.853   9.321   1.932 -0.3653 -0.0098  0.1968
 9182SOL    HW138015   6.760   9.290   1.914 -0.1865 -0.4073 -0.0505
 9182SOL    HW238016   6.864   9.340   2.029 -0.0011 -2.3430  0.6419
 9183SOL     OW38017   8.012   9.359   0.594 -0.3391 -0.1466 -0.3504
 9183SOL    HW138018   7.947   9.384   0.522  0.2030 -0.4867 -0.9652
 9183SOL    HW238019   7.975   9.385   0.683 -0.5260  1.2894 -0.8433
 9184SOL     OW38020   0.639   0.028   2.485  0.5064  0.1593 -0.2365
 9184SOL    HW138021   0.570   0.015   2.556  1.5513  2.4523  1.2662
 9184SOL    HW238022   0.724   0.059   2.527  1.8698 -0.7191 -2.2737
 9185SOL     OW38023   8.542   9.024   3.974  0.0606  0.0131  0.0351
 9185SOL    HW138024   8.628   8.994   3.932 -0.4618 -2.8963  0.9514
 9185SOL    HW238025   8.531   9.122   3.960  3.5087  0.4356 -0.1117
 9186SOL     OW38026   3.616   7.287   4.208  0.2170  0.1078 -0.1990
 9186SOL    HW138027   3.608   7.188   4.198  0.1124  0.1748 -0.8021
 9186SOL    HW238028   3.663   7.308   4.293  0.7175 -0.4767 -0.3241
 9187SOL     OW38029   3.249   4.076   4.611  0.0838  0.3577 -0.8263
 9187SOL    HW138030   3.286   4.134   4.539  3.0623  3.6454  3.1109
 9187SOL    HW238031   3.167   4.118   4.649  0.5930  0.5122  0.1115
 9188SOL     OW38032   8.089   7.266   1.722  0.0349 -0.4644 -0.5695
 9188SOL    HW138033   8.111   7.339   1.787 -0.4736 -0.0107 -0.9050
 9188SOL    HW238034   8.083   7.179   1.771  0.3513 -0.2374 -0.1214
 9189SOL     OW38035   8.940   8.208   3.233  0.3540 -0.2467  0.2203
 9189SOL    HW138036   8.852   8.166   3.256  0.8896 -0.6136  1.6758
 9189SOL    HW238037   8.927   8.276   3.160 -0.7070 -2.1069 -1.3608
 9190SOL     OW38038   5.428   7.296   2.552 -0.3494 -0.3895  0.1785
 9190SOL    HW138039   5.361   7.230   2.587  0.6236 -1.3027  0.3745
 9190SOL    HW238040   5.391   7.343   2.472 -0.7912 -1.6970 -0.4014
 9191SOL     OW38041   3.510   8.447   1.883 -0.3533  0.1134  0.3288
 9191SOL    HW138042   3.418   8.453   1.922 -0.4207  0.9958  0.0394
 9191SOL    HW238043   3.508   8.389   1.802 -0.6823  0.2605  0.2321
 9192SOL     OW38044   7.040   9.662   0.317  0.0741  0.8431  0.3420
 9192SOL    HW138045   7.063   9.752   0.355  0.8969  0.0306  1.8029
 9192SOL    HW238046   6.989   9.610   0.386  1.5587 -0.6388  0.3411
 9193SOL     OW38047   4.043   0.346   3.626 -0.5519  0.4905 -0.5154
 9193SOL    HW138048   4.063   0.432   3.579  0.7448  0.3917 -0.1637
 9193SOL    HW238049   4.014   0.365   3.719 -1.0058  0.5810 -0.6739
 9194SOL     OW38050   3.449   1.183   3.841 -0.8737  0.8723 -0.4241
 9194SOL    HW138051   3.473   1.152   3.749  2.2267  2.9001 -0.3762
 9194SOL    HW238052   3.378   1.253   3.835 -0.9180  0.7655 -1.2615
 9195SOL     OW38053   9.174   6.124   3.791 -0.2088  0.0738 -0.2847
 9195SOL    HW138054   9.244   6.132   3.862 -0.3400 -0.2643 -0.1173
 9195SOL    HW238055   9.135   6.214   3.772 -0.5762  0.0755  0.4806
 9196SOL     OW38056   0.870   5.482   4.420  0.1133  0.1518 -0.2836
 9196SOL    HW138057   0.853   5.514   4.513  0.3533  0.5770 -0.3876
 9196SOL    HW238058   0.801   5.414   4.395 -0.3982  0.5894 -0.0665
 9197SOL     OW38059   7.960   7.896   4.751 -0.5526 -0.1448  0.0309
 9197SOL    HW138060   7.863   7.908   4.770 -0.4842  0.1978  0.1727
 9197SOL    HW238061   7.972   7.861   4.658 -0.7546  0.9907 -0.4308
 9198SOL     OW38062   0.617   9.041   2.670 -0.4408 -0.4865 -0.2750
 9198SOL    HW138063   0.572   9.108   2.729 -1.5433 -1.9879  0.6192
 9198SOL    HW238064   0.648   8.964   2.725  0.2770 -0.9961 -1.3823
 9199SOL     OW38065   0.348   4.660   2.825 -0.2345  0.4865  0.1972
 9199SOL    HW138066   0.439   4.696   2.804  0.1000 -0.5430 -0.1934
 9199SOL    HW238067   0.355   4.562   2.846 -1.2290  0.4283  0.2940
 9200SOL     OW38068   2.904   7.189   1.950 -0.2019  0.2052  0.6544
 9200SOL    HW138069   2.812   7.229   1.949 -0.2288  0.1510  1.0662
 9200SOL    HW238070   2.969   7.257   1.983  0.3396  1.1735 -2.2888
 9201SOL     OW38071   7.278   8.180   3.534  0.2338 -0.0956  0.1962
 9201SOL    HW138072   7.304   8.201   3.628  0.2402  0.1322  0.1438
 9201SOL    HW238073   7.345   8.118   3.494 -0.2424 -0.9085  0.6318
 9202SOL     OW38074   8.201   7.489   3.702 -0.5321  0.4657 -0.3213
 9202SOL    HW138075   8.214   7.412   3.640 -0.3516  0.4981 -0.3227
 9202SOL    HW238076   8.289   7.529   3.725 -0.3370 -1.2136  2.1012
 9203SOL     OW38077   2.283   2.865   3.978 -1.0407 -0.2218 -0.2666
 9203SOL    HW138078   2.279   2.838   4.074  0.9206 -2.3352 -0.7284
 9203SOL    HW238079   2.194   2.851   3.935 -1.8699  0.5488  1.1713
 9204SOL     OW38080   9.351   6.191   4.638  0.2728 -0.0644  0.0959
 9204SOL    HW138081   9.409   6.248   4.696 -0.9854  1.6610 -0.2999
 9204SOL    HW238082   9.345   6.099   4.677  0.8522  0.5770  1.7554
 9205SOL     OW38083   4.340   0.801   3.048  0.1261  0.3004  0.0505
 9205SOL    HW138084   4.306   0.837   2.961 -0.5665  0.2472  0.2925
 9205SOL    HW238085   4.262   0.771   3.104  0.5042  1.1217  1.0301
 9206SOL     OW38086   7.812   6.923   3.850  0.0770 -0.3968  0.3776
 9206SOL    HW138087   7.877   6.984   3.806  0.7236 -0.2611  1.4996
 9206SOL    HW238088   7.819   6.832   3.811  1.6334 -0.6263  1.1551
 9207SOL     OW38089   8.244   6.313   0.352  0.1902 -0.0073 -0.2040
 9207SOL    HW138090   8.268   6.379   0.281  0.2477  1.3289  1.0324
 9207SOL    HW238091   8.148   6.323   0.376  0.3468  0.0385  0.4076
 9208SOL     OW38092   0.850   8.950   0.985 -0.1293 -0.0949 -0.0606
 9208SOL    HW138093   0.814   8.888   0.915 -0.8539 -1.7433  1.7076
 9208SOL    HW238094   0.948   8.965   0.971 -0.2863 -0.3535 -1.4448
 9209SOL     OW38095   0.972   1.581   2.722 -0.4321 -0.4111  0.5412
 9209SOL    HW138096   1.003   1.509   2.784  0.2832 -2.0113 -1.5977
 9209SOL    HW238097   0.897   1.546   2.666 -0.3668  0.6392 -0.2108
 9210SOL     OW38098   3.665   5.195   1.515 -0.2574  0.5175  0.1107
 9210SOL    HW138099   3.689   5.252   1.594  0.1808  0.8701 -0.2788
 9210SOL    HW238100   3.599   5.126   1.544  1.0624 -0.3426  1.1512
 9211SOL     OW38101   4.860   0.132   3.085 -0.5544 -0.5418 -0.4849
 9211SOL    HW138102   4.893   0.222   3.113 -2.6580  0.2936 -0.5676
 9211SOL    HW238103   4.857   0.128   2.985  1.0871 -1.2980 -0.5087
 9212SOL     OW38104   1.909   1.076   1.638 -0.6981 -0.0340  0.5231
 9212SOL    HW138105   1.948   1.167   1.656 -0.5648 -0.1757  0.9732
 9212SOL    HW238106   1.857   1.046   1.718  0.0186 -0.7426  0.7284
 9213SOL     OW38107   2.273   2.810   4.513 -0.1787 -0.2796  0.1284
 9213SOL    HW138108   2.252   2.739   4.580 -0.3861 -0.9984 -0.6861
 9213SOL    HW238109   2.187   2.848   4.477 -0.0700  0.4516  0.6244
 9214SOL     OW38110   1.576   1.727   2.447 -0.0640  0.4837 -0.2684
 9214SOL    HW138111   1.675   1.728   2.457 -0.4018  2.1665  3.4318
 9214SOL    HW238112   1.534   1.699   2.533 -2.8770  1.3850 -1.3079
 9215SOL     OW38113   8.166   6.327   2.605  0.0688 -0.5920 -0.3941
 9215SOL    HW138114   8.080   6.289   2.639 -1.0950  1.4473 -0.9973
 9215SOL    HW238115   8.196   6.401   2.666  1.6090 -1.5259  0.0186
 9216SOL     OW38116   2.011   1.263   3.760 -0.1589  0.5677 -0.4565
 9216SOL    HW138117   2.040   1.346   3.807 -0.8793  0.8371 -0.4820
 9216SOL    HW238118   2.003   1.189   3.826 -2.5793  1.2986  0.1182
 9217SOL     OW38119   9.163   5.720   1.401  0.4193  0.4804  0.0958
 9217SOL    HW138120   9.231   5.775   1.450  1.6986  0.5034 -1.6442
 9217SOL    HW238121   9.150   5.633   1.449  0.3659  1.1909  1.3951
 9218SOL     OW38122   8.645   8.401   1.877  0.1809  0.0989  0.1537
 9218SOL    HW138123   8.687   8.458   1.807 -0.7614  1.2037  0.4716
 9218SOL    HW238124   8.636   8.307   1.843 -0.4967  0.6787 -1.3020
 9219SOL     OW38125   2.299   1.994   1.023 -0.0991 -0.0181 -0.2779
 9219SOL    HW138126   2.208   1.953   1.022 -1.7440  3.4481 -0.8622
 9219SOL    HW238127   2.323   2.021   1.116  1.2416 -2.7799  0.2032
 9220SOL     OW38128   5.789   9.495   1.004 -0.3470  0.0834  0.9149
 9220SOL    HW138129   5.870   9.481   1.060  0.0730  0.5387  0.4268
 9220SOL    HW238130   5.808   9.565   0.935 -0.8748 -0.4389  0.2333
 9221SOL     OW38131   9.765   6.892   0.625  0.0915 -0.0366 -0.4441
 9221SOL    HW138132   9.753   6.833   0.546  0.9866 -0.3683 -0.3369
 9221SOL    HW238133   9.861   6.889   0.655 -0.6318 -1.4566  1.8512
 9222SOL     OW38134   8.668   9.742   4.700  0.3071 -0.5547 -0.4399
 9222SOL    HW138135   8.658   9.680   4.779 -0.6158 -0.5302 -0.5340
 9222SOL    HW238136   8.695   9.833   4.733 -1.1678 -0.2522 -0.0529
 9223SOL     OW38137   1.804   1.087   2.499  0.5250 -0.4162  0.2061
 9223SOL    HW138138   1.797   1.051   2.592 -1.3178  1.4929  0.8630
 9223SOL    HW238139   1.849   1.020   2.440  1.3454 -1.8298  2.3675
 9224SOL     OW38140   9.817   6.151   0.301  0.2189  0.2682 -0.3480
 9224SOL    HW138141   9.852   6.183   0.213  2.8027 -0.2901  0.4389
 9224SOL    HW238142   9.777   6.060   0.290 -1.5123  1.1117 -1.3464
 9225SOL     OW38143   0.584   6.567   3.106  0.4751 -0.1953  0.4063
 9225SOL    HW138144   0.632   6.610   3.182 -0.0749 -0.8606  1.1217
 9225SOL    HW238145   0.585   6.468   3.116  0.6706 -0.3021 -0.6116
 9226SOL     OW38146   9.945   5.113   2.632 -0.0720 -0.7686  0.1350
 9226SOL    HW138147   9.919   5.016   2.638  0.7466 -1.0125 -0.1418
 9226SOL    HW238148   9.927   5.146   2.539 -0.1374 -0.7189  0.1656
 9227SOL     OW38149   1.586   3.508   0.626  0.3314 -0.6011 -0.1637
 9227SOL    HW138150   1.583   3.572   0.703  0.0729 -0.5683 -0.1993
 9227SOL    HW238151   1.600   3.560   0.541  0.9512 -0.6686 -0.1010
 9228SOL     OW38152   1.471   4.758   3.290 -0.0532 -0.0930 -0.3100
 9228SOL    HW138153   1.463   4.682   3.225  1.6413 -1.4922  1.0553
 9228SOL    HW238154   1.560   4.802   3.279 -1.1081  1.8883 -1.2370
 9229SOL     OW38155   3.560   9.964   0.370 -0.3139  0.0531  0.5654
 9229SOL    HW138156   3.618   9.894   0.330  1.2886  0.8984  1.3444
 9229SOL    HW238157   3.574   9.967   0.469  0.3509  2.0767  0.4437
 9230SOL     OW38158   8.576   9.372   0.588  0.1126  0.1490  0.2271
 9230SOL    HW138159   8.591   9.296   0.525  0.3204  1.4149 -1.2712
 9230SOL    HW238160   8.478   9.391   0.594  0.2162  1.1861 -1.1257
 9231SOL     OW38161   4.278   1.142   4.663 -0.6650 -0.0541  0.4420
 9231SOL    HW138162   4.332   1.133   4.580 -1.3045 -0.1960  0.0380
 9231SOL    HW238163   4.295   1.232   4.704  1.1390 -0.7457  1.2211
 9232SOL     OW38164   4.403   7.793   3.237 -0.1166  0.3496 -0.5925
 9232SOL    HW138165   4.327   7.857   3.227 -1.6410 -1.2958  0.2011
 9232SOL    HW238166   4.411   7.767   3.333  1.3995  0.4159 -0.6909
 9233SOL     OW38167   0.173   4.230   1.911 -0.4247  0.1047  0.4628
 9233SOL    HW138168   0.199   4.318   1.950  0.2107  1.3588 -2.6482
 9233SOL    HW238169   0.122   4.245   1.827 -0.9768 -2.5119  0.3000
 9234SOL     OW38170   7.133   9.059   2.257 -0.2758  0.1589  0.2878
 9234SOL    HW138171   7.037   9.036   2.267 -0.3544  1.1868  2.0832
 9234SOL    HW238172   7.157   9.133   2.320  1.4931  0.5058 -0.7339
 9235SOL     OW38173   8.200   8.935   2.866  0.4282 -0.2069  0.1790
 9235SOL    HW138174   8.132   8.908   2.933  2.5011  0.4550  2.6091
 9235SOL    HW238175   8.262   8.858   2.847 -1.6536 -1.2163 -2.9799
 9236SOL     OW38176   3.754   2.574   3.233 -0.2781  0.1899  0.7862
 9236SOL    HW138177   3.697   2.641   3.280  1.7306  1.1850  1.8914
 9236SOL    HW238178   3.773   2.606   3.140 -0.2795  0.6222  0.9318
 9237SOL     OW38179   3.623   3.267   3.252  0.1571 -0.2512  0.3039
 9237SOL    HW138180   3.692   3.292   3.321 -1.6015  1.0192  1.6473
 9237SOL    HW238181   3.626   3.168   3.236 -0.9464 -0.9334  3.9207
 9238SOL     OW38182   6.459   9.559   2.006  0.1861  0.2058 -0.4590
 9238SOL    HW138183   6.433   9.469   2.041  1.3042 -1.0803 -2.8048
 9238SOL    HW238184   6.377   9.616   1.999 -0.3926 -0.3074  1.9106
 9239SOL     OW38185   5.446   7.565   1.663 -0.4769  0.3186 -0.2704
 9239SOL    HW138186   5.365   7.545   1.719  0.1520  0.2954  0.6328
 9239SOL    HW238187   5.525   7.581   1.722  0.9906 -3.0146 -1.2160
 9240SOL     OW38188   1.722   9.102   1.943  0.0912 -0.6103 -0.4492
 9240SOL    HW138189   1.705   9.044   1.863  2.5530 -1.9946 -0.0246
 9240SOL    HW238190   1.759   9.046   2.018 -1.5688  0.7670  1.4643
 9241SOL     OW38191   0.519   2.679   2.297 -0.0349  0.2875  0.4861
 9241SOL    HW138192   0.495   2.583   2.280  0.2400  0.4021 -0.5713
 9241SOL    HW238193   0.482   2.736   2.224  0.3607  0.9143  0.7735
 9242SOL     OW38194   2.499   6.527   2.572 -0.1056  0.7721 -0.2098
 9242SOL    HW138195   2.570   6.467   2.607 -1.2929 -0.0336  0.8634
 9242SOL    HW238196   2.493   6.517   2.473  0.7270  0.2563 -0.2142
 9243SOL     OW38197   2.323   5.047   4.275 -0.5897  0.1372 -0.0631
 9243SOL    HW138198   2.244   5.105   4.293 -0.7026 -0.5056  1.5695
 9243SOL    HW238199   2.302   4.953   4.302  0.0663 -0.4083 -1.4071
 9244SOL     OW38200   3.899   8.248   4.167  0.2153  0.0182 -0.0595
 9244SOL    HW138201   3.947   8.161   4.180 -0.3200 -0.3493 -0.5231
 9244SOL    HW238202   3.914   8.307   4.246 -1.1457 -1.3116  1.2109
 9245SOL     OW38203   6.465   0.461   2.784  0.4317 -0.3985  0.2167
 9245SOL    HW138204   6.534   0.434   2.851 -0.1148  2.7010  2.1363
 9245SOL    HW238205   6.379   0.480   2.832 -0.8669 -1.1360 -1.7689
 9246SOL     OW38206   0.069   0.507   2.484 -0.2611  0.1940 -0.1773
 9246SOL    HW138207   0.072   0.429   2.422 -1.5507 -0.4692  0.5691
 9246SOL    HW238208   0.081   0.475   2.578  1.5133  1.1697 -0.0523
 9247SOL     OW38209   7.228   0.146   0.548  0.4164 -0.0719  0.1391
 9247SOL    HW138210   7.218   0.203   0.629  1.6854  0.4826 -0.0862
 9247SOL    HW238211   7.179   0.188   0.471 -2.6702 -1.6977  1.1052
 9248SOL     OW38212   3.334   9.833   4.532  0.1301 -0.4182 -0.2024
 9248SOL    HW138213   3.396   9.891   4.479  0.8715 -0.8009  0.2489
 9248SOL    HW238214   3.279   9.778   4.469  0.9770 -0.8391 -0.5849
 9249SOL     OW38215   3.618   1.028   2.002  0.2174  0.0438 -0.2003
 9249SOL    HW138216   3.574   1.018   2.092  1.1937 -0.4423  0.2227
 9249SOL    HW238217   3.678   1.108   2.003  1.4821 -0.9073  0.0886
 9250SOL     OW38218   9.487   9.287   1.996  0.3155 -0.4594  0.3439
 9250SOL    HW138219   9.534   9.229   2.063 -0.6466 -1.2024  0.3853
 9250SOL    HW238220   9.548   9.305   1.919  1.9836  1.6516  2.0811
 9251SOL     OW38221   0.943   4.654   2.031  1.0616 -0.3438  0.3230
 9251SOL    HW138222   1.023   4.709   2.006  1.9644 -2.5263 -1.8810
 9251SOL    HW238223   0.972   4.580   2.091  0.5655 -0.6848  0.1384
 9252SOL     OW38224   0.226   4.547   4.346 -0.1327  0.8213  0.4720
 9252SOL    HW138225   0.274   4.534   4.432  0.0159 -0.1513  0.2505
 9252SOL    HW238226   0.204   4.458   4.306 -0.0692  1.2649 -0.5724
 9253SOL     OW38227   2.117   1.664   2.814 -0.2249  0.2456 -0.4358
 9253SOL    HW138228   2.040   1.614   2.775  0.1302  0.3824 -1.3263
 9253SOL    HW238229   2.187   1.679   2.743  0.0941  1.1527  0.0578
 9254SOL     OW38230   5.791   7.313   1.960 -0.1068  0.1419  0.3279
 9254SOL    HW138231   5.846   7.342   2.038  0.1634 -2.3298  1.1103
 9254SOL    HW238232   5.846   7.314   1.877  0.4574 -0.0145  0.6957
 9255SOL     OW38233   2.490   8.457   3.334  0.8056  0.5892  0.5068
 9255SOL    HW138234   2.554   8.473   3.409  1.4155  0.0325  0.1017
 9255SOL    HW238235   2.403   8.425   3.372  1.2155 -0.0090  0.9595
 9256SOL     OW38236   6.699   6.725   3.502  0.6197 -0.3309  0.2387
 9256SOL    HW138237   6.641   6.670   3.443  1.5962  0.8582 -1.8991
 9256SOL    HW238238   6.651   6.809   3.527  1.3947  0.7027 -1.6161
 9257SOL     OW38239   2.740   2.583   1.534  0.4857 -0.8345 -0.2336
 9257SOL    HW138240   2.824   2.622   1.495  0.8258 -1.2751  0.0488
 9257SOL    HW238241   2.661   2.637   1.504  1.0529  0.7141  1.0042
 9258SOL     OW38242   9.482   5.790   2.245 -0.5213  0.0288 -0.3886
 9258SOL    HW138243   9.463   5.840   2.330  0.3982  0.0748 -0.2103
 9258SOL    HW238244   9.425   5.828   2.172 -1.2311  0.0655  0.1756
 9259SOL     OW38245   0.324   2.089   1.362 -0.3611  0.0593  0.2364
 9259SOL    HW138246   0.302   2.009   1.419 -0.7104 -0.2440 -0.3135
 9259SOL    HW238247   0.394   2.144   1.407  0.8668 -1.2828 -0.0100
 9260SOL     OW38248   8.378   7.352   0.940  0.1312 -0.2529 -0.0433
 9260SOL    HW138249   8.458   7.404   0.971  0.1009 -0.1485 -0.1439
 9260SOL    HW238250   8.384   7.338   0.841  0.8608 -1.6534  0.1728
 9261SOL     OW38251   1.311   1.913   3.024 -1.0431 -0.1049  0.2057
 9261SOL    HW138252   1.226   1.890   2.977 -0.7157  0.3856 -0.6582
 9261SOL    HW238253   1.375   1.836   3.016 -2.5082 -1.7578  3.6158
 9262SOL     OW38254   2.842   4.415   1.386  0.2430 -0.3754 -0.1694
 9262SOL    HW138255   2.898   4.389   1.464 -0.4214 -1.5755 -0.0801
 9262SOL    HW238256   2.754   4.449   1.419  0.3182  0.0063 -0.3632
 9263SOL     OW38257   9.826   1.701   2.467 -0.0153 -0.1107 -0.5978
 9263SOL    HW138258   9.903   1.666   2.413  1.5531  0.9656  0.8756
 9263SOL    HW238259   9.857   1.777   2.523 -2.4556  1.0700 -0.7906
 9264SOL     OW38260   2.739   9.926   2.438  0.3911  0.0589 -0.0999
 9264SOL    HW138261   2.701   9.897   2.350  1.2577 -0.2133 -0.3930
 9264SOL    HW238262   2.820   9.982   2.422  0.8767 -0.4504  0.5233
 9265SOL     OW38263   3.608   3.213   2.527 -0.0749  1.0404 -0.5147
 9265SOL    HW138264   3.539   3.286   2.528 -0.5275  0.6155 -0.3437
 9265SOL    HW238265   3.690   3.244   2.574 -1.2722  0.4670  2.0345
 9266SOL     OW38266   0.615   7.181   2.108  0.4509 -0.1559  0.2755
 9266SOL    HW138267   0.580   7.088   2.112  1.4617 -0.5406  0.1842
 9266SOL    HW238268   0.629   7.216   2.200  1.5388 -0.6515  0.3015
 9267SOL     OW38269   2.352   7.816   3.616  0.1440  0.3650  0.6543
 9267SOL    HW138270   2.291   7.745   3.581  0.3766  0.0787  0.8248
 9267SOL    HW238271   2.446   7.785   3.609  0.3057  1.0167 -0.0867
 9268SOL     OW38272   9.036   6.903   3.467 -0.1618  0.2269 -0.2664
 9268SOL    HW138273   9.122   6.864   3.501  1.0414  1.3348 -1.9542
 9268SOL    HW238274   8.960   6.863   3.517  1.2803 -1.3619  0.7460
 9269SOL     OW38275   1.145   4.292   1.685 -0.1995 -0.0310 -0.4149
 9269SOL    HW138276   1.093   4.298   1.600  2.5635 -0.0411 -2.1623
 9269SOL    HW238277   1.123   4.370   1.743 -4.1076 -1.3761  0.1086
 9270SOL     OW38278   1.454   6.367   3.186  0.4523 -0.3885 -0.4591
 9270SOL    HW138279   1.439   6.363   3.088  0.3133 -0.6966 -0.4250
 9270SOL    HW238280   1.481   6.460   3.212  0.6558 -0.3533 -0.8086
 9271SOL     OW38281   8.709   0.238   3.603 -0.2377 -0.7479 -0.4830
 9271SOL    HW138282   8.701   0.329   3.563 -0.5186 -0.3854  0.3938
 9271SOL    HW238283   8.620   0.211   3.640 -0.1472 -1.3690 -0.7146
 9272SOL     OW38284   9.038   6.001   0.344 -0.1850 -0.4143 -0.1742
 9272SOL    HW138285   8.974   6.076   0.327  0.7720  0.9924  2.2514
 9272SOL    HW238286   8.987   5.916   0.353 -1.4642  0.2326 -1.0456
 9273SOL     OW38287   1.544   5.724   3.091 -0.8458  0.0442  0.5866
 9273SOL    HW138288   1.463   5.671   3.120 -1.7077  0.2856 -1.3398
 9273SOL    HW238289   1.604   5.665   3.038 -1.0253  0.5715 -0.1996
 9274SOL     OW38290   8.888   9.083   3.519 -0.2325  0.1318 -0.0747
 9274SOL    HW138291   8.898   9.137   3.435  1.8525  0.9224  0.6636
 9274SOL    HW238292   8.802   9.106   3.564 -0.7054  0.7151 -1.2621
 9275SOL     OW38293   1.311   5.993   4.460  0.2677 -0.5557  0.0154
 9275SOL    HW138294   1.225   6.030   4.494 -0.3351 -0.3503 -1.6578
 9275SOL    HW238295   1.332   6.035   4.371  0.2349 -3.2454 -1.3248
 9276SOL     OW38296   6.853   8.386   3.141  0.0537 -0.3993  0.0685
 9276SOL    HW138297   6.780   8.425   3.085  0.1577 -1.6818 -0.9916
 9276SOL    HW238298   6.923   8.455   3.160  2.2166 -0.9942 -5.0550
 9277SOL     OW38299   1.827   3.150   0.741  0.0204  0.5246 -0.6784
 9277SOL    HW138300   1.790   3.238   0.770 -0.2666  0.6253 -1.3543
 9277SOL    HW238301   1.757   3.079   0.749  0.1952  0.3885 -0.3153
 9278SOL     OW38302   9.342   9.144   3.293 -0.0010 -0.6830  0.2910
 9278SOL    HW138303   9.362   9.072   3.360 -0.0061 -1.6510 -0.7420
 9278SOL    HW238304   9.335   9.104   3.202 -3.2859  0.1505  0.1368
 9279SOL     OW38305   9.297   8.990   1.580  0.2468  0.1654 -0.2722
 9279SOL    HW138306   9.326   8.902   1.617 -2.0435 -0.9384 -0.9953
 9279SOL    HW238307   9.239   9.037   1.646  0.1019  0.3795 -0.5506
 9280SOL     OW38308   3.860   8.400   4.402 -0.1498 -0.6965 -0.4868
 9280SOL    HW138309   3.764   8.420   4.380  0.0030  0.0836 -0.4583
 9280SOL    HW238310   3.891   8.461   4.475  0.1209 -1.5217  0.0906
 9281SOL     OW38311   3.191   9.520   2.711  0.6136  0.1752 -0.1778
 9281SOL    HW138312   3.290   9.534   2.714  0.5360  0.9245 -0.9983
 9281SOL    HW238313   3.166   9.471   2.628  0.4956 -1.8015  0.9816
 9282SOL     OW38314   4.651   7.467   1.938 -0.2022  0.2413  0.1115
 9282SOL    HW138315   4.648   7.422   2.028  0.0547 -0.7382 -0.3571
 9282SOL    HW238316   4.723   7.537   1.938 -0.9748  1.0518  1.0263
 9283SOL     OW38317   0.543   4.423   1.545 -0.1642  0.6281 -0.1208
 9283SOL    HW138318   0.448   4.419   1.576 -1.0149  1.9700 -2.4222
 9283SOL    HW238319   0.566   4.339   1.496 -0.8584  1.1838 -1.4175
 9284SOL     OW38320   9.213   6.497   0.150 -0.2648  0.6327  0.1043
 9284SOL    HW138321   9.139   6.534   0.206  1.1107  0.2057  2.2893
 9284SOL    HW238322   9.298   6.544   0.173  0.3422  0.4293 -1.6533
 9285SOL     OW38323   5.625   0.372   3.731  0.3593 -0.0186  0.3505
 9285SOL    HW138324   5.719   0.396   3.755  0.6377  0.4404 -1.0878
 9285SOL    HW238325   5.573   0.350   3.813  1.4512  0.7301  1.2538
 9286SOL     OW38326   1.692   8.662   0.627  0.0680 -0.1260 -0.1913
 9286SOL    HW138327   1.622   8.668   0.697  1.3216 -0.3205  1.0883
 9286SOL    HW238328   1.669   8.725   0.552 -1.7930 -0.6675 -0.1024
 9287SOL     OW38329   3.061   6.645   3.755 -0.1172  0.8868 -0.1606
 9287SOL    HW138330   3.049   6.582   3.679 -0.3036  1.8442 -0.9257
 9287SOL    HW238331   3.055   6.595   3.841 -0.4755 -0.1020 -0.7628
 9288SOL     OW38332   5.528   0.246   2.390  0.1375  0.1386  0.0109
 9288SOL    HW138333   5.538   0.183   2.313 -0.1521  1.1567 -0.8619
 9288SOL    HW238334   5.431   0.256   2.413  0.0500  1.5942 -0.9635
 9289SOL     OW38335   2.533   8.779   0.382 -0.9505  0.1239  0.6955
 9289SOL    HW138336   2.478   8.777   0.299 -0.8765  0.1987  0.6455
 9289SOL    HW238337   2.572   8.870   0.395 -0.9166  0.0973  0.7826
 9290SOL     OW38338   2.358   6.915   2.130  0.4854  0.3217  0.0309
 9290SOL    HW138339   2.441   6.925   2.185  0.9085 -0.0115 -0.5467
 9290SOL    HW238340   2.377   6.857   2.051  0.0547  1.3735 -0.8516
 9291SOL     OW38341   2.359   1.317   3.167  0.4741 -0.4133  0.0419
 9291SOL    HW138342   2.310   1.243   3.122 -0.9216  0.9763 -0.7869
 9291SOL    HW238343   2.295   1.374   3.218  1.4468  0.4706  0.3071
 9292SOL     OW38344   1.565   9.258   2.116  0.4949 -0.5549 -0.3128
 9292SOL    HW138345   1.593   9.195   2.043  1.8335 -0.1171 -0.1950
 9292SOL    HW238346   1.483   9.307   2.088 -0.9079 -2.7732 -0.1547
 9293SOL     OW38347   3.522   2.939   0.433 -0.0231  0.4698  0.0578
 9293SOL    HW138348   3.561   2.886   0.358 -0.8285 -0.0212 -0.0121
 9293SOL    HW238349   3.472   2.879   0.495 -1.3922  1.2035 -0.3071
 9294SOL     OW38350   1.117   8.786   0.873  0.0875  0.5508  0.2637
 9294SOL    HW138351   1.072   8.717   0.930 -0.7965  0.4270 -0.5644
 9294SOL    HW238352   1.111   8.875   0.917 -1.7177  0.6935 -0.1911
 9295SOL     OW38353   2.628   1.938   4.319 -0.7878 -0.2001  0.3206
 9295SOL    HW138354   2.668   1.848   4.335 -0.7882 -0.3422 -0.4359
 9295SOL    HW238355   2.567   1.962   4.394  0.3613 -0.1818  1.2614
 9296SOL     OW38356   5.740   0.601   2.624  0.2556 -0.3820 -0.5584
 9296SOL    HW138357   5.692   0.564   2.544  0.2882 -0.6589 -0.4485
 9296SOL    HW238358   5.775   0.692   2.602  0.6229 -0.6267 -0.9995
 9297SOL     OW38359   2.506   3.741   4.610 -0.5261 -0.1383 -0.1307
 9297SOL    HW138360   2.582   3.752   4.674 -0.1355 -0.8696 -0.4674
 9297SOL    HW238361   2.419   3.753   4.659 -0.2703 -2.0406  0.8413
 9298SOL     OW38362   0.847   0.209   4.319  0.1746 -0.1987 -0.1466
 9298SOL    HW138363   0.762   0.161   4.342 -0.2478  1.5300  2.1140
 9298SOL    HW238364   0.889   0.166   4.239 -2.9556 -0.9352 -1.4705
 9299SOL     OW38365   1.824   4.468   4.353 -0.5127  0.0742 -0.2909
 9299SOL    HW138366   1.899   4.495   4.414 -0.5795  1.3508 -0.7531
 9299SOL    HW238367   1.744   4.525   4.372 -1.3953 -1.3383  0.2521
 9300SOL     OW38368   1.225   2.705   4.071 -0.0681 -0.3274  0.0762
 9300SOL    HW138369   1.312   2.674   4.109 -0.4137 -3.6848 -1.7044
 9300SOL    HW238370   1.227   2.695   3.971 -1.7881  1.5238 -0.1888
 9301SOL     OW38371   8.844   6.418   3.098 -0.0582  0.2716  0.0568
 9301SOL    HW138372   8.843   6.517   3.092  2.4122  0.2461 -1.0563
 9301SOL    HW238373   8.822   6.378   3.009 -1.1196 -0.2085  0.5140
 9302SOL     OW38374   0.265   6.563   0.991 -0.1429 -0.1181 -0.1611
 9302SOL    HW138375   0.280   6.464   0.994 -1.8482 -0.4028 -0.4591
 9302SOL    HW238376   0.306   6.605   1.071 -0.1297 -1.1761  0.3981
 9303SOL     OW38377   3.660   8.051   2.145  0.7810 -0.4911 -0.4494
 9303SOL    HW138378   3.635   8.124   2.082  1.2074  0.6628  0.7029
 9303SOL    HW238379   3.757   8.028   2.134  0.7493 -0.5945 -0.5147
 9304SOL     OW38380   2.418   3.258   1.940  0.0597 -0.8023  0.0793
 9304SOL    HW138381   2.445   3.250   1.844  1.8368  0.5515  0.4382
 9304SOL    HW238382   2.464   3.186   1.993 -0.1912 -0.9685  0.0738
 9305SOL     OW38383   2.890   6.773   2.613  0.2094  0.2142  0.0479
 9305SOL    HW138384   2.932   6.686   2.637  0.4258  0.1117 -0.6907
 9305SOL    HW238385   2.897   6.836   2.691 -0.1522 -0.4930  0.6585
 9306SOL     OW38386   9.749   7.714   0.566 -0.1457 -0.4766 -0.1665
 9306SOL    HW138387   9.715   7.624   0.592 -0.1267 -0.5941 -0.5488
 9306SOL    HW238388   9.739   7.777   0.643 -1.3822 -0.4633 -0.3378
 9307SOL     OW38389   3.079   5.847   0.928  0.1401  1.0965 -0.1026
 9307SOL    HW138390   3.085   5.928   0.870  0.6872  0.5675 -0.8021
 9307SOL    HW238391   3.140   5.776   0.892 -0.1869  0.4445  0.6110
 9308SOL     OW38392   3.010   1.338   3.923  0.5345  0.1836  0.1389
 9308SOL    HW138393   3.106   1.314   3.914  1.3918  3.7293 -1.1752
 9308SOL    HW238394   2.968   1.341   3.833 -1.2185 -2.6564  0.8033
 9309SOL     OW38395   8.334   7.773   1.917  0.3163 -0.4717  0.2605
 9309SOL    HW138396   8.266   7.765   1.844 -0.6577 -0.2340  1.1199
 9309SOL    HW238397   8.425   7.751   1.881 -0.2015 -0.7351 -0.9204
 9310SOL     OW38398   3.107   8.696   4.118  0.3676  0.6137 -0.0780
 9310SOL    HW138399   3.125   8.769   4.052  2.8771  0.3165  0.2283
 9310SOL    HW238400   3.194   8.660   4.153 -0.8475 -1.5239  0.8780
 9311SOL     OW38401   1.209   2.476   4.453 -0.5785  0.5662  0.2161
 9311SOL    HW138402   1.241   2.396   4.403 -0.2973 -0.2956  1.7170
 9311SOL    HW238403   1.134   2.519   4.404 -2.3940 -2.0870  0.5712
 9312SOL     OW38404   0.968   6.537   3.895  0.6302 -0.3733 -0.1375
 9312SOL    HW138405   0.894   6.594   3.859  0.5279 -1.0008 -0.9421
 9312SOL    HW238406   1.020   6.498   3.818  0.7679 -1.2715  0.4065
 9313SOL     OW38407   0.291   7.320   2.243 -0.3620  0.0802 -0.1927
 9313SOL    HW138408   0.326   7.298   2.152 -0.3150 -1.3078  0.1573
 9313SOL    HW238409   0.276   7.236   2.295 -1.9272  0.7783  0.5179
 9314SOL     OW38410   0.567   7.266   2.415 -0.1958 -0.1517  0.0434
 9314SOL    HW138411   0.471   7.249   2.394 -0.4604  0.4434  0.7762
 9314SOL    HW238412   0.575   7.349   2.471  0.6904 -0.5285  0.4767
 9315SOL     OW38413   4.504   8.527   4.287 -0.2242 -0.3789  0.5081
 9315SOL    HW138414   4.534   8.596   4.353 -2.0757  0.0993  0.8866
 9315SOL    HW238415   4.574   8.456   4.279  0.1324 -0.3321  2.8211
 9316SOL     OW38416   0.897   0.709   4.763 -0.6592 -0.0024 -0.7709
 9316SOL    HW138417   0.940   0.787   4.810 -0.1972 -0.8848  0.2960
 9316SOL    HW238418   0.946   0.691   4.678  1.2201 -1.0501  0.4680
 9317SOL     OW38419   8.730   6.273   3.608  0.7255 -0.7133  0.2579
 9317SOL    HW138420   8.818   6.270   3.561  1.0008 -1.0890  0.8019
 9317SOL    HW238421   8.668   6.334   3.558  1.4381 -0.0969  0.1286
 9318SOL     OW38422   3.462   4.138   0.214 -0.5041 -0.1496  0.1583
 9318SOL    HW138423   3.453   4.075   0.136  0.6390  0.2200 -0.2833
 9318SOL    HW238424   3.558   4.161   0.227 -0.9326  1.8077  0.0751
 9319SOL     OW38425   2.523   8.980   3.541 -0.2882  0.0483  0.5001
 9319SOL    HW138426   2.508   8.881   3.538  3.0773 -0.4825 -0.2263
 9319SOL    HW238427   2.558   9.006   3.630 -0.2055  0.4566  0.3486
 9320SOL     OW38428   1.234   6.956   4.264 -0.2985 -0.2076 -0.0968
 9320SOL    HW138429   1.254   6.973   4.168 -1.0606  0.8252 -0.0840
 9320SOL    HW238430   1.146   6.997   4.287  0.0743 -0.0892  1.1516
 9321SOL     OW38431   2.761   6.014   3.948 -0.2771  0.1452 -0.0986
 9321SOL    HW138432   2.733   5.927   3.988  1.6994 -0.1502  0.7001
 9321SOL    HW238433   2.684   6.055   3.900 -2.0200 -0.6498  1.9541
 9322SOL     OW38434   4.931   9.294   3.615 -0.8229  0.4168  0.1486
 9322SOL    HW138435   4.932   9.194   3.619  0.2483  0.4433  0.6811
 9322SOL    HW238436   4.943   9.325   3.521 -0.8721  0.0447  0.0229
 9323SOL     OW38437   0.126   5.136   3.154  0.0910 -0.1902 -0.1165
 9323SOL    HW138438   0.194   5.135   3.080  0.1770  1.4122 -0.0804
 9323SOL    HW238439   0.053   5.070   3.133  0.6975 -0.5731 -1.0654
 9324SOL     OW38440   1.532   6.256   1.079  0.2396 -0.0024  0.4795
 9324SOL    HW138441   1.578   6.343   1.095 -0.1308  0.3355 -0.2748
 9324SOL    HW238442   1.600   6.187   1.053  0.1004  1.0376 -2.8180
 9325SOL     OW38443   3.047   7.696   3.661  0.1407  0.2956 -0.1453
 9325SOL    HW138444   3.125   7.699   3.598  1.5759 -0.6142  1.5337
 9325SOL    HW238445   3.074   7.648   3.745 -2.1191  0.3297  0.6353
 9326SOL     OW38446   3.122   4.572   4.196 -0.0276 -0.4750  0.3454
 9326SOL    HW138447   3.038   4.581   4.143 -1.1743 -0.8295  2.0553
 9326SOL    HW238448   3.132   4.650   4.257  1.6331  0.2667 -0.8117
 9327SOL     OW38449   4.511   2.270   1.927 -0.1155  0.2158 -0.1541
 9327SOL    HW138450   4.533   2.268   2.025 -1.2803 -2.2215  0.0984
 9327SOL    HW238451   4.480   2.361   1.902  0.6953  1.0138  1.6211
 9328SOL     OW38452   2.879   7.821   3.842  0.4840 -0.0451  0.6521
 9328SOL    HW138453   2.956   7.797   3.784  0.7843  2.4036  0.0011
 9328SOL    HW238454   2.871   7.754   3.916  1.9666 -1.4569 -0.4333
 9329SOL     OW38455   3.361   5.248   2.485 -0.5682  0.1810  0.1607
 9329SOL    HW138456   3.266   5.261   2.457 -0.2513  0.8518 -0.6543
 9329SOL    HW238457   3.401   5.337   2.509 -0.1104 -0.0768  0.3697
 9330SOL     OW38458   2.042   2.189   1.860  0.1403 -0.5481  0.3180
 9330SOL    HW138459   2.031   2.259   1.789  0.1802 -0.6182  0.2427
 9330SOL    HW238460   2.044   2.099   1.818 -1.5617 -0.7079  0.5701
 9331SOL     OW38461   0.788   7.387   4.113  0.8314  0.4849  0.8305
 9331SOL    HW138462   0.792   7.295   4.074 -0.1078  1.6385 -2.0742
 9331SOL    HW238463   0.812   7.382   4.210  0.8313 -2.8090  0.7380
 9332SOL     OW38464   0.342   7.954   2.160  0.1873 -0.1016  0.0804
 9332SOL    HW138465   0.395   7.918   2.237  0.6654  1.0794  0.3210
 9332SOL    HW238466   0.319   8.050   2.178 -0.1369  0.0284 -1.0133
 9333SOL     OW38467   8.760   9.722   3.030 -0.3075  0.2104  0.3166
 9333SOL    HW138468   8.763   9.622   3.040 -0.4059  0.1626 -0.1452
 9333SOL    HW238469   8.836   9.753   2.974 -0.8241  0.2980 -0.3389
 9334SOL     OW38470   4.311   3.628   4.572  0.1484 -0.2882 -0.0348
 9334SOL    HW138471   4.410   3.628   4.586  0.1037  0.8442  0.3614
 9334SOL    HW238472   4.265   3.604   4.657  0.0735 -0.6247 -0.1688
 9335SOL     OW38473   1.012   5.917   4.198 -0.3375 -0.0845  0.0717
 9335SOL    HW138474   0.935   5.860   4.170  0.5901 -1.3757  0.1237
 9335SOL    HW238475   1.050   5.882   4.283 -0.4651  1.2946  0.7013
 9336SOL     OW38476   9.144   7.988   2.539 -0.5330  0.0644 -0.3758
 9336SOL    HW138477   9.202   7.908   2.551  0.4056  0.9142  0.8780
 9336SOL    HW238478   9.052   7.967   2.574 -0.1844 -0.3328  0.3208
 9337SOL     OW38479   3.159   7.924   2.911 -0.2333 -0.0627  0.1502
 9337SOL    HW138480   3.141   8.022   2.919 -0.5789  0.0851 -2.0262
 9337SOL    HW238481   3.074   7.873   2.922 -0.4542  0.0509 -0.8953
 9338SOL     OW38482   1.062   6.746   1.134  0.6143 -0.3491 -0.1090
 9338SOL    HW138483   1.107   6.777   1.050 -0.1370  0.9194 -0.0470
 9338SOL    HW238484   1.129   6.700   1.192  1.1628 -1.1684 -1.3612
 9339SOL     OW38485   4.492   7.141   2.891 -0.0034 -0.3323 -0.3341
 9339SOL    HW138486   4.432   7.192   2.830  1.4803  0.5857 -1.0489
 9339SOL    HW238487   4.484   7.176   2.984  0.2355  0.5026 -0.6289
 9340SOL     OW38488   1.557   5.716   0.913  0.5878  0.0665 -0.0808
 9340SOL    HW138489   1.653   5.698   0.891  1.1253  0.7056  1.6093
 9340SOL    HW238490   1.552   5.776   0.994 -1.2488 -1.0797  0.6924
 9341SOL     OW38491   9.554   9.136   2.673 -0.0241 -0.4932 -0.5957
 9341SOL    HW138492   9.523   9.153   2.580 -2.8762  3.0627  0.8675
 9341SOL    HW238493   9.626   9.201   2.697  0.1515 -0.8795 -0.0525
 9342SOL     OW38494   4.006   1.882   4.284 -0.0855 -0.8616  0.1203
 9342SOL    HW138495   3.954   1.908   4.203 -0.4718 -0.8280  0.3753
 9342SOL    HW238496   4.012   1.959   4.347 -0.3941 -1.0938  0.4393
 9343SOL     OW38497   7.075   9.126   1.642  0.1134  0.0056 -0.3438
 9343SOL    HW138498   7.103   9.029   1.643 -2.0450 -0.6362 -0.0132
 9343SOL    HW238499   6.976   9.132   1.644  0.1707  2.2298 -2.0265
 9344SOL     OW38500   3.752   8.712   4.590  0.1915  0.0620 -0.5617
 9344SOL    HW138501   3.738   8.659   4.673  1.0157  0.3903 -0.2110
 9344SOL    HW238502   3.664   8.745   4.556 -0.0841  0.4225  0.5043
 9345SOL     OW38503   0.488   1.354   0.706  0.0074  0.4135 -0.9897
 9345SOL    HW138504   0.555   1.332   0.778 -0.7181  1.4122 -0.0076
 9345SOL    HW238505   0.463   1.450   0.711 -0.1338  0.4711 -2.5288
 9346SOL     OW38506   2.252   9.968   2.660  0.5983  0.0126 -0.0425
 9346SOL    HW138507   2.174  10.020   2.626  0.3697 -0.7655 -0.7205
 9346SOL    HW238508   2.324  10.031   2.690  0.1643  0.7161 -0.4814
 9347SOL     OW38509   2.799   8.232   0.015  0.0058  0.1431 -0.4952
 9347SOL    HW138510   2.755   8.143   0.008 -1.3581  0.7534  0.0900
 9347SOL    HW238511   2.757   8.295  -0.050  1.0471  0.3445 -0.9928
 9348SOL     OW38512   9.685   5.944   1.977  0.6560  0.1724 -0.0833
 9348SOL    HW138513   9.692   5.979   1.883  1.0632  1.5075  0.4323
 9348SOL    HW238514   9.707   5.846   1.978  0.5248  0.1226 -1.3958
 9349SOL     OW38515   3.363   7.683   1.230 -0.3223  0.0695 -0.4107
 9349SOL    HW138516   3.265   7.700   1.242 -0.0503  0.7672  0.9303
 9349SOL    HW238517   3.400   7.641   1.313  0.3128 -1.1926 -1.3098
 9350SOL     OW38518   0.700   7.942   0.821  0.1874  0.6309 -0.6900
 9350SOL    HW138519   0.792   7.944   0.782  0.2891  0.8890 -0.4352
 9350SOL    HW238520   0.682   7.852   0.862  0.9130  1.0982  0.6764
 9351SOL     OW38521   9.674   9.128   0.407  0.6787  0.2900 -0.0797
 9351SOL    HW138522   9.654   9.072   0.487  1.3338 -1.1431 -0.8881
 9351SOL    HW238523   9.738   9.201   0.432 -0.7608  1.1489  1.1468
 9352SOL     OW38524   9.639   0.189   4.232  0.5374 -0.0750 -0.0650
 9352SOL    HW138525   9.579   0.113   4.255 -1.0260  0.9963 -0.5401
 9352SOL    HW238526   9.698   0.162   4.155  0.1797 -0.8843 -0.0634
 9353SOL     OW38527   9.314   7.551   3.422 -0.2293  0.0039 -0.4244
 9353SOL    HW138528   9.262   7.522   3.342 -0.1079  1.1890 -0.9423
 9353SOL    HW238529   9.273   7.634   3.460  1.7582  1.4704 -1.3627
 9354SOL     OW38530   1.863   2.077   4.459  0.5428  0.4980 -0.6252
 9354SOL    HW138531   1.861   2.023   4.375  0.8334  0.1690 -0.4236
 9354SOL    HW238532   1.927   2.035   4.524  1.6755  1.7376 -0.9232
 9355SOL     OW38533   0.867   9.881   3.893  1.2775  0.0091  0.4130
 9355SOL    HW138534   0.785   9.878   3.835  0.4494  0.7059  1.5314
 9355SOL    HW238535   0.930   9.950   3.857  2.1326 -1.6449 -1.3994
 9356SOL     OW38536   4.707   7.577   2.276  0.2331  0.2695  0.2103
 9356SOL    HW138537   4.675   7.634   2.201  0.3299 -1.0840 -0.8819
 9356SOL    HW238538   4.775   7.512   2.242  1.2641  0.5135  1.7284
 9357SOL     OW38539   3.363   5.256   3.675 -0.1940 -0.2455  0.2562
 9357SOL    HW138540   3.344   5.158   3.680 -0.4740 -0.2269 -0.3572
 9357SOL    HW238541   3.400   5.279   3.585  1.6551 -0.0766  1.0362
 9358SOL     OW38542   2.728   0.662   1.776  0.1444 -0.0874  0.1414
 9358SOL    HW138543   2.753   0.606   1.697 -0.9815 -1.3463  0.6502
 9358SOL    HW238544   2.638   0.633   1.810  0.7411  0.2333  2.0582
 9359SOL     OW38545   0.297   7.173   2.478  0.1189  0.1695  0.5106
 9359SOL    HW138546   0.235   7.207   2.549 -0.1325  0.7235  0.0344
 9359SOL    HW238547   0.332   7.083   2.504 -0.6872 -0.0328  0.8964
 9360SOL     OW38548   1.774   6.814   4.144 -0.0695  0.3421 -0.4712
 9360SOL    HW138549   1.682   6.777   4.135  0.0337  0.1228 -0.6176
 9360SOL    HW238550   1.820   6.773   4.222  0.1065  0.0341 -0.7364
 9361SOL     OW38551   0.335   6.054   3.897  0.4081  0.2170 -0.3416
 9361SOL    HW138552   0.257   6.089   3.948  0.0439 -2.1379  0.7942
 9361SOL    HW238553   0.303   5.998   3.820  0.9437 -1.0203  0.3152
 9362SOL     OW38554   2.226   1.549   1.286  0.5607  0.7049  0.3466
 9362SOL    HW138555   2.288   1.599   1.347  0.6998  0.9413  0.0122
 9362SOL    HW238556   2.174   1.482   1.339  0.3120  1.2608  0.8088
 9363SOL     OW38557   1.359   9.899   1.892 -0.0032 -0.8101  0.1897
 9363SOL    HW138558   1.363   9.891   1.992  1.1659 -0.2201  0.1998
 9363SOL    HW238559   1.451   9.910   1.856 -0.3289 -2.0696 -1.0606
 9364SOL     OW38560   0.668   1.513   1.099  0.0036 -0.3775  0.2035
 9364SOL    HW138561   0.580   1.532   1.055  0.0269 -2.2329 -0.6852
 9364SOL    HW238562   0.653   1.486   1.194 -0.3685 -0.3041  0.1661
 9365SOL     OW38563   1.099   5.434   0.010 -0.3502 -1.2633  0.6070
 9365SOL    HW138564   1.021   5.375  -0.012 -0.9543  0.5934 -2.6776
 9365SOL    HW238565   1.157   5.443  -0.071  1.2475  0.3703  1.8959
 9366SOL     OW38566   0.587   3.120   2.024  0.3051  0.2240 -0.1351
 9366SOL    HW138567   0.557   3.064   2.101 -3.6877  1.1840 -0.8711
 9366SOL    HW238568   0.600   3.215   2.056 -1.1099  0.5702 -0.5634
 9367SOL     OW38569   2.100   5.976   2.019 -0.1878 -0.0441  0.4008
 9367SOL    HW138570   2.190   6.008   1.989 -0.0389 -0.4971  0.3625
 9367SOL    HW238571   2.038   6.054   2.026 -0.1999  0.0803 -0.9950
  10.00000  10.00000   4.78122
