Written by MDAnalysis
14447
    1CHTO  H203    1   5.560   6.855   2.062 -0.4449 -3.6932 -0.4008
    1CHTO   O82    2   5.631   6.870   2.003 -0.9223  0.4358 -0.1247
    1CHTO  C123    3   5.751   6.818   2.060  0.5144 -0.0066 -0.2994
    1CHTO  H227    4   5.772   6.885   2.144  1.0038  0.9020 -1.1364
    1CHTO   O77    5   5.711   6.686   2.098  0.0854 -0.2251 -0.4143
    1CHTO  C118    6   5.811   6.598   2.167 -0.5478 -0.7692  1.1046
    1CHTO  H222    7   5.844   6.645   2.261  1.9233  2.0184 -1.0715
    1CHTO  C125    8   5.742   6.458   2.205 -0.8949  0.3344 -0.4075
    1CHTO   O84    9   5.684   6.458   2.332 -0.1513  0.2458 -0.7597
    1CHTO  H205   10   5.622   6.529   2.334  0.6359  0.9325  0.4119
    1CHTO  C114   11   5.929   6.586   2.066 -0.4386  0.6834  0.2766
    1CHTO  H218   12   5.897   6.529   1.978  1.9700 -0.9124  0.3684
    1CHTO  C116   13   5.981   6.716   2.009  0.4004 -0.5184 -0.1039
    1CHTO  H220   14   6.038   6.768   2.088  0.6266 -0.1094 -0.5317
    1CHTO   O79   15   6.079   6.670   1.917  0.3212  0.1325  0.6735
    1CHTO  H201   16   6.131   6.606   1.963 -0.6588 -0.1152  1.4452
    1CHTO  C120   17   5.865   6.805   1.955  0.0337  0.3769 -0.1178
    1CHTO  H224   18   5.824   6.761   1.862  2.2169 -0.1979 -0.8418
    1CHTO   N21   19   5.930   6.935   1.914  0.2688 -0.8387 -0.0516
    1CHTO  H211   20   5.865   6.972   1.837  0.8391 -0.4922 -0.3703
    1CHTO  H212   21   5.925   7.008   1.994  1.4838  0.2544 -0.9537
    1CHTO   O75   22   6.026   6.518   2.150  0.1233 -0.5374  0.2874
    1CHTO  C112   23   6.067   6.366   2.107  0.5452  0.1338  0.2403
    1CHTO  H216   24   6.032   6.347   2.004 -2.4506 -1.1890  1.4566
    1CHTO   O73   25   6.006   6.278   2.196  0.2638 -0.3596  0.0344
    1CHTO  C113   26   6.020   6.136   2.161  0.6711  0.1470 -0.0657
    1CHTO  H217   27   5.995   6.119   2.054  1.0543  0.5333 -0.2200
    1CHTO  C124   28   5.935   6.045   2.242  0.0903 -0.2688  0.3106
    1CHTO   O83   29   5.801   6.094   2.259 -0.9889  0.0417  0.9067
    1CHTO  H204   30   5.781   6.089   2.350 -0.2949  0.9789  1.1062
    1CHTO  C109   31   6.172   6.099   2.176 -0.6241  0.1583 -0.4314
    1CHTO  H213   32   6.201   6.113   2.281 -2.3392 -1.3042  0.2455
    1CHTO  C110   33   6.253   6.196   2.083  0.3519  0.0234  0.5686
    1CHTO  H214   34   6.228   6.173   1.979  0.4004  2.8939 -0.1097
    1CHTO   O78   35   6.394   6.170   2.091  0.0098  0.1785 -0.0377
    1CHTO  H200   36   6.405   6.130   2.175  0.3789  0.7461  0.1880
    1CHTO  C111   37   6.224   6.344   2.111 -0.0909  0.0931  0.5867
    1CHTO  H215   38   6.261   6.372   2.211  0.1251  0.9514  0.2744
    1CHTO   N19   39   6.298   6.432   2.012  0.1555 -0.1587 -0.1352
    1CHTO  H207   40   6.257   6.532   2.015 -0.7120 -0.4776 -0.9197
    1CHTO  H208   41   6.400   6.439   2.046 -0.0385  1.3998  0.1720
    1CHTO   O74   42   6.190   5.954   2.142  0.3073 -0.2672 -0.3908
    1CHTO  C115   43   6.277   5.866   2.223 -0.6003  0.6510  0.8200
    1CHTO  H219   44   6.283   5.900   2.326 -3.4510 -0.6392  1.4614
    1CHTO   O76   45   6.222   5.727   2.234 -0.1369  0.0892 -0.7790
    1CHTO  C122   46   6.210   5.642   2.122 -0.2647 -0.4839 -0.8122
    1CHTO  H226   47   6.111   5.666   2.082 -0.2337 -0.5266 -0.9124
    1CHTO  C126   48   6.200   5.501   2.172  0.5761 -0.0583  0.0408
    1CHTO   O85   49   6.325   5.460   2.227 -0.3003 -0.7477 -0.0351
    1CHTO  H206   50   6.333   5.383   2.280 -3.3226 -0.2567  1.2277
    1CHTO  C121   51   6.325   5.664   2.013  0.5294  0.2092  0.1119
    1CHTO  H225   52   6.356   5.569   1.965  0.3248  0.4844 -0.5626
    1CHTO   O81   53   6.278   5.753   1.912  0.2038  0.4242  0.0784
    1CHTO  H202   54   6.217   5.814   1.948 -0.0461  0.9030 -1.1335
    1CHTO  C119   55   6.455   5.727   2.090  0.3253 -0.0086  1.0933
    1CHTO  H223   56   6.489   5.662   2.170 -1.4697 -3.1631 -0.6045
    1CHTO  C117   57   6.422   5.868   2.151  0.4345 -0.2872 -0.1455
    1CHTO  H221   58   6.423   5.942   2.071 -0.9191  0.0056  0.0945
    1CHTO   N20   59   6.531   5.919   2.245  0.3749  0.0123 -0.4467
    1CHTO  H209   60   6.540   5.836   2.314 -1.0661  1.5797  1.7041
    1CHTO  H210   61   6.621   5.941   2.191  1.0510 -0.3935  0.4984
    1CHTO   O80   62   6.594   5.739   1.996 -0.3417  0.5742  0.0210
    1CHTO  C103   63   6.711   5.622   2.002  0.1507 -0.7045 -0.1352
    1CHTO  H190   64   6.719   5.581   2.103  0.0820  0.0888  0.1904
    1CHTO  C101   65   6.703   5.503   1.910  0.0306 -0.1934  0.0512
    1CHTO  H188   66   6.696   5.547   1.810  2.1103 -0.6230 -0.2993
    1CHTO   O68   67   6.585   5.433   1.939  0.2603 -0.7492  0.0788
    1CHTO  H168   68   6.593   5.348   1.901  1.1002 -0.2833 -0.8036
    1CHTO   C99   69   6.829   5.406   1.915 -0.5458 -0.1169  0.0522
    1CHTO  H186   70   6.835   5.345   2.007  0.5559 -1.5291 -0.9360
    1CHTO   N17   71   6.828   5.296   1.808 -0.2874 -0.3234 -0.3952
    1CHTO  H174   72   6.728   5.293   1.768 -0.2950 -0.3930 -0.3710
    1CHTO  H175   73   6.864   5.205   1.854  0.1042  0.8255  1.6219
    1CHTO   C97   74   6.960   5.489   1.913 -0.3766  0.0527  0.9232
    1CHTO  H184   75   6.970   5.521   1.808 -2.1562 -0.2094  0.6524
    1CHTO   O64   76   6.954   5.600   2.004  0.1728 -0.4623 -0.3795
    1CHTO  C104   77   6.844   5.696   1.980  0.5046  0.2876 -0.5948
    1CHTO  H191   78   6.853   5.729   1.877 -2.1288  2.0107 -0.3251
    1CHTO  C108   79   6.869   5.822   2.063  0.7381  0.0365 -0.7316
    1CHTO   O71   80   6.977   5.898   2.012 -0.1240  0.1390  0.3026
    1CHTO  H171   81   7.054   5.846   1.999 -0.0914  0.6908 -1.9213
    1CHTO   O62   82   7.069   5.403   1.948  0.2936  0.2431 -0.0942
    1CHTO   C91   83   7.181   5.395   1.855  0.0957  0.1547 -0.4729
    1CHTO  H178   84   7.123   5.375   1.765 -3.2838  1.0962  1.4313
    1CHTO   C92   85   7.246   5.254   1.890  0.0643 -0.2937 -0.5432
    1CHTO  H179   86   7.255   5.249   1.999  1.3853 -0.4670 -0.6588
    1CHTO   O66   87   7.160   5.142   1.850 -0.2666 -0.0469 -0.2452
    1CHTO  H166   88   7.190   5.064   1.891 -2.4995 -0.4909  0.6146
    1CHTO   C93   89   7.396   5.235   1.833 -0.1010 -0.0297  0.2179
    1CHTO  H180   90   7.390   5.220   1.724 -0.8433  2.6943 -0.1317
    1CHTO   N16   91   7.473   5.114   1.886 -0.4536  0.7697 -0.1742
    1CHTO  H172   92   7.429   5.070   1.974  2.7714  0.1283  1.1967
    1CHTO  H173   93   7.493   5.035   1.815 -2.1352 -0.5750  0.7993
    1CHTO   C94   94   7.480   5.369   1.851 -0.3248 -0.3346  0.2675
    1CHTO  H181   95   7.489   5.397   1.956  2.0943  1.6151 -0.3966
    1CHTO   O61   96   7.407   5.475   1.787  0.0275 -0.5154 -0.2852
    1CHTO   C95   97   7.286   5.509   1.868  0.7953 -0.5781 -0.1127
    1CHTO  H182   98   7.318   5.533   1.970  2.9892  0.0905 -0.9160
    1CHTO  C106   99   7.234   5.642   1.813 -0.1036 -0.2619 -0.4399
    1CHTO   O69  100   7.331   5.744   1.811 -0.4062 -0.2804 -0.6161
    1CHTO  H169  101   7.412   5.723   1.854 -0.6276  1.4101  0.7011
    1CHTO   O63  102   7.613   5.355   1.777 -0.0480 -0.0219  0.1243
    1CHTO   C96  103   7.733   5.424   1.839  0.2683  0.0964  0.2087
    1CHTO  H183  104   7.700   5.501   1.909  0.7372  0.2880  0.2210
    1CHTO   C98  105   7.827   5.490   1.732  0.6391 -0.2432  0.9820
    1CHTO  H185  106   7.764   5.544   1.660  0.3108  1.0410  2.2120
    1CHTO   O67  107   7.918   5.582   1.795  0.0994  0.7090  0.3646
    1CHTO  H167  108   7.974   5.540   1.857  1.0571 -0.7850 -1.4552
    1CHTO  C102  109   7.918   5.384   1.653  0.4241  0.0164 -0.1576
    1CHTO  H189  110   8.007   5.440   1.623  0.5842  0.0402  0.3484
    1CHTO   N18  111   7.862   5.335   1.525 -0.1371  0.0324 -0.2508
    1CHTO  H176  112   7.847   5.425   1.466  0.1817 -0.0070 -0.3910
    1CHTO  H177  113   7.927   5.268   1.469 -0.2422 -0.0069 -0.3263
    1CHTO  C105  114   7.968   5.267   1.744  0.9406 -0.0230 -0.4294
    1CHTO  H192  115   7.909   5.178   1.723 -0.6094  0.4887  1.6073
    1CHTO   O65  116   7.953   5.299   1.882 -0.7483  0.0578 -0.1104
    1CHTO  C100  117   7.817   5.322   1.920 -0.4530 -0.3935 -0.0504
    1CHTO  H187  118   7.772   5.221   1.919  2.3984 -1.7083  0.3607
    1CHTO  C107  119   7.825   5.354   2.072  0.5869 -0.1652 -0.5429
    1CHTO   O70  120   7.937   5.447   2.105 -0.1293 -0.0214  0.1112
    1CHTO  H170  121   7.922   5.495   2.184 -1.5730 -1.7173  0.9078
    1CHTO   O57  122   8.110   5.245   1.711  0.2402  0.7358 -0.0345
    1CHTO   C85  123   8.161   5.113   1.692 -0.1702  0.2022 -0.1807
    1CHTO  H157  124   8.090   5.065   1.622 -0.6135  0.6291 -0.0286
    1CHTO   C83  125   8.152   5.020   1.827  0.1230 -0.8590 -0.1645
    1CHTO  H155  126   8.050   5.014   1.863 -0.1819  1.8674 -0.4121
    1CHTO   O56  127   8.221   5.093   1.929 -0.2119 -0.6930 -0.5860
    1CHTO  H135  128   8.213   5.051   2.012 -0.9839  0.5904  0.0141
    1CHTO   C81  129   8.204   4.879   1.794 -0.1042  0.2380  0.7943
    1CHTO  H153  130   8.144   4.844   1.710  0.9913  1.7065 -0.6354
    1CHTO   N14  131   8.176   4.775   1.895 -0.0555 -0.2328  0.3666
    1CHTO  H141  132   8.091   4.806   1.952  0.0585 -0.1135  0.4685
    1CHTO  H142  133   8.151   4.681   1.851  0.2761 -0.6177  0.9964
    1CHTO   C79  134   8.359   4.890   1.741  0.2037 -0.5703 -1.3259
    1CHTO  H151  135   8.390   4.790   1.711  1.3266 -1.3979  2.3462
    1CHTO   O52  136   8.362   4.975   1.619  0.1969  0.0920 -0.1386
    1CHTO   C86  137   8.311   5.109   1.634 -0.2911  0.0954 -0.2585
    1CHTO  H158  138   8.375   5.165   1.705  1.1114 -1.4188 -0.2754
    1CHTO   C90  139   8.313   5.194   1.498  0.7714 -1.4114  0.2810
    1CHTO   O60  140   8.442   5.215   1.446  0.0427 -0.9232  0.3546
    1CHTO  H138  141   8.480   5.129   1.437 -0.0470 -0.6867 -2.6730
    1CHTO   O50  142   8.443   4.938   1.846  0.0777  0.0582 -0.5489
    1CHTO   C73  143   8.579   4.972   1.806  0.0660  0.8033  0.1089
    1CHTO  H145  144   8.584   5.041   1.721  2.5198 -0.3084 -0.7085
    1CHTO   C74  145   8.678   4.850   1.778  0.4572 -0.0137  0.6065
    1CHTO  H146  146   8.636   4.789   1.697  2.8284 -1.7563  0.6317
    1CHTO   O54  147   8.797   4.906   1.717 -0.0413  0.0735 -0.5173
    1CHTO  H133  148   8.822   4.868   1.634 -2.0746  1.7971 -1.9504
    1CHTO   C75  149   8.693   4.765   1.906 -0.9045 -0.0701 -0.9113
    1CHTO  H147  150   8.596   4.717   1.924 -1.3966  1.2763  0.1794
    1CHTO   N13  151   8.788   4.650   1.893  0.2730 -0.4059 -0.5462
    1CHTO  H139  152   8.892   4.681   1.893  0.3638 -0.4252  3.4547
    1CHTO  H140  153   8.763   4.566   1.956  0.0717  0.4184  0.4868
    1CHTO   C76  154   8.729   4.850   2.033  0.6203  0.4675  0.0600
    1CHTO  H148  155   8.833   4.877   2.021  0.7651 -1.2553 -3.1881
    1CHTO   O49  156   8.651   4.972   2.040  0.2716  0.0526  0.0809
    1CHTO   C77  157   8.637   5.059   1.927  0.2181  0.7295 -0.2548
    1CHTO  H149  158   8.733   5.101   1.894  0.4340  0.6762  0.2974
    1CHTO   C88  159   8.544   5.174   1.965 -0.0915 -0.0249 -0.5794
    1CHTO   O58  160   8.616   5.232   2.084  0.0113  0.7813 -0.3769
    1CHTO  H136  161   8.562   5.262   2.155 -3.3111 -1.2768 -1.9053
    1CHTO   O51  162   8.718   4.772   2.169  0.2702 -0.4879  0.0124
    1CHTO   C78  163   8.641   4.834   2.280  0.0444  0.3062  0.1307
    1CHTO  H150  164   8.627   4.941   2.253  0.4892 -0.2929 -2.5906
    1CHTO   C80  165   8.719   4.829   2.414 -0.4636  0.5202  0.5889
    1CHTO  H152  166   8.738   4.723   2.439 -0.0674  0.5995  0.6193
    1CHTO   O55  167   8.846   4.883   2.392 -0.7386  0.5794 -0.3338
    1CHTO  H134  168   8.906   4.832   2.442 -1.3854 -0.5640 -0.7207
    1CHTO   C84  169   8.640   4.910   2.520 -0.4492 -0.1148  0.2750
    1CHTO  H156  170   8.644   5.010   2.478 -0.2539 -1.3421 -2.7339
    1CHTO   N15  171   8.721   4.910   2.653 -0.3030  0.5934 -0.2979
    1CHTO  H143  172   8.787   4.994   2.664 -0.0728  0.4108 -0.2929
    1CHTO  H144  173   8.669   4.890   2.745 -0.0670  1.6581  0.0773
    1CHTO   C87  174   8.491   4.869   2.526  0.0556  0.2177  0.1028
    1CHTO  H159  175   8.489   4.776   2.582 -0.8092 -0.5831 -1.2134
    1CHTO   O53  176   8.428   4.855   2.395 -0.3319 -0.0822 -0.3747
    1CHTO   C82  177   8.503   4.773   2.306 -0.1130 -0.0197 -0.4032
    1CHTO  H154  178   8.527   4.682   2.361  0.8562  1.0179  0.9409
    1CHTO   C89  179   8.421   4.737   2.181  0.2446  0.4021 -0.6333
    1CHTO   O59  180   8.379   4.857   2.113  0.3006 -0.2347 -0.1137
    1CHTO  H137  181   8.326   4.827   2.042 -0.3859 -1.6367  0.9595
    1CHTO   O45  182   8.423   5.001   2.606 -0.4620 -0.3611  0.6941
    1CHTO   C67  183   8.298   5.057   2.550 -0.4995 -0.2441  0.3482
    1CHTO  H124  184   8.254   4.973   2.496  0.6072  0.1163 -1.1563
    1CHTO   C65  185   8.206   5.116   2.659  0.1387 -0.7534 -0.2644
    1CHTO  H122  186   8.217   5.057   2.750 -1.6196 -2.5236 -1.1607
    1CHTO   O44  187   8.071   5.093   2.618  0.6427 -1.1557  0.7989
    1CHTO  H102  188   8.018   5.141   2.678  0.0710 -1.4894  0.5619
    1CHTO   C63  189   8.251   5.260   2.701 -0.9386 -0.4428 -0.4517
    1CHTO  H120  190   8.354   5.253   2.735 -0.9001 -0.8566 -0.6520
    1CHTO   N11  191   8.178   5.312   2.818 -0.0940 -0.0120 -0.3640
    1CHTO  H108  192   8.242   5.343   2.898 -0.1822  1.7622 -0.9523
    1CHTO  H109  193   8.112   5.243   2.866  2.2048 -1.2222  1.1148
    1CHTO   C61  194   8.251   5.359   2.578  0.1395  0.5078 -0.5176
    1CHTO  H118  195   8.302   5.447   2.620  2.1695 -1.3444  0.9979
    1CHTO   O40  196   8.355   5.303   2.483 -0.4580 -0.1359 -0.2665
    1CHTO   C68  197   8.333   5.168   2.438  0.3080 -0.1029  0.0688
    1CHTO  H125  198   8.428   5.133   2.393  1.2316  2.2787  0.1458
    1CHTO   C72  199   8.228   5.175   2.329  0.7876 -0.1772 -0.1439
    1CHTO   O48  200   8.207   5.051   2.274 -0.5313 -0.0535  0.1111
    1CHTO  H105  201   8.143   5.013   2.331 -1.0134 -0.8398 -0.9331
    1CHTO   O38  202   8.129   5.379   2.507  0.0731  0.4205 -0.5369
    1CHTO   C55  203   8.078   5.517   2.511 -0.6602 -0.2721  0.6693
    1CHTO  H112  204   8.116   5.573   2.598  0.3684 -0.6151  0.4431
    1CHTO   C56  205   7.921   5.509   2.512  0.1198  0.0371  0.3251
    1CHTO  H113  206   7.897   5.454   2.420 -0.7305  0.4021  0.3275
    1CHTO   O42  207   7.874   5.427   2.625 -0.6906  0.5234  0.7999
    1CHTO  H100  208   7.829   5.350   2.597 -1.6014  0.9844  1.0105
    1CHTO   C57  209   7.846   5.643   2.518  0.1162 -0.1393  0.0686
    1CHTO  H114  210   7.874   5.683   2.616  2.4590  2.1234 -1.4302
    1CHTO   N10  211   7.701   5.633   2.499  0.3285  0.2503 -0.0254
    1CHTO  H106  212   7.645   5.626   2.591 -0.5421 -1.9769 -0.6751
    1CHTO  H107  213   7.679   5.546   2.438  1.6473 -0.5150  0.5683
    1CHTO   C58  214   7.916   5.738   2.415  0.1736 -0.0576  0.2137
    1CHTO  H115  215   7.860   5.730   2.319  1.7606  2.3441 -0.9635
    1CHTO   O37  216   8.058   5.725   2.394 -0.0760  0.0402  0.3145
    1CHTO   C59  217   8.118   5.596   2.391  0.2154 -0.1880  0.4655
    1CHTO  H116  218   8.089   5.541   2.301  0.6187  0.9005 -0.3429
    1CHTO   C70  219   8.264   5.606   2.378 -0.5168  0.1580 -0.4118
    1CHTO   O46  220   8.301   5.667   2.254 -0.2516 -0.2226  0.0425
    1CHTO  H103  221   8.335   5.601   2.196  0.7193 -1.1782  1.6370
    1CHTO   O39  222   7.914   5.887   2.497  0.2554  0.1052  0.0057
    1CHTO   C60  223   7.885   5.993   2.410  0.3599 -0.4620 -0.1069
    1CHTO  H117  224   7.917   5.967   2.309 -0.0924 -0.6319 -0.2107
    1CHTO   C62  225   7.724   6.016   2.399 -0.0715 -0.2122 -0.6786
    1CHTO  H119  226   7.676   5.919   2.373  1.0652 -1.3789  1.4392
    1CHTO   O43  227   7.678   6.029   2.536  0.2629 -0.4804 -0.2214
    1CHTO  H101  228   7.584   6.036   2.540 -0.0149 -3.0235 -1.4419
    1CHTO   C66  229   7.699   6.137   2.293  0.4361  0.9160 -0.0913
    1CHTO  H123  230   7.744   6.108   2.198 -0.8256 -2.0401  0.1405
    1CHTO   N12  231   7.555   6.156   2.269  0.2128 -0.6237 -0.2386
    1CHTO  H110  232   7.500   6.064   2.257 -1.4811  0.4529 -0.8977
    1CHTO  H111  233   7.542   6.210   2.176 -0.1114  0.9146  0.6835
    1CHTO   C69  234   7.769   6.265   2.350 -0.3468  0.4442  0.5994
    1CHTO  H126  235   7.748   6.269   2.459 -0.8357 -1.1823  0.5753
    1CHTO   O41  236   7.897   6.261   2.347 -0.0801  0.2236 -0.2864
    1CHTO   C64  237   7.953   6.121   2.449 -0.4688 -0.3997  0.3484
    1CHTO  H121  238   7.935   6.148   2.555  1.1250  3.2691 -0.2220
    1CHTO   C71  239   8.108   6.099   2.447  0.1823 -0.2325  0.7089
    1CHTO   O47  240   8.165   6.199   2.365  0.2634  0.6953  0.0028
    1CHTO  H104  241   8.111   6.213   2.289 -4.1271 -1.3069  2.5316
    1CHTO   O34  242   7.726   6.401   2.257  0.2923 -0.8327 -0.8576
    1CHTO   C49  243   7.634   6.518   2.317 -0.4004  0.2586  0.4860
    1CHTO   H91  244   7.572   6.463   2.388  0.1090  1.3227  1.7851
    1CHTO   C47  245   7.561   6.598   2.200  0.3675 -0.3120  0.9263
    1CHTO   H89  246   7.493   6.667   2.255  0.2774 -0.8656  1.5153
    1CHTO   O33  247   7.484   6.509   2.118  0.8746  0.0398 -0.0136
    1CHTO   H70  248   7.431   6.559   2.059 -1.0382  0.7447  2.2342
    1CHTO   C45  249   7.675   6.686   2.118  0.0266  0.2705  0.0576
    1CHTO   H87  250   7.758   6.617   2.096 -1.3444 -1.9006  1.4072
    1CHTO    N8  251   7.634   6.752   1.992  0.0796  0.1854 -0.7016
    1CHTO   H75  252   7.558   6.829   1.994 -0.2703 -0.1529 -0.9687
    1CHTO   H76  253   7.605   6.684   1.914 -2.0904 -0.0714  0.3018
    1CHTO   C43  254   7.736   6.788   2.232 -0.3866 -0.1183  0.9135
    1CHTO   H85  255   7.804   6.853   2.177 -2.2686  1.4886  0.4309
    1CHTO   O29  256   7.799   6.712   2.336 -0.2298  0.6948 -0.2279
    1CHTO   C50  257   7.725   6.612   2.399  0.5668 -0.0558 -0.8475
    1CHTO   H92  258   7.805   6.548   2.438 -0.9025 -1.2293  0.3057
    1CHTO   C54  259   7.667   6.682   2.525 -0.9392  0.1586 -0.6451
    1CHTO   O36  260   7.615   6.593   2.626  0.1997 -0.0811  0.1539
    1CHTO   H72  261   7.582   6.635   2.703  0.6225 -1.2756  1.0049
    1CHTO   O27  262   7.634   6.869   2.285 -0.1322  0.0240  0.0979
    1CHTO   C37  263   7.560   6.993   2.314  0.0437  0.1412 -0.4444
    1CHTO   H79  264   7.535   7.033   2.215 -0.4751  1.0744  0.0540
    1CHTO   C38  265   7.433   6.958   2.396 -0.6799 -0.9111 -0.2985
    1CHTO   H80  266   7.463   6.888   2.475 -0.5973 -1.3617 -0.7252
    1CHTO   O31  267   7.346   6.890   2.298  0.0288  0.0035  0.0208
    1CHTO   H68  268   7.266   6.870   2.343 -0.6648  2.3637 -0.1210
    1CHTO   C39  269   7.373   7.094   2.448 -0.5381  0.4942 -0.5449
    1CHTO   H81  270   7.315   7.137   2.366 -2.3324  1.2800  1.0948
    1CHTO    N7  271   7.259   7.059   2.550  0.0089  0.5159  0.1799
    1CHTO   H73  272   7.294   7.050   2.652 -0.5675  0.5007  0.3781
    1CHTO   H74  273   7.192   7.144   2.544 -2.5036 -1.3611  0.7094
    1CHTO   C40  274   7.474   7.203   2.506 -0.5156 -0.9516 -0.0246
    1CHTO   H82  275   7.517   7.174   2.602 -0.5048  1.0940  0.6067
    1CHTO   O26  276   7.573   7.228   2.406  0.0233  0.7628 -0.3414
    1CHTO   C41  277   7.648   7.108   2.385  0.1499 -0.6321 -0.0932
    1CHTO   H83  278   7.703   7.065   2.470 -0.3055 -1.4018 -0.1830
    1CHTO   C52  279   7.755   7.152   2.283 -0.2900 -0.3589  0.0190
    1CHTO   O35  280   7.847   7.279   2.333  0.1089  0.6401 -0.2497
    1CHTO   H71  281   7.870   7.330   2.258  0.9618  0.8655  0.1616
    1CHTO   O28  282   7.428   7.340   2.521 -0.4075  0.2975 -0.4095
    1CHTO   C42  283   7.413   7.451   2.421 -0.7038  0.3190 -0.0125
    1CHTO   H84  284   7.427   7.400   2.326 -1.1829 -0.4294  0.3166
    1CHTO   C44  285   7.513   7.573   2.422 -0.2223 -0.0132  0.0278
    1CHTO   H86  286   7.510   7.612   2.524 -1.2746 -1.1974  0.4640
    1CHTO   O32  287   7.644   7.518   2.387 -0.4633  0.5423  0.1698
    1CHTO   H69  288   7.635   7.444   2.331  0.0056  1.5223 -1.2450
    1CHTO   C48  289   7.484   7.703   2.333  0.2293  0.3904  0.5720
    1CHTO   H90  290   7.524   7.684   2.233 -1.7551 -1.0689  0.0061
    1CHTO    N9  291   7.556   7.825   2.364 -0.1733  0.4817 -0.0264
    1CHTO   H77  292   7.496   7.909   2.331 -1.8605 -1.3623 -1.7425
    1CHTO   H78  293   7.565   7.831   2.471  0.2232  2.8231 -0.1534
    1CHTO   C51  294   7.333   7.724   2.307  0.9655 -0.3661 -0.0921
    1CHTO   H93  295   7.291   7.790   2.383 -1.8147  0.2469 -2.0894
    1CHTO   O30  296   7.259   7.603   2.297  0.0719  0.0547 -0.0018
    1CHTO   C46  297   7.272   7.515   2.417  0.6971 -0.4466  0.4591
    1CHTO   H88  298   7.246   7.578   2.502  3.5888  1.0290  0.2975
    1CHTO   C53  299   7.163   7.398   2.401  0.6320  0.2806  0.4923
    1CHTO   O72  300   7.043   7.471   2.411  0.2139  0.1631  0.7353
    1CHTO  H199  301   6.975   7.408   2.401  1.0408 -1.0468  2.4832
    1CHTO   O22  302   7.307   7.783   2.179  0.3834  0.3942 -0.4502
    1CHTO   C31  303   7.190   7.840   2.124 -0.7699  0.5147  0.6557
    1CHTO   H59  304   7.110   7.834   2.200 -2.0241  1.8669 -0.5240
    1CHTO   C29  305   7.207   7.991   2.092  0.1724  0.1535  0.1310
    1CHTO   H57  306   7.312   7.998   2.059 -0.0843  0.4507 -0.6340
    1CHTO   O21  307   7.193   8.064   2.214  0.7390 -0.6279 -0.1516
    1CHTO   H37  308   7.177   8.154   2.196  2.6425 -0.4172 -0.9031
    1CHTO   C27  309   7.109   8.053   1.984  0.3093  0.1831  0.0008
    1CHTO   H55  310   7.012   8.067   2.033 -0.7316  0.1330 -1.9903
    1CHTO    N5  311   7.159   8.191   1.938  0.5281  0.0010  0.8507
    1CHTO   H43  312   7.184   8.237   2.032  0.1884  0.3733  0.7615
    1CHTO   H44  313   7.234   8.192   1.860 -1.3388  0.2227 -1.0077
    1CHTO   C25  314   7.079   7.957   1.873 -0.0765 -0.1630 -0.0911
    1CHTO   H53  315   7.168   7.930   1.814 -1.4273 -0.1672 -2.1817
    1CHTO   O17  316   7.036   7.827   1.930 -0.3977  0.4427  0.0449
    1CHTO   C32  317   7.144   7.758   1.995 -0.8588  0.0515  0.3127
    1CHTO   H60  318   7.226   7.756   1.923 -0.8798  0.7940  0.2677
    1CHTO   C36  319   7.104   7.615   2.030  0.3871 -0.5582 -0.7700
    1CHTO   O25  320   6.974   7.601   2.097  0.0622  0.3992 -0.3702
    1CHTO   H40  321   6.923   7.529   2.066 -1.7118  1.4877 -0.0471
    1CHTO   O15  322   6.965   8.009   1.781 -0.3156 -0.1428  0.6829
    1CHTO   C19  323   6.921   7.964   1.649 -0.0011 -0.4740 -0.7884
    1CHTO   H47  324   6.829   8.022   1.632  1.6156  2.0681 -1.1017
    1CHTO   C20  325   7.014   8.010   1.534 -0.7153  0.2533  0.5489
    1CHTO   H48  326   7.119   7.983   1.555 -0.3118  0.0817 -1.5741
    1CHTO   O19  327   6.998   8.152   1.522  0.3403 -0.2402 -0.0189
    1CHTO   H35  328   7.060   8.201   1.573  0.3286 -1.3788  1.1080
    1CHTO   C21  329   6.976   7.933   1.401  0.3545 -0.0890  0.6529
    1CHTO   H49  330   6.882   7.979   1.370  0.0461 -1.0080  0.1943
    1CHTO    N4  331   7.075   7.950   1.297 -0.6996 -0.2524  0.1295
    1CHTO   H41  332   7.176   7.951   1.335 -0.0231 -0.5803 -1.6060
    1CHTO   H42  333   7.064   8.025   1.220 -1.0986  0.0061  0.4356
    1CHTO   C22  334   6.956   7.782   1.425 -0.4027  0.9367  0.4318
    1CHTO   H50  335   7.051   7.736   1.451 -0.0233  0.4728 -1.6764
    1CHTO   O14  336   6.863   7.763   1.532  0.2637  0.5278 -0.0958
    1CHTO   C23  337   6.884   7.808   1.663  0.1948  0.6312  0.3700
    1CHTO   H51  338   6.966   7.751   1.710 -1.7232 -2.2618  0.3349
    1CHTO   C34  339   6.760   7.792   1.751  0.3375  0.9882 -0.7608
    1CHTO   O23  340   6.728   7.649   1.743  0.5383  0.5670 -1.0376
    1CHTO   H38  341   6.702   7.625   1.657 -2.5311  2.2495 -0.6267
    1CHTO   O16  342   6.892   7.713   1.316 -0.5919  0.2710 -0.7168
    1CHTO   C24  343   6.965   7.575   1.266 -1.0909 -0.1185  0.0263
    1CHTO   H52  344   7.065   7.564   1.308 -1.3572 -1.2050  0.3982
    1CHTO   C26  345   6.968   7.576   1.111  0.4729 -0.5970 -0.3071
    1CHTO   H54  346   6.866   7.588   1.068  1.5396  0.4627 -2.6679
    1CHTO   O20  347   7.036   7.700   1.072  0.6973 -0.1133 -0.1213
    1CHTO   H36  348   7.129   7.688   1.082  1.0148  0.4062 -2.2709
    1CHTO   C30  349   7.040   7.451   1.053  0.5182 -0.0701 -0.6470
    1CHTO   H58  350   7.148   7.455   1.072  0.9207 -1.2147 -2.4759
    1CHTO    N6  351   7.021   7.449   0.905  0.5971  0.0232 -0.2555
    1CHTO   H45  352   6.919   7.457   0.870  1.0569  2.8597 -1.1276
    1CHTO   H46  353   7.065   7.358   0.869 -0.4574 -0.9476  0.8653
    1CHTO   C33  354   6.982   7.326   1.128 -0.0251 -0.1019 -0.3881
    1CHTO   H61  355   6.879   7.322   1.090  0.6594 -1.5089 -2.1856
    1CHTO   O18  356   6.974   7.337   1.274 -0.1477 -0.5122 -0.0494
    1CHTO   C28  357   6.892   7.448   1.314 -0.2199 -0.6238  0.4590
    1CHTO   H56  358   6.799   7.440   1.259  1.2071 -1.6310 -1.9227
    1CHTO   C35  359   6.873   7.442   1.466  0.1227  0.4872  0.0604
    1CHTO   O24  360   6.991   7.483   1.539  0.2761 -0.0420 -0.9782
    1CHTO   H39  361   6.967   7.544   1.606 -0.0792  0.2598 -1.3791
    1CHTO    O9  362   7.050   7.207   1.085  0.5059 -0.2131 -0.3798
    1CHTO   C13  363   6.983   7.075   1.089  1.3493  0.0645 -0.1210
    1CHTO   H26  364   6.873   7.089   1.083  1.3807 -0.0231 -1.0267
    1CHTO   C11  365   7.022   7.002   1.218  0.0923  0.1840 -0.5266
    1CHTO   H24  366   6.999   7.058   1.309  2.2286 -1.1682  0.8750
    1CHTO    O8  367   7.167   7.002   1.221 -0.0261 -0.4260 -0.2958
    1CHTO    H3  368   7.202   6.994   1.308  0.8691  0.2903 -0.5826
    1CHTO    C9  369   6.966   6.860   1.213 -0.6687  0.2024  0.1639
    1CHTO   H22  370   6.858   6.866   1.193 -0.6930 -1.9667 -0.5563
    1CHTO    N2  371   6.961   6.777   1.332  0.0010  0.3944 -0.0486
    1CHTO   H10  372   6.942   6.671   1.319  3.3307 -0.0765 -1.8245
    1CHTO   H11  373   7.049   6.798   1.391  1.5015  0.1037 -2.0941
    1CHTO    C7  374   7.034   6.780   1.087  0.2155  0.2488  0.2868
    1CHTO   H20  375   6.981   6.683   1.080  1.2472 -0.1659 -2.3383
    1CHTO    O4  376   7.002   6.851   0.967 -0.6261  0.2965  0.4232
    1CHTO   C14  377   7.010   6.996   0.959 -0.6620  0.6951  0.2848
    1CHTO   H27  378   6.934   7.035   0.889  0.8844 -1.7873 -2.8970
    1CHTO   C18  379   7.147   7.024   0.884  0.3573  0.2863  0.0817
    1CHTO   O13  380   7.144   7.153   0.819  0.0286  0.2953  0.1507
    1CHTO    H7  381   7.211   7.156   0.754  1.7221 -0.9651  1.7959
    1CHTO    O2  382   7.214   6.763   1.102 -0.0239  0.0976  0.1646
    1CHTO    C1  383   7.266   6.642   1.048  0.1919  0.4693  0.3839
    1CHTO   H14  384   7.203   6.609   0.963  0.3822 -1.0996  0.8360
    1CHTO    C2  385   7.281   6.532   1.167  0.0238  0.0797 -0.6549
    1CHTO   H15  386   7.326   6.577   1.256  0.1632 -0.8972 -0.2230
    1CHTO    O6  387   7.151   6.486   1.212  0.3678 -0.0566  0.2054
    1CHTO    H1  388   7.102   6.562   1.237  1.9483  0.8230  0.7353
    1CHTO    C3  389   7.363   6.405   1.112 -0.5522 -0.2835  0.8489
    1CHTO   H16  390   7.301   6.361   1.033  0.0037  1.2880 -0.5060
    1CHTO    N1  391   7.383   6.299   1.212 -0.5006 -0.3028  0.2487
    1CHTO    H8  392   7.284   6.266   1.241 -0.2221 -0.8341  0.6029
    1CHTO    H9  393   7.434   6.216   1.167 -1.0463 -0.9993  0.9132
    1CHTO    C4  394   7.489   6.457   1.041 -0.5710 -0.1711  0.4932
    1CHTO   H17  395   7.551   6.503   1.118  0.6122 -1.0242  0.0526
    1CHTO    O1  396   7.464   6.554   0.941 -0.2418  1.4880  0.3665
    1CHTO    C5  397   7.407   6.669   0.998 -0.9458  0.0099 -0.6427
    1CHTO   H18  398   7.457   6.700   1.090 -1.6165 -0.7307 -0.0170
    1CHTO   C16  399   7.406   6.775   0.891 -0.5028  0.7140  0.2098
    1CHTO   O11  400   7.462   6.906   0.936  0.6411  0.0373 -0.2151
    1CHTO    H5  401   7.441   6.968   0.869 -0.2649  0.1342  0.1592
    1CHTO    O3  402   7.557   6.349   0.974  0.2616  0.0299 -0.3964
    1CHTO    C6  403   7.698   6.363   0.937  0.3156 -0.5539 -0.8806
    1CHTO   H19  404   7.729   6.467   0.947  0.8157 -0.8895  1.3769
    1CHTO    C8  405   7.792   6.289   1.036  0.0695  0.1818  0.1595
    1CHTO   H21  406   7.760   6.185   1.037 -0.7779  0.4379  2.2710
    1CHTO    O7  407   7.767   6.352   1.164  0.1853 -0.0339  0.1768
    1CHTO    H2  408   7.831   6.334   1.229  1.5202 -0.2923 -1.1793
    1CHTO   C12  409   7.940   6.300   0.985  1.0589 -0.6386 -0.1189
    1CHTO   H25  410   7.959   6.406   1.013  0.5599 -0.8974  1.2530
    1CHTO    N3  411   8.040   6.243   1.078  0.0060 -0.0495  0.4777
    1CHTO   H12  412   8.133   6.297   1.084  0.3651 -0.7907  1.6305
    1CHTO   H13  413   8.053   6.138   1.056 -0.6400 -0.1153  0.3904
    1CHTO   C15  414   7.953   6.271   0.828 -0.5780 -0.6031 -0.3392
    1CHTO   H28  415   7.938   6.164   0.813 -0.4247 -1.0892  2.7121
    1CHTO   O10  416   8.101   6.326   0.781  0.1138  0.8633 -0.0134
    1CHTO    H4  417   8.099   6.419   0.793  1.1884  0.9210 -0.2713
    1CHTO    O5  418   7.856   6.339   0.753  0.3848 -0.5330 -0.1333
    1CHTO   C10  419   7.721   6.321   0.787  0.8039 -0.2014  0.4842
    1CHTO   H23  420   7.696   6.215   0.778 -3.6058  0.9494 -2.1227
    1CHTO   C17  421   7.631   6.405   0.699 -0.0571 -0.7563  0.1268
    1CHTO   O12  422   7.637   6.347   0.572  0.3878  0.7327  0.3851
    1CHTO    H6  423   7.561   6.299   0.543  1.0188 -2.2896  3.4555
    2CHTO  H203  424   6.834   4.398   2.079 -0.2070  0.0085  1.2579
    2CHTO   O82  425   6.751   4.422   2.043  0.4433 -0.2381 -0.4651
    2CHTO  C123  426   6.668   4.492   2.143 -0.3357  0.4309 -0.5337
    2CHTO  H227  427   6.724   4.585   2.163 -0.3688  0.4086 -0.3407
    2CHTO   O77  428   6.550   4.525   2.068  0.3922 -0.1672 -0.4556
    2CHTO  C118  429   6.465   4.615   2.143  0.8445  0.9446 -0.5219
    2CHTO  H222  430   6.512   4.702   2.190 -1.9705  1.0800  2.1422
    2CHTO  C125  431   6.347   4.654   2.048  0.0579 -0.0175  0.7767
    2CHTO   O84  432   6.380   4.748   1.942  0.3269  0.0202 -0.0670
    2CHTO  H205  433   6.355   4.730   1.853  0.3444 -0.0197 -0.0638
    2CHTO  C114  434   6.404   4.522   2.252 -0.2029  0.6055 -0.5077
    2CHTO  H218  435   6.373   4.430   2.202 -0.3921 -0.3640  1.3614
    2CHTO  C116  436   6.503   4.463   2.351  0.7109 -0.3013 -0.3953
    2CHTO  H220  437   6.546   4.549   2.407  1.7425  0.6613 -2.5994
    2CHTO   O79  438   6.442   4.371   2.432 -0.2569 -0.5813  0.0956
    2CHTO  H201  439   6.491   4.366   2.512  2.8921  0.3139 -1.7029
    2CHTO  C120  440   6.628   4.404   2.268 -0.4708 -0.6747  0.1525
    2CHTO  H224  441   6.593   4.305   2.232 -1.3821  0.2636 -1.6321
    2CHTO   N21  442   6.746   4.369   2.349 -0.5384  0.0671  0.1013
    2CHTO  H211  443   6.839   4.356   2.296  1.1541  0.2243  2.8906
    2CHTO  H212  444   6.748   4.436   2.434  1.1971  0.1818 -0.0104
    2CHTO   O75  445   6.302   4.595   2.325 -0.7580 -0.0517 -0.5388
    2CHTO  C112  446   6.140   4.525   2.323 -0.2227  0.2833 -0.3705
    2CHTO  H216  447   6.120   4.461   2.411 -0.6850 -2.8927 -2.6910
    2CHTO   O73  448   6.126   4.454   2.201 -0.2091 -0.3568  0.1459
    2CHTO  C113  449   6.003   4.384   2.195 -0.5068  0.3356 -0.9040
    2CHTO  H217  450   5.998   4.304   2.272  1.4395  0.8275 -0.2401
    2CHTO  C124  451   6.011   4.315   2.054 -0.4052 -0.3623  0.0875
    2CHTO   O83  452   6.120   4.223   2.048 -0.4426  0.4810 -0.1230
    2CHTO  H204  453   6.150   4.203   1.961  0.1456  2.1974 -0.3305
    2CHTO  C109  454   5.884   4.480   2.202 -0.6123 -0.7344  0.4898
    2CHTO  H213  455   5.885   4.540   2.110  0.3321  0.0337  0.9984
    2CHTO  C110  456   5.902   4.577   2.323  1.0444 -1.1495  0.0951
    2CHTO  H214  457   5.888   4.515   2.412  0.7397 -0.3623  0.6004
    2CHTO   O78  458   5.799   4.680   2.328  0.2383  0.1338  0.2806
    2CHTO  H200  459   5.744   4.680   2.253 -0.2327  1.3608  0.6107
    2CHTO  C111  460   6.045   4.640   2.329  0.3142  0.8812 -0.0566
    2CHTO  H215  461   6.058   4.697   2.236 -2.3656  3.2613  0.9387
    2CHTO   N19  462   6.062   4.731   2.441  0.3306  0.4947  0.3349
    2CHTO  H207  463   5.977   4.781   2.485 -0.6989  1.7041 -2.8843
    2CHTO  H208  464   6.130   4.811   2.414  0.6331  0.2805  0.4536
    2CHTO   O74  465   5.763   4.395   2.207 -0.1578 -0.1281  0.0192
    2CHTO  C115  466   5.654   4.425   2.079  0.4991  0.0501  0.2652
    2CHTO  H219  467   5.701   4.473   1.994  1.2789 -2.2577 -0.6509
    2CHTO   O76  468   5.611   4.283   2.010 -0.1774  0.1661 -0.3264
    2CHTO  C122  469   5.529   4.205   2.100 -0.0016 -0.5227  0.1699
    2CHTO  H226  470   5.596   4.158   2.172 -0.2563 -0.9048  0.1637
    2CHTO  C126  471   5.464   4.090   2.005  0.0860 -0.1281  0.5652
    2CHTO   O85  472   5.354   4.144   1.926 -0.0309 -0.6955 -0.1945
    2CHTO  H206  473   5.307   4.069   1.893 -2.1182 -0.1773  1.5335
    2CHTO  C121  474   5.415   4.276   2.189 -0.4031 -0.1026  0.2155
    2CHTO  H225  475   5.316   4.226   2.189  0.2024 -1.3040 -0.1059
    2CHTO   O81  476   5.440   4.272   2.329 -0.1913  0.2030 -0.1164
    2CHTO  H202  477   5.513   4.327   2.351 -2.6407  3.9825 -1.0345
    2CHTO  C119  478   5.390   4.422   2.137 -0.5514 -0.2822 -0.3964
    2CHTO  H223  479   5.362   4.406   2.033 -0.0602 -1.6346 -0.3257
    2CHTO  C117  480   5.527   4.502   2.140  0.1099  0.0331  0.6345
    2CHTO  H221  481   5.556   4.524   2.243  2.1063 -1.7492  0.4836
    2CHTO   N20  482   5.509   4.635   2.078  0.6539 -0.2741  0.1926
    2CHTO  H209  483   5.608   4.664   2.047  0.3160  0.9777  0.2569
    2CHTO  H210  484   5.472   4.707   2.149 -1.6324 -1.5818  0.3808
    2CHTO   O80  485   5.262   4.494   2.197  0.0289 -0.4382  0.6814
    2CHTO  C103  486   5.156   4.574   2.111 -0.3967 -0.3708 -0.9956
    2CHTO  H190  487   5.214   4.651   2.059  1.1267 -0.1177  1.0318
    2CHTO  C101  488   5.058   4.497   2.020  0.4143  0.0106 -0.7861
    2CHTO  H188  489   4.997   4.424   2.073  1.1577  1.1239  1.6972
    2CHTO   O68  490   5.139   4.421   1.911  0.0290 -0.4800 -0.0647
    2CHTO  H168  491   5.209   4.468   1.871  0.8859 -2.5414 -1.0562
    2CHTO   C99  492   4.963   4.604   1.939 -0.1988 -0.1205 -0.6774
    2CHTO  H186  493   5.019   4.671   1.870 -1.6983 -2.0901 -3.8928
    2CHTO   N17  494   4.875   4.543   1.833  0.1334 -0.3014  0.4805
    2CHTO  H174  495   4.871   4.435   1.842 -0.6476 -0.3432 -0.2952
    2CHTO  H175  496   4.900   4.569   1.731 -2.2995  1.8465  0.3856
    2CHTO   C97  497   4.887   4.693   2.046 -0.3994  0.3128  0.2861
    2CHTO  H184  498   4.797   4.645   2.087 -1.0429  1.5296  0.2997
    2CHTO   O64  499   4.971   4.745   2.151  0.2655  0.4588  0.0538
    2CHTO  C104  500   5.064   4.653   2.214  0.6350  0.2800  0.8643
    2CHTO  H191  501   5.006   4.583   2.273 -1.7244 -0.4322 -2.2110
    2CHTO  C108  502   5.141   4.749   2.308 -0.2619 -0.3162 -0.2017
    2CHTO   O71  503   5.224   4.675   2.396  0.2469 -0.0808  0.0985
    2CHTO  H171  504   5.287   4.734   2.430  1.3925 -1.4102  0.3005
    2CHTO   O62  505   4.857   4.818   1.983  0.3424  0.1971 -0.2212
    2CHTO   C91  506   4.717   4.855   1.980  0.5705  0.2399 -0.8998
    2CHTO  H178  507   4.652   4.784   2.031  1.4860 -0.9782 -1.3886
    2CHTO   C92  508   4.666   4.873   1.829  0.1818  0.1536  0.1848
    2CHTO  H179  509   4.709   4.799   1.760 -3.7337 -1.7542 -0.3340
    2CHTO   O66  510   4.522   4.848   1.814 -0.4412 -0.3195 -0.4379
    2CHTO  H166  511   4.503   4.757   1.825 -0.0697 -0.3657 -0.1699
    2CHTO   C93  512   4.688   5.024   1.767 -0.5594  0.5918  0.4836
    2CHTO  H180  513   4.611   5.032   1.689 -1.4394  1.8870  1.4705
    2CHTO   N16  514   4.826   5.053   1.717  0.2623  0.4130  0.6601
    2CHTO  H172  515   4.813   5.086   1.615  2.0037 -0.9427 -0.0314
    2CHTO  H173  516   4.892   4.967   1.716 -1.1630 -0.7046 -0.3048
    2CHTO   C94  517   4.655   5.134   1.879  0.4867  0.2312 -0.5296
    2CHTO  H181  518   4.737   5.202   1.903 -0.2003  1.0006 -0.3127
    2CHTO   O61  519   4.606   5.069   1.998 -0.8147 -0.0308  0.0088
    2CHTO   C95  520   4.698   4.984   2.061 -0.1991 -0.1906 -1.5814
    2CHTO  H182  521   4.796   5.030   2.065  0.8899 -2.3157 -3.0466
    2CHTO  C106  522   4.649   4.965   2.214 -0.4415  0.0460 -0.3785
    2CHTO   O69  523   4.734   4.886   2.296 -0.0546 -0.1593  0.4041
    2CHTO  H169  524   4.783   4.939   2.355 -1.8124  0.0363  1.7142
    2CHTO   O63  525   4.524   5.216   1.840 -0.1783 -0.1608 -0.1496
    2CHTO   C96  526   4.520   5.344   1.925  0.5090  0.7325 -0.3364
    2CHTO  H183  527   4.604   5.348   1.996  1.8665  1.3533 -1.9487
    2CHTO   C98  528   4.377   5.361   1.999 -0.1305  0.8789  0.4335
    2CHTO  H185  529   4.292   5.353   1.930 -0.8054  1.1978  1.2191
    2CHTO   O67  530   4.361   5.257   2.092 -0.1221 -0.6237 -0.0440
    2CHTO  H167  531   4.374   5.169   2.061  0.3389 -1.1022  1.4630
    2CHTO  C102  532   4.374   5.509   2.062  1.0092 -0.4295  0.2025
    2CHTO  H189  533   4.455   5.522   2.135 -1.4047  2.0395  2.5573
    2CHTO   N18  534   4.248   5.540   2.143 -0.2057 -0.4375 -0.0923
    2CHTO  H176  535   4.257   5.640   2.183 -1.6991 -0.2386 -0.2155
    2CHTO  H177  536   4.231   5.469   2.222 -1.7151  2.3677  2.2122
    2CHTO  C105  537   4.396   5.616   1.950 -0.4186 -0.3385  0.0157
    2CHTO  H192  538   4.322   5.603   1.871  1.6113 -1.6725 -1.7123
    2CHTO   O65  539   4.528   5.592   1.903  0.3461  0.2786  0.6009
    2CHTO  C100  540   4.545   5.463   1.831 -0.6710 -0.6647 -0.9007
    2CHTO  H187  541   4.480   5.453   1.743 -0.4001  1.9018 -1.4438
    2CHTO  C107  542   4.690   5.462   1.781 -0.7064 -0.1754  0.5002
    2CHTO   O70  543   4.703   5.554   1.674 -0.4895  0.6183  1.0662
    2CHTO  H170  544   4.785   5.598   1.670  0.3035 -0.8637  0.3185
    2CHTO   O57  545   4.373   5.770   2.017 -0.2135 -0.2540  0.6384
    2CHTO   C85  546   4.300   5.859   1.931  0.1415 -0.1612  0.2919
    2CHTO  H157  547   4.205   5.806   1.907 -2.1960  3.3984  1.3319
    2CHTO   C83  548   4.378   5.880   1.799 -0.4453 -0.4092  0.4069
    2CHTO  H155  549   4.378   5.791   1.736  1.9953 -0.0422 -0.1555
    2CHTO   O56  550   4.515   5.899   1.831 -0.1173  0.6043 -0.7125
    2CHTO  H135  551   4.560   5.910   1.749  0.6235  1.4945 -0.1992
    2CHTO   C81  552   4.321   5.992   1.717  0.2409 -0.1279  0.9189
    2CHTO  H153  553   4.218   5.961   1.697 -0.0555  1.2419  0.2680
    2CHTO   N14  554   4.386   6.012   1.582  0.8985  0.1609  0.2933
    2CHTO  H141  555   4.472   5.948   1.583  0.1294 -0.8684  1.0019
    2CHTO  H142  556   4.316   5.971   1.512 -2.3281  1.1086  2.8716
    2CHTO   C79  557   4.307   6.125   1.805  0.3120  0.8465 -0.7683
    2CHTO  H151  558   4.250   6.195   1.744 -0.0700 -0.4333 -1.9187
    2CHTO   O52  559   4.215   6.101   1.916  0.0885 -0.5849  0.1546
    2CHTO   C86  560   4.272   5.997   2.005  0.2983 -0.1833 -0.1849
    2CHTO  H158  561   4.362   6.046   2.049  0.6981 -3.6945  3.1301
    2CHTO   C90  562   4.169   5.978   2.126 -0.0905 -0.1992 -0.6446
    2CHTO   O60  563   4.153   6.105   2.201 -0.0493  0.2307 -0.1293
    2CHTO  H138  564   4.141   6.078   2.290  0.4418 -0.6588 -0.3172
    2CHTO   O50  565   4.432   6.177   1.837  0.8054  0.3522  0.0957
    2CHTO   C73  566   4.458   6.307   1.898  0.1744  0.0325 -0.2744
    2CHTO  H145  567   4.377   6.330   1.970  0.7722  1.3619 -0.0080
    2CHTO   C74  568   4.460   6.415   1.782  0.2952 -0.1186 -0.5960
    2CHTO  H146  569   4.359   6.419   1.740 -0.2420 -1.1031  0.5612
    2CHTO   O54  570   4.488   6.545   1.835 -0.2737  0.0425  0.0031
    2CHTO  H133  571   4.489   6.603   1.761  2.0767 -1.0313 -0.8536
    2CHTO   C75  572   4.577   6.371   1.677  0.2378  0.3883 -0.0173
    2CHTO  H147  573   4.554   6.275   1.628 -1.3221  1.0127 -0.5460
    2CHTO   N13  574   4.596   6.464   1.566 -0.3350 -0.2673 -0.0338
    2CHTO  H139  575   4.539   6.436   1.480 -1.4091  0.9984  0.2446
    2CHTO  H140  576   4.563   6.563   1.596 -0.2317  0.4497 -2.1873
    2CHTO   C76  577   4.715   6.349   1.761  0.2397  0.2640 -0.4684
    2CHTO  H148  578   4.733   6.449   1.800 -0.0111  0.0590  0.1670
    2CHTO   O49  579   4.697   6.258   1.879 -0.3502 -0.5503 -0.2744
    2CHTO   C77  580   4.595   6.300   1.971 -0.1695  1.0696  0.0547
    2CHTO  H149  581   4.617   6.401   2.003  0.4796  0.9594 -0.0511
    2CHTO   C88  582   4.605   6.207   2.097  0.0315  0.3578 -0.2039
    2CHTO   O58  583   4.590   6.085   2.072  0.5796 -0.0825  0.1972
    2CHTO  H136  584   4.665   6.043   2.112  1.5488  1.6190  0.2079
    2CHTO   O51  585   4.843   6.277   1.660 -0.5008 -0.1794  0.3845
    2CHTO   C78  586   4.944   6.190   1.717  0.2561 -0.0475 -0.2849
    2CHTO  H150  587   4.914   6.180   1.823  2.7717 -0.3918  0.4105
    2CHTO   C80  588   5.094   6.238   1.706 -0.1552  0.5069 -0.9912
    2CHTO  H152  589   5.125   6.248   1.600  0.0537  0.3131 -0.9473
    2CHTO   O55  590   5.092   6.370   1.764  0.0360  0.9669  0.5380
    2CHTO  H134  591   5.060   6.433   1.702  1.2223  1.7434  0.6840
    2CHTO   C84  592   5.199   6.137   1.775  0.4348  0.1069 -0.7203
    2CHTO  H156  593   5.191   6.137   1.884  3.0208  0.6073 -0.5015
    2CHTO   N15  594   5.346   6.170   1.755  0.2096 -0.7339 -0.0809
    2CHTO  H143  595   5.407   6.101   1.701 -2.0452 -1.1595 -2.1970
    2CHTO  H144  596   5.392   6.200   1.847 -1.0727  0.8925  0.0659
    2CHTO   C87  597   5.165   5.993   1.731  0.2244 -0.3366  0.3555
    2CHTO  H159  598   5.197   5.994   1.627  0.4755  0.6893  0.4383
    2CHTO   O53  599   5.011   5.969   1.735  0.4606  0.5862 -0.4026
    2CHTO   C82  600   4.926   6.054   1.653 -0.1051 -0.5455  0.0252
    2CHTO  H154  601   4.960   6.056   1.550 -1.2158 -1.0158 -0.3633
    2CHTO   C89  602   4.779   5.988   1.651 -0.7094 -0.7801  0.2327
    2CHTO   O59  603   4.789   5.853   1.618 -0.0891  0.0664  0.1950
    2CHTO  H137  604   4.739   5.833   1.541 -1.5689 -0.6197  1.3213
    2CHTO   O45  605   5.246   5.871   1.826  0.6524  0.2892  0.3002
    2CHTO   C67  606   5.163   5.789   1.914 -0.3491 -0.1937  1.1247
    2CHTO  H124  607   5.071   5.846   1.923 -1.3868 -1.5730 -0.5032
    2CHTO   C65  608   5.119   5.643   1.859  0.4483 -0.6776  0.0969
    2CHTO  H122  609   5.180   5.627   1.770 -1.6530 -1.3913 -1.2497
    2CHTO   O44  610   4.977   5.652   1.831 -1.0564  0.1679  0.3967
    2CHTO  H102  611   4.963   5.722   1.770 -1.2647 -0.4717 -0.2816
    2CHTO   C63  612   5.158   5.530   1.957 -0.0300 -0.0745 -0.6638
    2CHTO  H120  613   5.266   5.533   1.973 -0.2516  2.0652  0.6501
    2CHTO   N11  614   5.138   5.390   1.914 -0.2968  0.0456  0.6743
    2CHTO  H108  615   5.046   5.356   1.956 -0.4514  0.7567  0.9241
    2CHTO  H109  616   5.219   5.329   1.947 -0.3101  0.1890  0.9715
    2CHTO   C61  617   5.088   5.565   2.095  0.4549  0.3281  0.4497
    2CHTO  H118  618   5.131   5.495   2.168 -0.5056 -0.0224  0.6876
    2CHTO   O40  619   5.116   5.701   2.134  0.0717  0.1741 -0.5484
    2CHTO   C68  620   5.225   5.779   2.062 -0.2697  0.1725 -0.2858
    2CHTO  H125  621   5.320   5.722   2.054 -0.6470 -0.8665  2.3546
    2CHTO   C72  622   5.261   5.922   2.129  0.1309 -0.6091  0.2864
    2CHTO   O48  623   5.324   5.919   2.259 -0.3219 -0.2834  0.6132
    2CHTO  H105  624   5.274   5.869   2.321  0.6528 -1.3975  0.5007
    2CHTO   O38  625   4.945   5.552   2.092  0.5338 -0.4319  0.3066
    2CHTO   C55  626   4.874   5.547   2.217  0.2785  0.7828 -0.6948
    2CHTO  H112  627   4.937   5.599   2.290 -0.7102  1.5563 -0.3752
    2CHTO   C56  628   4.846   5.393   2.252  0.4679  0.6001 -0.1703
    2CHTO  H113  629   4.789   5.347   2.169 -0.0176 -0.1783  0.5882
    2CHTO   O42  630   4.973   5.320   2.266  0.4827 -1.0323  0.1449
    2CHTO  H100  631   5.034   5.333   2.195 -0.5446  2.9663 -0.0914
    2CHTO   C57  632   4.754   5.385   2.378  0.8505  0.5446 -0.3352
    2CHTO  H114  633   4.811   5.399   2.470 -0.4492  2.7524  0.1585
    2CHTO   N10  634   4.693   5.255   2.401 -0.4374  0.7753  0.0610
    2CHTO  H106  635   4.662   5.204   2.311 -0.3804 -0.4829  0.7458
    2CHTO  H107  636   4.764   5.196   2.457 -0.0745 -0.1210 -1.3153
    2CHTO   C58  637   4.634   5.489   2.376  0.1502 -0.0444  0.0111
    2CHTO  H115  638   4.562   5.460   2.296 -0.8540 -0.3661  1.0123
    2CHTO   O37  639   4.672   5.622   2.335 -0.5264 -0.5959 -0.5135
    2CHTO   C59  640   4.748   5.623   2.212  0.2161 -0.3429 -0.3266
    2CHTO  H116  641   4.684   5.574   2.138 -0.1134  0.0643 -0.3137
    2CHTO   C70  642   4.770   5.773   2.166 -0.1220  0.0121 -0.4536
    2CHTO   O46  643   4.769   5.772   2.020  0.4475  0.2183 -0.5730
    2CHTO  H103  644   4.684   5.749   1.988  1.6190 -2.2392 -2.0704
    2CHTO   O39  645   4.566   5.508   2.526 -0.1562 -0.4809  0.4447
    2CHTO   C60  646   4.426   5.536   2.528 -0.0286 -0.5039 -0.3387
    2CHTO  H117  647   4.408   5.594   2.438  0.1067 -0.4907 -0.3579
    2CHTO   C62  648   4.345   5.406   2.540  0.3038 -1.4281 -1.1713
    2CHTO  H119  649   4.361   5.349   2.446 -4.6158 -2.0634 -1.7474
    2CHTO   O43  650   4.379   5.328   2.658  0.5418  0.0593 -0.7043
    2CHTO  H101  651   4.321   5.254   2.658  0.2817  0.2588 -0.6684
    2CHTO   C66  652   4.187   5.435   2.531 -0.4299  0.0791 -0.5754
    2CHTO  H123  653   4.172   5.483   2.434 -0.4730 -0.9878 -1.1049
    2CHTO   N12  654   4.103   5.315   2.522  0.2032  0.0072  0.5795
    2CHTO  H110  655   4.112   5.283   2.420  0.9183  0.0530  0.6273
    2CHTO  H111  656   4.125   5.236   2.592 -3.6294 -1.3013  0.4629
    2CHTO   C69  657   4.143   5.530   2.646  0.7132 -0.5506  0.3413
    2CHTO  H126  658   4.159   5.478   2.743  1.6552 -1.4720 -0.3023
    2CHTO   O41  659   4.225   5.660   2.653 -0.2087 -0.4704  0.4090
    2CHTO   C64  660   4.397   5.630   2.650  0.0148 -0.1044 -0.4063
    2CHTO  H121  661   4.430   5.583   2.746 -0.1078  1.2178  0.2985
    2CHTO   C71  662   4.468   5.767   2.635  0.7087  0.3233 -0.0677
    2CHTO   O47  663   4.609   5.759   2.659 -0.0247  0.4345  0.0186
    2CHTO  H104  664   4.623   5.787   2.747  1.2017  0.1801 -0.0931
    2CHTO   O34  665   3.971   5.562   2.626  0.4252  0.3931 -0.3714
    2CHTO   C49  666   3.876   5.712   2.645  0.0178  0.7161  0.5120
    2CHTO   H91  667   3.800   5.688   2.719  1.7866 -1.0230  1.8215
    2CHTO   C47  668   3.821   5.742   2.513  0.4389 -0.4711  0.2576
    2CHTO   H89  669   3.752   5.827   2.537 -1.0741 -1.6292  0.1016
    2CHTO   O33  670   3.742   5.632   2.475  0.3133  1.0126  0.0498
    2CHTO   H70  671   3.662   5.654   2.431 -0.2685  2.0893  1.5947
    2CHTO   C45  672   3.940   5.783   2.413 -0.7652 -0.5263 -0.4249
    2CHTO   H87  673   4.027   5.716   2.419  0.9271  1.5805 -0.9638
    2CHTO    N8  674   3.894   5.791   2.273  0.1047  0.7368  0.1834
    2CHTO   H75  675   3.831   5.704   2.258 -2.4583  2.5785 -0.0772
    2CHTO   H76  676   3.826   5.874   2.258 -0.2472  0.0058 -2.5760
    2CHTO   C43  677   3.988   5.926   2.470 -0.1554 -0.1288  0.4520
    2CHTO   H85  678   4.063   5.968   2.403  0.9310  1.0708  2.3787
    2CHTO   O29  679   4.039   5.907   2.605 -0.0181  0.4067 -0.6768
    2CHTO   C50  680   3.967   5.828   2.696  0.2982 -0.3137  0.0702
    2CHTO   H92  681   4.044   5.786   2.762  0.6401  0.0792 -0.0753
    2CHTO   C54  682   3.882   5.911   2.795  0.8120 -1.0159 -0.1003
    2CHTO   O36  683   3.965   5.966   2.900 -0.1476 -0.2746 -0.0459
    2CHTO   H72  684   3.914   6.022   2.955 -0.6842 -1.4337  0.6624
    2CHTO   O27  685   3.880   6.027   2.484  0.0953  0.2790  0.2067
    2CHTO   C37  686   3.803   6.113   2.404 -0.0720  0.2959 -0.8250
    2CHTO   H79  687   3.840   6.102   2.301  4.7593  0.8582  0.7442
    2CHTO   C38  688   3.648   6.098   2.427 -0.0757 -0.3686  0.5360
    2CHTO   H80  689   3.630   6.104   2.535 -3.2290  1.4875 -0.0381
    2CHTO   O31  690   3.609   5.970   2.371 -0.0768 -0.5033 -0.8511
    2CHTO   H68  691   3.619   5.977   2.278 -0.4303  1.7452 -0.7461
    2CHTO   C39  692   3.574   6.211   2.358  0.0057 -0.0577  0.6352
    2CHTO   H81  693   3.581   6.200   2.249  1.2212  2.4241  0.4321
    2CHTO    N7  694   3.427   6.199   2.393  0.6299 -0.0736 -0.1944
    2CHTO   H73  695   3.372   6.111   2.361  0.1479  0.5419 -1.1016
    2CHTO   H74  696   3.374   6.289   2.365 -1.3030 -1.1138  0.0038
    2CHTO   C40  697   3.629   6.359   2.384  1.0100 -0.2153 -0.6883
    2CHTO   H82  698   3.607   6.378   2.488  0.2305 -0.3736 -0.8254
    2CHTO   O26  699   3.771   6.359   2.360 -0.3734 -0.3194 -0.6220
    2CHTO   C41  700   3.843   6.256   2.443 -0.1509 -0.5653  0.1437
    2CHTO   H83  701   3.819   6.265   2.550  1.5796  0.9768  0.4221
    2CHTO   C52  702   4.001   6.283   2.429  1.7127 -0.1889 -0.5299
    2CHTO   O35  703   4.033   6.425   2.463 -0.4441  0.0889  0.2456
    2CHTO   H71  704   4.013   6.488   2.396  0.8392  0.9553  0.6653
    2CHTO   O28  705   3.572   6.466   2.302  0.3219  0.1390  0.1955
    2CHTO   C42  706   3.576   6.608   2.355  0.0604 -0.0746 -0.0053
    2CHTO   H84  707   3.519   6.666   2.281  1.7965 -0.2196 -1.4930
    2CHTO   C44  708   3.720   6.667   2.356 -0.3458 -0.2117 -0.2000
    2CHTO   H86  709   3.784   6.607   2.422 -0.8622  1.9295  2.3272
    2CHTO   O32  710   3.768   6.668   2.220  0.1406  0.3216 -0.4748
    2CHTO   H69  711   3.718   6.736   2.180  0.0728  0.6374  0.1424
    2CHTO   C48  712   3.718   6.810   2.429 -1.0817 -0.2970 -0.0219
    2CHTO   H90  713   3.660   6.887   2.378  1.1819  1.1958 -0.3859
    2CHTO    N9  714   3.859   6.866   2.451  0.0153 -0.3912 -0.3832
    2CHTO   H77  715   3.876   6.964   2.410 -1.5383  0.1360  0.2095
    2CHTO   H78  716   3.933   6.792   2.426  1.1786 -0.4163  2.8547
    2CHTO   C51  717   3.640   6.810   2.562 -0.8347  0.5298 -0.2935
    2CHTO   H93  718   3.689   6.749   2.638 -1.1462 -2.1915 -2.2273
    2CHTO   O30  719   3.506   6.767   2.538  0.0525 -0.2740  0.1714
    2CHTO   C46  720   3.503   6.631   2.491 -0.4955 -0.4567  0.3067
    2CHTO   H88  721   3.545   6.565   2.566  0.3535  0.0980  0.3275
    2CHTO   C53  722   3.363   6.610   2.478  0.1779  0.5703  0.3969
    2CHTO   O72  723   3.291   6.697   2.383 -0.5139  0.0427 -0.1192
    2CHTO  H199  724   3.218   6.646   2.353 -0.3013 -0.4273  0.1545
    2CHTO   O22  725   3.622   6.940   2.625  0.4828 -0.7782 -0.1950
    2CHTO   C31  726   3.593   6.942   2.776 -0.7407 -0.0135  0.0053
    2CHTO   H59  727   3.569   7.048   2.800 -0.1143 -0.1597  1.2991
    2CHTO   C29  728   3.478   6.852   2.828  0.9551  0.1084  0.0165
    2CHTO   H57  729   3.485   6.747   2.798 -1.3360 -0.1127  0.2000
    2CHTO   O21  730   3.354   6.898   2.767 -0.1211 -0.4552 -0.5676
    2CHTO   H37  731   3.363   6.907   2.674  0.6491  1.4224 -0.3316
    2CHTO   C27  732   3.461   6.862   2.985 -0.3368  0.2590 -0.3924
    2CHTO   H55  733   3.407   6.955   3.007 -0.2528  0.4588 -1.0321
    2CHTO    N5  734   3.376   6.761   3.042  0.4016  0.0014 -0.0740
    2CHTO   H43  735   3.409   6.659   3.034 -1.7534 -0.8648  1.5247
    2CHTO   H44  736   3.352   6.788   3.144 -1.5481  1.6261 -0.9317
    2CHTO   C25  737   3.601   6.850   3.061  0.2562 -0.3846  0.0521
    2CHTO   H53  738   3.638   6.747   3.055  2.0290  0.1729  0.9634
    2CHTO   O17  739   3.712   6.926   3.004  0.2801 -0.3475  0.2575
    2CHTO   C32  740   3.727   6.905   2.860  0.8290  0.0710 -0.2534
    2CHTO   H60  741   3.743   6.798   2.842 -0.5456 -0.1519 -0.1861
    2CHTO   C36  742   3.856   6.982   2.821 -0.1657  0.4093  0.3003
    2CHTO   O25  743   3.830   7.122   2.812  0.0576  0.2398  0.0144
    2CHTO   H40  744   3.781   7.125   2.732  0.8428 -1.6614 -0.5826
    2CHTO   O15  745   3.589   6.899   3.216 -0.4640  0.2873  0.1049
    2CHTO   C19  746   3.586   6.817   3.334  0.2342 -0.2221  0.2461
    2CHTO   H47  747   3.486   6.772   3.322 -0.3829  0.6903  1.7476
    2CHTO   C20  748   3.683   6.694   3.348 -0.1495 -0.4189  0.8401
    2CHTO   H48  749   3.787   6.728   3.357  0.3944 -1.3544 -1.6734
    2CHTO   O19  750   3.666   6.600   3.238 -0.3795  0.1447  0.1289
    2CHTO   H35  751   3.748   6.556   3.223 -0.6044 -0.2054 -0.0864
    2CHTO   C21  752   3.655   6.611   3.479  0.5150  0.4342  0.4716
    2CHTO   H49  753   3.562   6.555   3.466 -0.3559  1.8071  0.7410
    2CHTO    N4  754   3.763   6.513   3.505  0.1440 -0.1594 -0.0177
    2CHTO   H41  755   3.757   6.488   3.610  0.4520  0.6207  0.1917
    2CHTO   H42  756   3.740   6.427   3.444 -1.9350  0.3196  0.0609
    2CHTO   C22  757   3.636   6.704   3.600 -0.0688 -0.5332 -0.1610
    2CHTO   H50  758   3.732   6.744   3.634  0.0421 -2.0755  1.4062
    2CHTO   O14  759   3.547   6.813   3.575 -0.0794  0.0279 -0.2361
    2CHTO   C23  760   3.592   6.900   3.468  0.7124 -0.2472 -0.6846
    2CHTO   H51  761   3.695   6.930   3.492  0.5815  0.8908 -1.5284
    2CHTO   C34  762   3.499   7.025   3.456 -0.1950  0.2422  0.7233
    2CHTO   O23  763   3.362   6.994   3.467 -0.0409  0.2808  0.6832
    2CHTO   H38  764   3.320   7.065   3.513  0.8238  1.1349  0.1713
    2CHTO   O16  765   3.574   6.636   3.706 -0.5265 -0.1640 -0.4379
    2CHTO   C24  766   3.613   6.676   3.867  0.5485 -0.2562  0.1777
    2CHTO   H52  767   3.688   6.755   3.872 -1.3321  1.6326 -0.8687
    2CHTO   C26  768   3.668   6.556   3.944 -0.1899  0.2210  0.1073
    2CHTO   H54  769   3.589   6.479   3.955 -0.0850  0.2563  1.1922
    2CHTO   O20  770   3.780   6.503   3.869  0.2111 -1.4224 -0.0796
    2CHTO   H36  771   3.755   6.491   3.779 -2.4199 -0.8835  0.5234
    2CHTO   C30  772   3.700   6.601   4.090  0.0468  0.2724 -0.2377
    2CHTO   H58  773   3.771   6.685   4.087  2.0654 -1.1393  4.1247
    2CHTO    N6  774   3.770   6.493   4.165  0.0970 -0.3303  0.5588
    2CHTO   H45  775   3.707   6.406   4.174 -2.8711  1.7072  0.2949
    2CHTO   H46  776   3.808   6.526   4.261  3.2457  0.5590 -0.9406
    2CHTO   C33  777   3.578   6.660   4.164  0.3976 -0.3770 -0.5034
    2CHTO   H61  778   3.509   6.578   4.191  1.1326 -0.4787  1.1269
    2CHTO   O18  779   3.517   6.755   4.075  0.5301  1.0574 -0.0301
    2CHTO   C28  780   3.485   6.732   3.938 -0.6364  0.4514  0.7035
    2CHTO   H56  781   3.410   6.653   3.935 -0.6108  0.4629 -0.6153
    2CHTO   C35  782   3.445   6.859   3.868  0.4612 -0.2190 -0.0552
    2CHTO   O24  783   3.314   6.920   3.906 -0.0154  0.0276  0.2378
    2CHTO   H39  784   3.309   7.012   3.890  0.0048 -0.3762 -2.3833
    2CHTO    O9  785   3.616   6.720   4.287 -0.0967  0.1680 -0.2972
    2CHTO   C13  786   3.507   6.735   4.402  0.3980  0.0038 -0.6818
    2CHTO   H26  787   3.443   6.644   4.406  1.0946 -0.4184  1.1748
    2CHTO   C11  788   3.422   6.870   4.364 -0.1997 -0.7446  0.3703
    2CHTO   H24  789   3.375   6.856   4.266  1.6808  3.7334 -1.3135
    2CHTO    O8  790   3.514   6.986   4.339  0.0477  0.7655 -0.6174
    2CHTO    H3  791   3.528   7.041   4.413  0.4394 -1.1783  0.7915
    2CHTO    C9  792   3.323   6.896   4.481 -0.3387 -0.2463 -0.4468
    2CHTO   H22  793   3.275   6.798   4.498 -0.4585 -0.1984 -0.5119
    2CHTO    N2  794   3.215   6.989   4.441 -0.2848 -0.3320 -0.3671
    2CHTO   H10  795   3.121   6.937   4.431  0.8206 -2.9654  2.4471
    2CHTO   H11  796   3.217   7.074   4.507 -0.4041 -0.0951 -0.6652
    2CHTO    C7  797   3.396   6.924   4.608 -0.1817 -0.2529  0.0435
    2CHTO   H20  798   3.313   6.919   4.682 -0.4568 -0.3765 -0.2688
    2CHTO    O4  799   3.490   6.823   4.650 -0.3854  0.3572 -0.2146
    2CHTO   C14  800   3.575   6.761   4.539 -0.1189  0.2465  0.6804
    2CHTO   H27  801   3.607   6.666   4.586 -1.7152 -0.4520  0.3864
    2CHTO   C18  802   3.699   6.844   4.523 -0.6624 -0.4177  0.4739
    2CHTO   O13  803   3.773   6.853   4.646  0.0426 -0.3854  0.2382
    2CHTO    H7  804   3.859   6.889   4.633 -0.2459  1.0510  2.0473
    2CHTO    O2  805   3.475   7.062   4.596  0.8172 -0.3906  0.3121
    2CHTO    C1  806   3.453   7.164   4.692 -0.0124  0.2221 -0.0218
    2CHTO   H14  807   3.375   7.128   4.762  0.0909 -0.9754 -0.5013
    2CHTO    C2  808   3.401   7.297   4.620  0.5567  0.6529  0.2015
    2CHTO   H15  809   3.466   7.308   4.532 -1.7115 -1.9163 -1.8996
    2CHTO    O6  810   3.266   7.279   4.584  0.0424  0.1453  0.4574
    2CHTO    H1  811   3.220   7.224   4.645  1.0669  0.5113  1.5936
    2CHTO    C3  812   3.411   7.423   4.721 -0.3600  0.6247 -0.2621
    2CHTO   H16  813   3.324   7.410   4.788  0.1379 -1.3451  0.0404
    2CHTO    N1  814   3.394   7.551   4.644  0.0483  0.0189 -1.1366
    2CHTO    H8  815   3.399   7.624   4.724  0.0655 -2.3146  1.0757
    2CHTO    H9  816   3.298   7.546   4.595 -1.5952  3.3090  1.5890
    2CHTO    C4  817   3.537   7.414   4.817  0.5461 -0.0168 -0.4647
    2CHTO   H17  818   3.625   7.424   4.753  0.6461 -1.2992 -0.5366
    2CHTO    O1  819   3.543   7.285   4.875 -1.1920  0.0828 -0.2745
    2CHTO    C5  820   3.574   7.177   4.788 -0.6658 -0.2406  0.3068
    2CHTO   H18  821   3.671   7.196   4.742 -0.6041  2.0493  1.2997
    2CHTO   C16  822   3.584   7.051   4.874  0.6472 -0.0710 -0.0685
    2CHTO   O11  823   3.473   7.017   4.952 -0.0046 -0.3854 -0.1409
    2CHTO    H5  824   3.471   7.068   5.030  1.6920  0.5010 -0.6577
    2CHTO    O3  825   3.528   7.523   4.915  0.1335  0.6733 -0.0100
    2CHTO    C6  826   3.653   7.545   4.988 -0.0892 -0.0259 -0.0629
    2CHTO   H19  827   3.713   7.454   4.998 -2.9396 -1.7695  1.6259
    2CHTO    C8  828   3.737   7.661   4.924 -0.4429 -0.3594 -0.0997
    2CHTO   H21  829   3.667   7.742   4.899  1.2943  0.5376 -2.2801
    2CHTO    O7  830   3.790   7.615   4.793  0.1036  0.2677  0.0961
    2CHTO    H2  831   3.809   7.692   4.743 -0.0607  0.5677  0.4893
    2CHTO   C12  832   3.847   7.722   5.030  0.5913  0.6212 -0.1693
    2CHTO   H25  833   3.930   7.649   5.033  0.8408  0.8882 -0.4717
    2CHTO    N3  834   3.906   7.854   4.978 -0.2999 -0.0006  0.1486
    2CHTO   H12  835   3.930   7.825   4.876  0.6612 -1.2103  0.7161
    2CHTO   H13  836   4.002   7.876   5.022 -0.4394  1.1278 -0.1066
    2CHTO   C15  837   3.787   7.735   5.173 -0.5887  0.1839 -0.2269
    2CHTO   H28  838   3.722   7.818   5.200  2.0703  1.5487  2.3523
    2CHTO   O10  839   3.895   7.720   5.271  0.6492  0.2301  0.4513
    2CHTO    H4  840   3.965   7.763   5.226  0.0805 -0.7289 -1.3868
    2CHTO    O5  841   3.714   7.624   5.219  0.2224 -0.0016 -0.1331
    2CHTO   C10  842   3.606   7.584   5.127  0.1630  0.2066  0.0920
    2CHTO   H23  843   3.536   7.667   5.116  0.4561  0.4881  0.3481
    2CHTO   C17  844   3.537   7.471   5.202  0.1740  0.6956 -0.1303
    2CHTO   O12  845   3.617   7.352   5.215  0.1540 -0.4321  0.0196
    2CHTO    H6  846   3.632   7.338   5.306  0.9182  0.4526  0.0350
    3CHTO  H203  847   8.108   1.356   1.080 -0.5003 -0.0413  0.3559
    3CHTO   O82  848   8.055   1.288   1.042  0.1581 -0.2512 -0.1847
    3CHTO  C123  849   7.979   1.212   1.139  0.2501  0.1115  0.2351
    3CHTO  H227  850   8.032   1.208   1.235 -1.0167 -2.0397  0.8953
    3CHTO   O77  851   7.858   1.290   1.154  0.1612 -0.1756  0.3934
    3CHTO  C118  852   7.788   1.238   1.265  0.3249  0.3303  0.1599
    3CHTO  H222  853   7.843   1.229   1.360  1.6109  1.7086 -0.4433
    3CHTO  C125  854   7.672   1.341   1.292  0.1257 -0.4115 -0.6831
    3CHTO   O84  855   7.616   1.311   1.422 -0.3533 -0.2646  0.0893
    3CHTO  H205  856   7.533   1.354   1.429 -0.9627 -1.1550 -1.4707
    3CHTO  C114  857   7.729   1.103   1.229 -0.2143  0.4085 -0.4668
    3CHTO  H218  858   7.660   1.112   1.146  0.3701  1.6443 -0.8324
    3CHTO  C116  859   7.846   1.001   1.202 -0.5978 -0.3525 -0.0534
    3CHTO  H220  860   7.900   0.985   1.298 -1.1371 -1.3597  0.0867
    3CHTO   O79  861   7.801   0.872   1.161 -0.2052 -0.1788 -0.0530
    3CHTO  H201  862   7.722   0.854   1.207 -2.2458  0.5739 -3.1049
    3CHTO  C120  863   7.943   1.065   1.094 -0.6969 -1.1975 -0.0853
    3CHTO  H224  864   7.891   1.068   0.997  0.0846 -0.0042 -0.4730
    3CHTO   N21  865   8.064   0.977   1.081 -0.5188  0.0796  0.1015
    3CHTO  H211  866   8.154   1.034   1.065 -0.5605  0.3052  0.6523
    3CHTO  H212  867   8.045   0.895   1.014  0.0511 -0.5892  0.7345
    3CHTO   O75  868   7.653   1.058   1.345  0.3257  0.0014 -1.0207
    3CHTO  C112  869   7.500   1.015   1.299  0.1462 -0.2450  0.0700
    3CHTO  H216  870   7.498   0.956   1.206  1.1571  0.6575 -0.5413
    3CHTO   O73  871   7.425   1.135   1.287  0.0228  0.0811  0.1155
    3CHTO  C113  872   7.293   1.118   1.232  0.1847 -0.8321  0.3313
    3CHTO  H217  873   7.294   1.047   1.147  1.8394  2.8411 -2.8334
    3CHTO  C124  874   7.221   1.245   1.191 -0.1748  0.5259  0.1047
    3CHTO   O83  875   7.266   1.280   1.063 -0.1162  0.0934  0.5952
    3CHTO  H204  876   7.230   1.361   1.032 -0.8329 -1.1289 -1.8433
    3CHTO  C109  877   7.212   1.033   1.343 -0.1362  0.0986 -0.1126
    3CHTO  H213  878   7.217   1.095   1.434 -2.4182  0.0960  0.0492
    3CHTO  C110  879   7.293   0.895   1.373 -0.0147  0.0151 -0.3107
    3CHTO  H214  880   7.294   0.834   1.282  1.9730 -1.4535  0.6502
    3CHTO   O78  881   7.225   0.823   1.474 -0.1845  0.1533 -0.0219
    3CHTO  H200  882   7.245   0.731   1.478 -1.0786 -0.1805 -2.5333
    3CHTO  C111  883   7.441   0.926   1.415  0.8702 -0.3920  0.2740
    3CHTO  H215  884   7.435   0.983   1.509  0.0877  0.1260 -0.0874
    3CHTO   N19  885   7.518   0.807   1.435  0.1660 -0.2885 -0.6391
    3CHTO  H207  886   7.453   0.737   1.485  0.8626  0.1689  0.9499
    3CHTO  H208  887   7.602   0.834   1.498 -0.4413 -0.4448  0.2534
    3CHTO   O74  888   7.073   1.020   1.306 -0.3306 -0.1041  0.0497
    3CHTO  C115  889   6.968   0.970   1.410 -0.3059 -0.1313  0.3728
    3CHTO  H219  890   7.014   0.908   1.487 -1.9147 -0.6522  0.9337
    3CHTO   O76  891   6.900   1.096   1.496  0.0324  0.5878  0.4849
    3CHTO  C122  892   6.816   1.175   1.409  0.0244  0.3378 -0.2983
    3CHTO  H226  893   6.886   1.220   1.338  1.0147 -1.3564 -0.4183
    3CHTO  C126  894   6.760   1.293   1.501  0.5925  0.1464 -0.2583
    3CHTO   O85  895   6.665   1.266   1.602 -0.5887  0.6205  0.0854
    3CHTO  H206  896   6.578   1.283   1.571 -0.9405 -0.0109  0.7191
    3CHTO  C121  897   6.704   1.094   1.330  0.0168  0.6403 -0.1070
    3CHTO  H225  898   6.610   1.135   1.373 -2.0792 -2.8914 -1.1400
    3CHTO   O81  899   6.707   1.115   1.190  0.0439 -0.5536 -0.1650
    3CHTO  H202  900   6.781   1.069   1.153 -0.2822 -2.4450  1.4245
    3CHTO  C119  901   6.718   0.941   1.373  0.5988 -0.3153  0.1051
    3CHTO  H223  902   6.714   0.936   1.482 -1.3612 -0.6363  0.0309
    3CHTO  C117  903   6.859   0.885   1.335 -0.8416  0.0768  0.3468
    3CHTO  H221  904   6.880   0.884   1.228  1.0801  0.0172  0.7083
    3CHTO   N20  905   6.879   0.739   1.376  0.5804 -1.3219  0.0600
    3CHTO  H209  906   6.859   0.730   1.482 -0.5032  0.8494  0.0773
    3CHTO  H210  907   6.841   0.673   1.300 -0.0025 -0.2775 -0.5593
    3CHTO   O80  908   6.602   0.864   1.333 -0.4675 -0.1792 -0.5553
    3CHTO  C103  909   6.467   0.887   1.406  0.1814 -0.5218 -0.2758
    3CHTO  H190  910   6.479   0.957   1.489 -1.6452 -0.2305 -0.2475
    3CHTO  C101  911   6.350   0.932   1.310  0.1028  0.0747 -0.0139
    3CHTO  H188  912   6.360   0.867   1.223  1.9609  1.6185 -0.9909
    3CHTO   O68  913   6.391   1.093   1.250  0.1236 -0.5960 -0.5679
    3CHTO  H168  914   6.370   1.160   1.312 -0.4551  0.3494 -1.7727
    3CHTO   C99  915   6.214   0.922   1.389 -0.3816  0.3159 -0.3575
    3CHTO  H186  916   6.226   0.957   1.494 -2.6439  0.4278 -0.1016
    3CHTO   N17  917   6.096   0.990   1.331  0.8464  1.2212  0.8838
    3CHTO  H174  918   6.120   1.091   1.300 -1.3503  1.3345 -0.5428
    3CHTO  H175  919   6.057   0.931   1.250  2.1170  0.6496  0.6699
    3CHTO   C97  920   6.188   0.773   1.416 -0.5096 -0.3648 -0.3062
    3CHTO  H184  921   6.200   0.724   1.318 -0.0383 -0.2850 -0.2922
    3CHTO   O64  922   6.294   0.724   1.506 -0.0214 -0.5326 -0.5571
    3CHTO  C104  923   6.436   0.751   1.470 -0.7092  0.6641  0.2263
    3CHTO  H191  924   6.466   0.669   1.404 -1.3224  0.5466  0.0962
    3CHTO  C108  925   6.512   0.730   1.600 -0.0044 -0.1236 -0.0071
    3CHTO   O71  926   6.518   0.590   1.626  1.2000  0.1578 -0.5544
    3CHTO  H171  927   6.432   0.558   1.647  1.1682  0.8473  0.3744
    3CHTO   O62  928   6.069   0.741   1.489 -0.3245  0.3096  0.6134
    3CHTO   C91  929   6.006   0.627   1.446 -0.4621  0.4669  0.0762
    3CHTO  H178  930   6.025   0.617   1.339 -0.7058  1.7754 -0.1073
    3CHTO   C92  931   5.850   0.644   1.451  0.2619  0.5103 -0.3089
    3CHTO  H179  932   5.822   0.661   1.556  1.5724  0.8151 -0.0031
    3CHTO   O66  933   5.819   0.762   1.383 -0.4458 -0.5274 -0.2231
    3CHTO  H166  934   5.727   0.773   1.364 -0.8543 -0.6096  1.5498
    3CHTO   C93  935   5.775   0.513   1.408  0.0713 -0.1822  0.0186
    3CHTO  H180  936   5.818   0.488   1.310 -1.3253  2.5268 -1.3280
    3CHTO   N16  937   5.628   0.533   1.388 -0.6970  0.1513 -0.0096
    3CHTO  H172  938   5.608   0.639   1.383  1.5028  0.6255  0.5494
    3CHTO  H173  939   5.584   0.477   1.307 -0.4156 -1.0772  0.6681
    3CHTO   C94  940   5.807   0.397   1.505 -0.3984 -0.5185 -0.9258
    3CHTO  H181  941   5.731   0.380   1.581 -0.9966 -0.7460 -1.5658
    3CHTO   O61  942   5.929   0.420   1.586 -0.0578  0.0717  0.2398
    3CHTO   C95  943   6.046   0.488   1.527  0.0076  0.1107  0.4472
    3CHTO  H182  944   6.117   0.521   1.603 -0.4923 -2.0304  1.8654
    3CHTO  C106  945   6.129   0.392   1.434 -0.2186 -0.4406 -0.1309
    3CHTO   O69  946   6.165   0.280   1.510  0.3312  0.9542 -0.3659
    3CHTO  H169  947   6.242   0.297   1.560  0.9105 -0.4431 -0.7598
    3CHTO   O63  948   5.838   0.262   1.410  0.6660 -0.4054 -0.3553
    3CHTO   C96  949   5.765   0.121   1.455  0.1881 -0.2476 -0.8321
    3CHTO  H183  950   5.812   0.040   1.400 -1.2569 -0.6600 -1.4973
    3CHTO   C98  951   5.609   0.135   1.437  0.1811  0.0881  0.3170
    3CHTO  H185  952   5.574   0.224   1.492 -0.5065  0.0971 -0.1254
    3CHTO   O67  953   5.592   0.171   1.297 -0.1153  0.6409  0.0439
    3CHTO  H167  954   5.510   0.215   1.283 -0.4318 -0.2624 -0.9867
    3CHTO  C102  955   5.515   0.012   1.477 -0.0179  0.4295 -0.1575
    3CHTO  H189  956   5.540  -0.065   1.403  0.8900 -0.6283  1.2481
    3CHTO   N18  957   5.372   0.041   1.470 -0.6017  0.1367  0.0951
    3CHTO  H176  958   5.353   0.144   1.446  0.4454  0.3858  0.3190
    3CHTO  H177  959   5.309  -0.026   1.413  0.3611  0.1478 -0.9929
    3CHTO  C105  960   5.559  -0.039   1.615 -0.1424  0.4363 -0.6633
    3CHTO  H192  961   5.516   0.020   1.696  0.4165 -1.1177  0.8104
    3CHTO   O65  962   5.705  -0.042   1.630 -0.4349  0.6518 -0.3005
    3CHTO  C100  963   5.775   0.080   1.607  0.4728  0.3060 -0.1084
    3CHTO  H187  964   5.727   0.156   1.670  1.8935  0.1455  1.2015
    3CHTO  C107  965   5.923   0.063   1.653 -0.3040  0.0490  0.4967
    3CHTO   O70  966   5.938   0.072   1.793 -0.4536  0.1408 -0.2679
    3CHTO  H170  967   5.945  -0.016   1.823  2.4010  0.5099  0.2642
    3CHTO   O57  968   5.497  -0.212   1.624  0.0213  0.6191 -0.0892
    3CHTO   C85  969   5.446  -0.257   1.753  0.1825 -0.5465  0.5545
    3CHTO  H157  970   5.412  -0.360   1.731  2.5945 -0.9314 -1.6453
    3CHTO   C83  971   5.307  -0.199   1.785  0.2369 -0.5349  0.4244
    3CHTO  H155  972   5.237  -0.229   1.708  1.2883 -0.0219 -0.7537
    3CHTO   O56  973   5.308  -0.059   1.778  0.0799  0.0791 -0.2642
    3CHTO  H135  974   5.376  -0.025   1.833  0.2670 -2.0192  0.8462
    3CHTO   C81  975   5.266  -0.260   1.923  0.0765 -0.4641 -0.0793
    3CHTO  H153  976   5.276  -0.369   1.921 -0.9968 -0.6270  1.7713
    3CHTO   N14  977   5.130  -0.235   1.965 -0.1259 -0.0937  0.5543
    3CHTO  H141  978   5.065  -0.319   1.951  1.2741 -1.2567  0.8639
    3CHTO  H142  979   5.090  -0.152   1.912 -1.2468 -1.1718 -0.3184
    3CHTO   C79  980   5.377  -0.217   2.030 -0.5953 -0.5238  0.8207
    3CHTO  H151  981   5.346  -0.254   2.127 -0.4946  0.2756  1.1627
    3CHTO   O52  982   5.504  -0.284   2.002 -0.2699  0.2722 -0.6879
    3CHTO   C86  983   5.550  -0.252   1.873 -0.1608  0.2148 -0.0356
    3CHTO  H158  984   5.594  -0.153   1.897 -0.2175  0.2788 -0.2028
    3CHTO   C90  985   5.669  -0.335   1.829  0.2904  0.6699 -0.5735
    3CHTO   O60  986   5.644  -0.478   1.818 -0.2776 -0.1621 -0.2652
    3CHTO  H138  987   5.625  -0.528   1.896  1.2653 -1.0775 -0.4521
    3CHTO   O50  988   5.396  -0.074   2.027 -0.0414 -0.1142  0.3531
    3CHTO   C73  989   5.418   0.017   2.128  0.1966 -0.1013  1.0831
    3CHTO  H145  990   5.495  -0.027   2.194 -1.3243 -0.9261  2.3243
    3CHTO   C74  991   5.290   0.034   2.208  0.3987 -0.5965 -0.6561
    3CHTO  H146  992   5.257  -0.068   2.235  2.1565 -1.4139 -1.4956
    3CHTO   O54  993   5.328   0.099   2.333 -0.2208  0.5753 -0.7268
    3CHTO  H133  994   5.400   0.053   2.371 -0.3497  1.0411  0.0940
    3CHTO   C75  995   5.181   0.111   2.126  0.3051 -0.0639  0.1519
    3CHTO  H147  996   5.145   0.051   2.041  2.5890 -0.7831 -0.3413
    3CHTO   N13  997   5.049   0.149   2.190 -0.6050  0.2797 -0.6650
    3CHTO  H139  998   4.992   0.205   2.117 -0.7281  1.2424  0.1563
    3CHTO  H140  999   5.060   0.213   2.276  1.5776  0.6877 -1.2150
    3CHTO   C76 1000   5.245   0.245   2.054  0.2033  0.8987  0.0730
    3CHTO  H148 1001   5.266   0.319   2.130  0.1779  1.5508 -0.5446
    3CHTO   O49 1002   5.369   0.215   1.983 -0.2446 -0.1820 -0.9694
    3CHTO   C77 1003   5.472   0.151   2.065 -0.2681  0.4962 -0.1826
    3CHTO  H149 1004   5.501   0.219   2.145  0.8730  1.7434 -1.6421
    3CHTO   C88 1005   5.588   0.138   1.972 -0.3056  0.1184 -0.0800
    3CHTO   O58 1006   5.703   0.090   2.028  0.5022 -0.0322 -0.1175
    3CHTO  H136 1007   5.732   0.160   2.084 -1.0990  0.9214 -0.4598
    3CHTO   O51 1008   5.150   0.300   1.947  0.2104  0.1217 -0.3099
    3CHTO   C78 1009   5.166   0.450   1.905  0.0702 -0.5004 -0.0399
    3CHTO  H150 1010   5.257   0.493   1.952 -1.0616  0.9862  0.8322
    3CHTO   C80 1011   5.039   0.529   1.944  0.2957 -0.3679  0.5068
    3CHTO  H152 1012   4.950   0.467   1.920  0.6932 -0.6240 -0.3240
    3CHTO   O55 1013   5.031   0.516   2.084 -0.9194 -0.3598  0.0279
    3CHTO  H134 1014   5.084   0.447   2.119 -3.3251 -1.4597  1.6408
    3CHTO   C84 1015   5.053   0.676   1.902 -0.4475  0.2030 -0.2077
    3CHTO  H156 1016   5.131   0.711   1.969  0.9942 -1.2753 -1.1066
    3CHTO   N15 1017   4.929   0.752   1.934  0.6392 -0.0381  1.0041
    3CHTO  H143 1018   4.858   0.707   1.868  1.0916  0.4562  0.1652
    3CHTO  H144 1019   4.921   0.858   1.919  3.1416 -0.1895 -1.8948
    3CHTO   C87 1020   5.088   0.694   1.750  0.2066 -0.3545  0.1110
    3CHTO  H159 1021   5.002   0.681   1.684  1.2813  0.9350 -1.6143
    3CHTO   O53 1022   5.196   0.603   1.713 -0.3674 -0.5081  0.3007
    3CHTO   C82 1023   5.178   0.465   1.753 -0.4336  0.0997  0.7393
    3CHTO  H154 1024   5.090   0.429   1.700  0.8621 -1.9086 -0.1446
    3CHTO   C89 1025   5.297   0.375   1.703 -0.2407  0.2442 -0.4140
    3CHTO   O59 1026   5.282   0.384   1.556  0.7339 -0.0727 -0.1695
    3CHTO  H137 1027   5.201   0.344   1.531 -0.8303  1.2713  2.4647
    3CHTO   O45 1028   5.143   0.859   1.721  1.0163 -0.0679  0.6188
    3CHTO   C67 1029   5.285   0.867   1.723  0.5684 -0.2063 -0.3198
    3CHTO  H124 1030   5.327   0.778   1.769  1.8431  1.6090  2.1618
    3CHTO   C65 1031   5.336   0.886   1.578 -0.3966  0.2263 -0.1404
    3CHTO  H122 1032   5.248   0.920   1.524  0.5115  1.7320 -0.7208
    3CHTO   O44 1033   5.370   0.760   1.533 -0.4793  0.2986  0.1262
    3CHTO  H102 1034   5.356   0.752   1.441 -1.9829 -0.3566  0.3869
    3CHTO   C63 1035   5.441   1.001   1.566  0.3416 -0.5491  0.1513
    3CHTO  H120 1036   5.389   1.094   1.591  1.6646 -0.2260  1.7513
    3CHTO   N11 1037   5.488   1.029   1.429  0.7110  0.2498 -0.1102
    3CHTO  H108 1038   5.590   1.062   1.432  0.7377  0.0769  0.9525
    3CHTO  H109 1039   5.435   1.113   1.389 -2.2862 -0.4116  2.2883
    3CHTO   C61 1040   5.549   0.983   1.681  0.1680 -0.1431  0.6434
    3CHTO  H118 1041   5.600   1.080   1.678 -2.4890  1.3254  0.8586
    3CHTO   O40 1042   5.487   0.974   1.810 -0.4204  0.2327 -0.6370
    3CHTO   C68 1043   5.340   0.982   1.819 -0.7267  0.4717  1.0261
    3CHTO  H125 1044   5.307   1.082   1.783  1.8794  0.1235 -2.6095
    3CHTO   C72 1045   5.293   0.959   1.958 -0.0052  0.2703 -0.1600
    3CHTO   O48 1046   5.159   0.989   1.990  0.3868 -0.3487 -0.1198
    3CHTO  H105 1047   5.096   0.929   1.954 -1.0057 -0.9265  3.0560
    3CHTO   O38 1048   5.635   0.873   1.652 -0.1886 -0.1315  0.1915
    3CHTO   C55 1049   5.733   0.850   1.762  0.2896  0.4916 -0.1756
    3CHTO  H112 1050   5.707   0.909   1.852  1.2157 -0.1287  0.5104
    3CHTO   C56 1051   5.878   0.883   1.721  0.0223  0.1072 -0.4619
    3CHTO  H113 1052   5.895   0.834   1.624 -0.8101 -1.4643  0.1588
    3CHTO   O42 1053   5.889   1.021   1.704 -0.2901 -0.2092  0.2183
    3CHTO  H100 1054   5.865   1.068   1.782 -2.1992  3.8400 -2.6101
    3CHTO   C57 1055   5.988   0.821   1.821 -0.1029 -0.3428 -0.8850
    3CHTO  H114 1056   5.983   0.879   1.913  1.0400 -1.4941 -0.0800
    3CHTO   N10 1057   6.133   0.832   1.785  0.2661  0.5475 -0.0377
    3CHTO  H106 1058   6.164   0.744   1.732 -0.7294  1.1010 -1.5579
    3CHTO  H107 1059   6.151   0.922   1.728 -0.8698  2.2454  2.1585
    3CHTO   C58 1060   5.950   0.677   1.857  0.1203 -0.2681  0.2604
    3CHTO  H115 1061   5.961   0.611   1.768  2.1318 -0.5254  0.6789
    3CHTO   O37 1062   5.816   0.668   1.904  0.5378  0.1319  0.1410
    3CHTO   C59 1063   5.717   0.697   1.805  0.3178 -0.0107  0.3976
    3CHTO  H116 1064   5.732   0.638   1.715 -0.5064 -1.0307  0.9230
    3CHTO   C70 1065   5.576   0.674   1.867  0.4135 -0.2388  0.6738
    3CHTO   O46 1066   5.545   0.534   1.899 -0.4523 -0.1954  0.3967
    3CHTO  H103 1067   5.464   0.516   1.854 -0.0193  0.0973 -0.5217
    3CHTO   O39 1068   6.051   0.617   1.970  0.0528  0.3646 -0.0650
    3CHTO   C60 1069   6.072   0.475   1.982 -0.1023 -0.0306  0.3099
    3CHTO  H117 1070   5.999   0.422   1.921  0.1791 -2.8490  2.2933
    3CHTO   C62 1071   6.206   0.427   1.919 -0.4533  0.1084  0.8426
    3CHTO  H119 1072   6.217   0.485   1.825 -1.5174  0.4188  0.8916
    3CHTO   O43 1073   6.321   0.464   1.993  0.2910 -0.5581  0.7682
    3CHTO  H101 1074   6.333   0.557   1.984 -0.3865 -0.2621  2.5783
    3CHTO   C66 1075   6.199   0.264   1.893  0.1481  0.1739  0.5825
    3CHTO  H123 1076   6.104   0.247   1.843  0.6946 -1.4776  0.0998
    3CHTO   N12 1077   6.303   0.222   1.798 -0.7577  0.3633  0.4384
    3CHTO  H110 1078   6.401   0.255   1.828 -1.0198  1.1394  0.4664
    3CHTO  H111 1079   6.296   0.115   1.791  0.0011  0.3511 -0.2396
    3CHTO   C69 1080   6.198   0.195   2.025 -0.2659 -0.3637 -1.2439
    3CHTO  H126 1081   6.280   0.214   2.097  0.3654 -1.5261 -1.6421
    3CHTO   O41 1082   6.060   0.256   2.106 -0.2041 -0.5956 -0.3695
    3CHTO   C64 1083   6.059   0.412   2.124  0.0565 -0.4474  0.1668
    3CHTO  H121 1084   6.150   0.437   2.183  1.0048 -1.3391 -0.8762
    3CHTO   C71 1085   5.926   0.451   2.185  0.3641  0.3256 -0.2890
    3CHTO   O47 1086   5.817   0.385   2.114  0.1979  0.2447 -0.4401
    3CHTO  H104 1087   5.809   0.301   2.155  2.2828 -1.3405 -3.1957
    3CHTO   O34 1088   6.194   0.036   1.999 -0.4693 -0.2808 -0.0728
    3CHTO   C49 1089   6.254  -0.107   1.966  0.0179 -0.0889 -0.3706
    3CHTO   H91 1090   6.314  -0.089   1.877 -0.3578 -0.1830 -0.6465
    3CHTO   C47 1091   6.142  -0.210   1.935  0.2039  0.2501  0.0223
    3CHTO   H89 1092   6.108  -0.188   1.832  0.2240 -0.4865 -0.1483
    3CHTO   O33 1093   6.032  -0.192   2.028  0.0582 -0.3591  0.0620
    3CHTO   H70 1094   5.982  -0.115   2.009  1.1517  0.3425 -0.0189
    3CHTO   C45 1095   6.185  -0.359   1.948 -0.4035  0.7237  0.1034
    3CHTO   H87 1096   6.161  -0.397   2.048 -1.2004  0.2145 -0.2753
    3CHTO    N8 1097   6.126  -0.446   1.838  0.6339 -0.3111  0.3697
    3CHTO   H75 1098   6.026  -0.473   1.866 -0.2606  0.5217 -1.9401
    3CHTO   H76 1099   6.182  -0.538   1.828 -1.7221 -1.9727  2.0841
    3CHTO   C43 1100   6.348  -0.369   1.954 -0.2280  0.0667 -0.5972
    3CHTO   H85 1101   6.372  -0.475   1.959  1.2268  0.4046 -0.0761
    3CHTO   O29 1102   6.405  -0.293   2.062 -0.1779  0.7283  0.0407
    3CHTO   C50 1103   6.346  -0.163   2.085 -0.9366 -0.3821 -0.4255
    3CHTO   H92 1104   6.291  -0.152   2.179  1.1364  1.1217  0.6410
    3CHTO   C54 1105   6.468  -0.067   2.109  0.2692  0.4474  0.2648
    3CHTO   O36 1106   6.558  -0.103   2.216  0.2004 -0.4227  0.7506
    3CHTO   H72 1107   6.555  -0.047   2.291  0.2185  0.5057  0.0702
    3CHTO   O27 1108   6.414  -0.334   1.826 -0.0994 -0.5328  0.9529
    3CHTO   C37 1109   6.515  -0.251   1.771 -0.0748  0.2070  0.0969
    3CHTO   H79 1110   6.512  -0.157   1.829  2.5122 -1.2710  2.7921
    3CHTO   C38 1111   6.662  -0.314   1.802  0.2326 -0.3004  0.2565
    3CHTO   H80 1112   6.651  -0.420   1.774 -0.9779 -0.0747 -0.1401
    3CHTO   O31 1113   6.681  -0.304   1.943 -0.0358 -0.3141  0.1995
    3CHTO   H68 1114   6.762  -0.333   1.982  0.4213 -0.0890 -0.5686
    3CHTO   C39 1115   6.777  -0.247   1.729 -0.1049 -0.6580 -0.8402
    3CHTO   H81 1116   6.767  -0.144   1.766  0.9924 -0.3758 -1.3131
    3CHTO    N7 1117   6.916  -0.299   1.764 -0.4101 -0.1665  0.1401
    3CHTO   H73 1118   6.987  -0.222   1.789 -0.8401  0.2177  0.2075
    3CHTO   H74 1119   6.908  -0.391   1.821 -0.9218  0.0944  0.4982
    3CHTO   C40 1120   6.739  -0.240   1.579 -0.2749 -1.1490 -0.5023
    3CHTO   H82 1121   6.739  -0.340   1.536  0.1668 -1.5836  0.4807
    3CHTO   O26 1122   6.611  -0.179   1.563  0.7839  0.1041  0.6368
    3CHTO   C41 1123   6.491  -0.230   1.621  0.2876  0.1956 -0.0959
    3CHTO   H83 1124   6.462  -0.330   1.586 -0.6641 -0.0125  1.2586
    3CHTO   C52 1125   6.371  -0.144   1.582  0.2292  0.0396  0.0726
    3CHTO   O35 1126   6.330  -0.157   1.431  0.3284 -0.0705  0.8890
    3CHTO   H71 1127   6.252  -0.109   1.413 -0.3632 -0.5644  2.4419
    3CHTO   O28 1128   6.840  -0.171   1.496 -0.4011 -0.0127 -0.2326
    3CHTO   C42 1129   6.833  -0.030   1.450  0.6204  0.3434 -0.6152
    3CHTO   H84 1130   6.932  -0.015   1.406  0.9056  0.5739  0.0949
    3CHTO   C44 1131   6.806   0.081   1.554 -0.5080  0.8492  0.2972
    3CHTO   H86 1132   6.722   0.056   1.618  0.7979  1.4879  2.3335
    3CHTO   O32 1133   6.918   0.055   1.648  0.1848 -0.3525 -0.0460
    3CHTO   H69 1134   6.911   0.103   1.728 -0.8394 -0.9932  0.2565
    3CHTO   C48 1135   6.807   0.231   1.490  0.3683  1.0389 -0.4483
    3CHTO   H90 1136   6.914   0.247   1.475  0.7944  0.8962  2.1823
    3CHTO    N9 1137   6.757   0.328   1.588 -0.2470  0.1072  0.5782
    3CHTO   H77 1138   6.802   0.319   1.686 -0.1393 -0.6927  0.4601
    3CHTO   H78 1139   6.652   0.351   1.589 -0.3039 -0.1765  1.9273
    3CHTO   C51 1140   6.719   0.235   1.361 -0.4849 -0.2038  0.2637
    3CHTO   H93 1141   6.614   0.235   1.392 -0.9064  0.6171 -1.1225
    3CHTO   O30 1142   6.747   0.125   1.269 -0.4672  0.0445 -0.4086
    3CHTO   C46 1143   6.732  -0.009   1.332  0.0364  0.4187 -0.4092
    3CHTO   H88 1144   6.631  -0.015   1.372  1.0430 -0.0066  2.1975
    3CHTO   C53 1145   6.764  -0.112   1.215  0.1402 -0.3958  0.4454
    3CHTO   O72 1146   6.723  -0.248   1.252  0.6186  0.1476 -0.0720
    3CHTO  H199 1147   6.660  -0.281   1.191  1.5921 -2.3342  0.2041
    3CHTO   O22 1148   6.736   0.361   1.290 -0.3499  0.6385 -0.1843
    3CHTO   C31 1149   6.659   0.396   1.162 -0.0347 -0.2664 -0.0246
    3CHTO   H59 1150   6.626   0.299   1.118 -0.3595  0.0472 -0.4820
    3CHTO   C29 1151   6.534   0.483   1.189 -0.1998 -0.2309 -0.2603
    3CHTO   H57 1152   6.569   0.575   1.239  1.8814  0.3126 -2.6078
    3CHTO   O21 1153   6.440   0.413   1.281 -0.0932 -0.1845 -0.5694
    3CHTO   H37 1154   6.451   0.454   1.365 -2.7401 -1.0188  0.2501
    3CHTO   C27 1155   6.453   0.522   1.060  0.6373  0.2482 -0.3410
    3CHTO   H55 1156   6.418   0.431   1.009  1.6229  0.1468 -0.8604
    3CHTO    N5 1157   6.342   0.620   1.086 -0.9578 -0.1285  0.2685
    3CHTO   H43 1158   6.298   0.647   0.992 -0.1805  0.8446  0.1788
    3CHTO   H44 1159   6.376   0.694   1.156  0.1931 -0.1742 -0.2352
    3CHTO   C25 1160   6.551   0.574   0.955  1.0131  0.1240  0.4747
    3CHTO   H53 1161   6.584   0.676   0.980 -0.8170  0.7766  0.3077
    3CHTO   O17 1162   6.672   0.499   0.940  0.2589  1.0202  0.1304
    3CHTO   C32 1163   6.744   0.477   1.060  0.5107  0.0771 -0.0002
    3CHTO   H60 1164   6.780   0.571   1.100  0.7099  0.4187 -0.9718
    3CHTO   C36 1165   6.872   0.393   1.037 -0.6047 -0.1667  0.6678
    3CHTO   O25 1166   6.954   0.437   0.932 -0.0338 -0.0597  0.3925
    3CHTO   H40 1167   7.027   0.384   0.909 -0.0274  0.0360  0.1907
    3CHTO   O15 1168   6.486   0.582   0.813 -0.2500  0.3415 -0.5413
    3CHTO   C19 1169   6.474   0.690   0.714 -0.3152  0.0213  0.3089
    3CHTO   H47 1170   6.423   0.636   0.633 -0.0113  0.7122 -0.3474
    3CHTO   C20 1171   6.395   0.813   0.761  0.3205 -0.9421  0.1973
    3CHTO   H48 1172   6.432   0.850   0.857  0.2364  0.5477 -0.3370
    3CHTO   O19 1173   6.261   0.761   0.784  0.2656 -0.0304 -0.1798
    3CHTO   H35 1174   6.258   0.709   0.862 -0.9693 -1.8408 -1.3975
    3CHTO   C21 1175   6.388   0.927   0.651  0.4326 -0.1066  0.4583
    3CHTO   H49 1176   6.315   0.897   0.576  0.2354  1.8756 -0.1826
    3CHTO    N4 1177   6.344   1.054   0.711 -0.1790 -0.6732  0.4444
    3CHTO   H41 1178   6.391   1.071   0.807  1.3054 -0.4001 -0.3126
    3CHTO   H42 1179   6.372   1.134   0.644 -1.1174  0.9306  1.9117
    3CHTO   C22 1180   6.523   0.945   0.572 -0.2763 -0.5919 -0.1464
    3CHTO   H50 1181   6.595   0.999   0.633 -1.2466 -0.1290  0.6029
    3CHTO   O14 1182   6.585   0.821   0.543 -0.2415 -0.1875 -0.5723
    3CHTO   C23 1183   6.613   0.731   0.649  0.9110  0.0986  0.3571
    3CHTO   H51 1184   6.677   0.786   0.720  0.0733 -0.2209  1.3736
    3CHTO   C34 1185   6.693   0.616   0.586  0.0681  0.2733 -0.0562
    3CHTO   O23 1186   6.826   0.662   0.549  0.0777  0.1159 -0.0714
    3CHTO   H38 1187   6.862   0.741   0.586 -0.3412  1.0194 -1.5420
    3CHTO   O16 1188   6.494   1.009   0.445  0.2954 -0.1278 -0.4848
    3CHTO   C24 1189   6.593   1.138   0.403  1.0623 -0.3572 -0.2486
    3CHTO   H52 1190   6.643   1.183   0.489 -2.6366  1.4451  1.0720
    3CHTO   C26 1191   6.501   1.252   0.345 -0.5484  0.0785  0.1646
    3CHTO   H54 1192   6.427   1.209   0.274 -0.8018 -1.2500  1.2247
    3CHTO   O20 1193   6.421   1.302   0.451  0.3435  0.0652 -0.0298
    3CHTO   H36 1194   6.372   1.378   0.425  0.4684  0.4803  0.9458
    3CHTO   C30 1195   6.591   1.360   0.270 -0.7924  0.4019  0.0127
    3CHTO   H58 1196   6.631   1.428   0.347 -1.9933  1.0620  0.0714
    3CHTO    N6 1197   6.499   1.438   0.181 -0.5451 -0.0692  0.4155
    3CHTO   H45 1198   6.525   1.445   0.077 -0.0890 -0.6196  0.4861
    3CHTO   H46 1199   6.496   1.539   0.217 -1.0527 -0.3275  1.0998
    3CHTO   C33 1200   6.706   1.300   0.182  0.4399  0.0070 -0.6565
    3CHTO   H61 1201   6.661   1.242   0.100  0.0050  0.6179 -0.8540
    3CHTO   O18 1202   6.777   1.211   0.271  0.1022 -0.3269 -0.2743
    3CHTO   C28 1203   6.705   1.096   0.306  0.0907 -0.0389  0.4757
    3CHTO   H56 1204   6.664   1.050   0.217 -0.8048 -0.7523  1.2531
    3CHTO   C35 1205   6.800   0.995   0.357  0.0408  0.0947 -0.3761
    3CHTO   O24 1206   6.886   1.005   0.473  0.2712 -0.4172  0.0587
    3CHTO   H39 1207   6.965   0.962   0.448  1.5267  2.3233 -0.9221
    3CHTO    O9 1208   6.793   1.396   0.117  0.4483 -0.4013  0.6020
    3CHTO   C13 1209   6.890   1.476   0.245  0.4234  0.6416  0.2672
    3CHTO   H26 1210   6.844   1.448   0.342  1.7058 -1.1696  0.3747
    3CHTO   C11 1211   6.897   1.628   0.232  0.3681  0.2857  0.3016
    3CHTO   H24 1212   6.792   1.663   0.239 -1.6516 -5.2431  0.3234
    3CHTO    O8 1213   6.954   1.649   0.096 -0.2787  0.2697  0.9094
    3CHTO    H3 1214   6.875   1.670   0.049 -1.3986 -2.0146  1.6657
    3CHTO    C9 1215   6.994   1.684   0.338 -0.9015 -0.0866  0.1494
    3CHTO   H22 1216   6.963   1.647   0.437  1.4390 -1.6491  0.3512
    3CHTO    N2 1217   6.995   1.835   0.343  0.0803 -0.4264 -0.8756
    3CHTO   H10 1218   6.908   1.893   0.316  0.7744  0.1371 -1.9524
    3CHTO   H11 1219   7.093   1.880   0.339  0.8364 -1.6671  2.0884
    3CHTO    C7 1220   7.141   1.618   0.326 -0.1308  0.4189  0.2121
    3CHTO   H20 1221   7.193   1.660   0.415 -0.8236 -0.2938  0.9647
    3CHTO    O4 1222   7.130   1.478   0.341  0.0978  0.0129 -0.5807
    3CHTO   C14 1223   7.033   1.405   0.259  0.6659  0.3238  0.6060
    3CHTO   H27 1224   7.030   1.307   0.312 -0.4447  0.1215  0.1841
    3CHTO   C18 1225   7.080   1.372   0.116 -0.7297 -0.1225  0.3981
    3CHTO   O13 1226   7.195   1.292   0.108 -0.6323  0.4042  0.4837
    3CHTO    H7 1227   7.223   1.267   0.022 -0.2611 -0.1388  0.7667
    3CHTO    O2 1228   7.233   1.659   0.156 -0.1751 -0.2499  0.4593
    3CHTO    C1 1229   7.365   1.610   0.124 -0.6001 -0.1848  0.2608
    3CHTO   H14 1230   7.361   1.508   0.081 -0.7197  0.4272 -1.1953
    3CHTO    C2 1231   7.465   1.607   0.252 -1.0843  0.4605  0.5822
    3CHTO   H15 1232   7.470   1.705   0.301 -0.8284  0.4384  0.6007
    3CHTO    O6 1233   7.398   1.535   0.356  0.0444 -0.4544  0.2529
    3CHTO    H1 1234   7.322   1.586   0.377  0.0709 -1.0493  1.8711
    3CHTO    C3 1235   7.611   1.556   0.221  0.5582  0.2045  0.2048
    3CHTO   H16 1236   7.617   1.448   0.202 -2.4248 -0.1086  0.8860
    3CHTO    N1 1237   7.714   1.574   0.332  0.0063 -0.1194  0.5293
    3CHTO    H8 1238   7.807   1.605   0.286  0.1296 -0.4896  0.5284
    3CHTO    H9 1239   7.725   1.480   0.384 -1.4343 -0.4262  0.2884
    3CHTO    C4 1240   7.659   1.627   0.088  0.5761 -0.0732  0.0671
    3CHTO   H17 1241   7.691   1.729   0.112 -0.1279  0.7061 -2.1759
    3CHTO    O1 1242   7.562   1.629  -0.021 -0.1939  0.0555 -0.2212
    3CHTO    C5 1243   7.432   1.694   0.010 -0.5739  0.3933  0.2180
    3CHTO   H18 1244   7.445   1.794   0.051  2.2353 -0.1701  0.7768
    3CHTO   C16 1245   7.346   1.699  -0.118 -0.2598  0.4506  0.1619
    3CHTO   O11 1246   7.300   1.568  -0.161  0.7374  0.5754 -0.5126
    3CHTO    H5 1247   7.368   1.506  -0.144 -3.2013 -2.7607  4.2628
    3CHTO    O3 1248   7.778   1.549   0.048 -0.4990 -0.1653 -0.4365
    3CHTO    C6 1249   7.841   1.591  -0.074  0.2397 -0.7714 -0.1223
    3CHTO   H19 1250   7.785   1.669  -0.125 -2.4824 -1.4531  1.7150
    3CHTO    C8 1251   7.976   1.647  -0.028 -0.8579 -0.1056 -0.4024
    3CHTO   H21 1252   8.022   1.591   0.053  0.6954  1.9298  0.1755
    3CHTO    O7 1253   7.947   1.772   0.030  0.0628 -0.4535  0.0251
    3CHTO    H2 1254   7.929   1.765   0.122  0.8742  0.0085  0.2258
    3CHTO   C12 1255   8.084   1.655  -0.150 -0.1191 -0.2025 -0.4765
    3CHTO   H25 1256   8.059   1.746  -0.208  0.7766  0.1295 -0.3459
    3CHTO    N3 1257   8.221   1.675  -0.093 -0.0833 -0.2068 -0.2223
    3CHTO   H12 1258   8.295   1.621  -0.152 -1.0353 -0.6820 -0.9956
    3CHTO   H13 1259   8.221   1.649   0.011  0.0038 -0.6409 -0.3314
    3CHTO   C15 1260   8.069   1.531  -0.247 -0.3399  0.1511 -1.3264
    3CHTO   H28 1261   8.116   1.443  -0.203 -0.8712 -0.0339 -1.1237
    3CHTO   O10 1262   8.126   1.550  -0.363  0.7589  0.0308  0.7282
    3CHTO    H4 1263   8.215   1.521  -0.372  0.4733 -0.6575  0.0187
    3CHTO    O5 1264   7.934   1.503  -0.279  0.2285  0.2821  0.7799
    3CHTO   C10 1265   7.850   1.469  -0.169  0.6738 -0.4699 -0.1311
    3CHTO   H23 1266   7.892   1.389  -0.109 -2.3829 -0.5574  1.9897
    3CHTO   C17 1267   7.716   1.406  -0.209 -0.0367 -0.6108 -0.3504
    3CHTO   O12 1268   7.747   1.276  -0.259  0.8560  0.2508  0.3095
    3CHTO    H6 1269   7.786   1.279  -0.344  0.7428 -0.4128  0.2299
    4CHTO  H203 1270   6.453   7.132   1.794 -1.1036  0.8935 -0.1417
    4CHTO   O82 1271   6.399   7.123   1.870 -0.6504 -0.1292  0.0651
    4CHTO  C123 1272   6.347   7.257   1.905 -0.2722 -0.7430 -0.2825
    4CHTO  H227 1273   6.276   7.257   1.989  0.3765  1.9266  0.2995
    4CHTO   O77 1274   6.471   7.332   1.948 -0.1233 -0.4867  0.0816
    4CHTO  C118 1275   6.443   7.446   2.023  0.3022 -0.7485  0.5941
    4CHTO  H222 1276   6.382   7.434   2.114 -0.8849 -0.2154 -0.1270
    4CHTO  C125 1277   6.586   7.488   2.069 -0.3677  0.1182  0.2300
    4CHTO   O84 1278   6.598   7.585   2.174  0.5904  0.1171 -0.4878
    4CHTO  H205 1279   6.545   7.662   2.163 -1.3380 -1.1667 -0.5142
    4CHTO  C114 1280   6.368   7.541   1.933  0.8722 -0.3496  0.4547
    4CHTO  H218 1281   6.435   7.577   1.855  1.7180  0.4382  1.5516
    4CHTO  C116 1282   6.251   7.485   1.848  0.1641 -0.2133  0.2431
    4CHTO  H220 1283   6.164   7.474   1.916 -1.0337  1.1574 -1.0305
    4CHTO   O79 1284   6.211   7.583   1.752  0.1676 -0.0128 -0.2400
    4CHTO  H201 1285   6.178   7.550   1.671 -0.0190 -1.8451  0.5520
    4CHTO  C120 1286   6.287   7.340   1.789 -0.1646  0.2915 -0.1376
    4CHTO  H224 1287   6.355   7.352   1.703 -2.8251 -1.0164 -2.5057
    4CHTO   N21 1288   6.169   7.283   1.735  0.2187 -0.0455  0.2243
    4CHTO  H211 1289   6.174   7.176   1.735 -1.1421 -0.1282 -1.5609
    4CHTO  H212 1290   6.080   7.301   1.795  0.3005 -2.6435  1.1795
    4CHTO   O75 1291   6.314   7.644   2.013 -0.2627 -0.1825 -0.2001
    4CHTO  C112 1292   6.388   7.787   1.980  0.2714  0.4837 -0.0361
    4CHTO  H216 1293   6.428   7.784   1.877 -0.4314 -0.5105 -0.2921
    4CHTO   O73 1294   6.485   7.816   2.076  0.1530 -0.3051 -0.2399
    4CHTO  C113 1295   6.561   7.936   2.044  0.0506  0.2363  0.1339
    4CHTO  H217 1296   6.608   7.921   1.944 -3.1180 -0.5019 -1.2955
    4CHTO  C124 1297   6.678   7.963   2.140 -0.4732 -0.1517 -0.1880
    4CHTO   O83 1298   6.771   7.856   2.123  0.0667 -0.9616 -0.5170
    4CHTO  H204 1299   6.857   7.882   2.098 -0.2963  0.7441 -0.0582
    4CHTO  C109 1300   6.469   8.064   2.049  0.2416 -0.1921 -0.2489
    4CHTO  H213 1301   6.452   8.087   2.155  0.2323  0.2298 -0.3435
    4CHTO  C110 1302   6.339   8.045   1.966  0.1229  0.2729  0.0744
    4CHTO  H214 1303   6.361   8.060   1.861  0.8947  0.1625  0.2155
    4CHTO   O78 1304   6.238   8.142   2.004  0.2122 -0.4134  0.3649
    4CHTO  H200 1305   6.163   8.132   1.949  1.0593 -3.8927 -0.3390
    4CHTO  C111 1306   6.279   7.901   1.990 -0.7382  0.6752 -0.2344
    4CHTO  H215 1307   6.241   7.894   2.093  0.6455  2.2512  0.4005
    4CHTO   N19 1308   6.161   7.876   1.897 -1.0407 -0.1403 -0.0554
    4CHTO  H207 1309   6.071   7.854   1.952 -1.0479 -0.5026 -0.2128
    4CHTO  H208 1310   6.191   7.790   1.839  0.4872 -0.3871  1.0715
    4CHTO   O74 1311   6.537   8.179   1.990 -0.1020  0.7069 -0.6180
    4CHTO  C115 1312   6.520   8.303   2.066  0.3462 -0.4222 -0.8664
    4CHTO  H219 1313   6.437   8.295   2.137  1.4171 -2.1505  0.2025
    4CHTO   O76 1314   6.652   8.345   2.157  0.7239  0.2968  0.2601
    4CHTO  C122 1315   6.765   8.347   2.074  0.3125  0.5922 -0.1528
    4CHTO  H226 1316   6.801   8.247   2.051  0.5115  1.3022 -3.0242
    4CHTO  C126 1317   6.884   8.416   2.159  0.6656 -0.1637  0.5503
    4CHTO   O85 1318   6.929   8.343   2.269  1.1096 -0.1307 -0.7904
    4CHTO  H206 1319   7.002   8.384   2.312  0.7652  0.9068 -1.1646
    4CHTO  C121 1320   6.746   8.426   1.941  0.2703 -0.2844 -0.1228
    4CHTO  H225 1321   6.830   8.497   1.923 -0.6776  0.2635 -2.6002
    4CHTO   O81 1322   6.754   8.332   1.829  0.3574  0.2078  0.1168
    4CHTO  H202 1323   6.792   8.375   1.755 -0.2045 -0.6213 -0.6621
    4CHTO  C119 1324   6.613   8.509   1.941 -0.1386  0.5222  0.1093
    4CHTO  H223 1325   6.633   8.574   2.026 -0.1510 -0.0828  0.5754
    4CHTO  C117 1326   6.483   8.419   1.959 -0.3146 -0.2870 -0.4240
    4CHTO  H221 1327   6.450   8.355   1.877  0.5385 -1.7110  0.3163
    4CHTO   N20 1328   6.360   8.500   2.002 -0.0829 -0.2957 -0.5970
    4CHTO  H209 1329   6.270   8.446   1.978 -1.3300  0.2597  2.5873
    4CHTO  H210 1330   6.353   8.524   2.107 -1.2746 -0.3263 -0.6634
    4CHTO   O80 1331   6.609   8.613   1.822  0.2417  0.5383  0.1133
    4CHTO  C103 1332   6.656   8.760   1.844 -0.5981  0.4974 -0.0308
    4CHTO  H190 1333   6.620   8.793   1.941 -1.5944 -0.5482 -0.0323
    4CHTO  C101 1334   6.809   8.780   1.841 -0.4896 -0.0051  0.0742
    4CHTO  H188 1335   6.848   8.720   1.759 -1.1260 -1.2080  0.6398
    4CHTO   O68 1336   6.851   8.731   1.985 -0.4586 -0.0977 -0.6929
    4CHTO  H168 1337   6.802   8.777   2.051  0.8652  1.3916 -0.7258
    4CHTO   C99 1338   6.852   8.935   1.826 -0.0453  0.5205  0.0657
    4CHTO  H186 1339   6.810   8.985   1.915 -1.4306  0.3073 -0.4498
    4CHTO   N17 1340   6.994   8.962   1.813  0.2441 -0.4015  0.2061
    4CHTO  H174 1341   7.054   8.928   1.896 -0.8363 -1.8964  0.4155
    4CHTO  H175 1342   6.999   9.069   1.808 -2.0789 -0.2135  1.2093
    4CHTO   C97 1343   6.765   8.996   1.709  0.0737 -0.4227  0.2096
    4CHTO  H184 1344   6.798   8.958   1.611  1.2287  0.2672  0.3206
    4CHTO   O64 1345   6.629   8.973   1.731  0.3540 -0.0917  1.5268
    4CHTO  C104 1346   6.583   8.841   1.732  0.4041  0.4114 -0.1014
    4CHTO  H191 1347   6.598   8.798   1.633  1.9804  1.0279 -0.1398
    4CHTO  C108 1348   6.430   8.847   1.758 -0.0483 -0.6257 -0.2991
    4CHTO   O71 1349   6.339   8.738   1.722  0.1108  0.2035  0.8109
    4CHTO  H171 1350   6.380   8.663   1.684 -0.3672  0.8216 -0.9668
    4CHTO   O62 1351   6.779   9.141   1.699 -0.0451 -0.2335  0.1563
    4CHTO   C91 1352   6.746   9.207   1.577  0.1456  0.1807  0.0803
    4CHTO  H178 1353   6.698   9.133   1.513 -1.1982  0.7585  0.4186
    4CHTO   C92 1354   6.878   9.245   1.510  0.0863  0.1125  0.3004
    4CHTO  H179 1355   6.935   9.306   1.583 -1.6320  0.9055  1.0157
    4CHTO   O66 1356   6.970   9.129   1.480 -0.4981  0.4859  0.4276
    4CHTO  H166 1357   7.016   9.102   1.556 -0.2188 -2.2406 -0.6560
    4CHTO   C93 1358   6.856   9.321   1.369  0.9506 -0.4336  0.2499
    4CHTO  H180 1359   6.865   9.249   1.287  3.1226 -0.8242  0.7911
    4CHTO   N16 1360   6.967   9.412   1.341 -0.2151  0.4721 -0.4711
    4CHTO  H172 1361   7.042   9.379   1.271  1.6315  0.5697  1.3916
    4CHTO  H173 1362   6.930   9.511   1.321  0.6139  0.4704 -2.1104
    4CHTO   C94 1363   6.712   9.399   1.367 -0.8582  0.8895  0.0037
    4CHTO  H181 1364   6.718   9.497   1.320  0.1383  0.4316 -0.8474
    4CHTO   O61 1365   6.664   9.432   1.499 -0.5498  0.4710  0.1395
    4CHTO   C95 1366   6.651   9.328   1.598  0.0639  0.0232  1.1163
    4CHTO  H182 1367   6.688   9.367   1.693  1.1670 -0.6312  0.9609
    4CHTO  C106 1368   6.503   9.285   1.616  0.1434  0.3733 -0.7946
    4CHTO   O69 1369   6.430   9.392   1.679  0.5438 -0.3340  0.1848
    4CHTO  H169 1370   6.388   9.436   1.608  0.9245 -1.8964 -1.0412
    4CHTO   O63 1371   6.590   9.308   1.291 -0.4586 -0.4156 -1.0474
    4CHTO   C96 1372   6.634   9.281   1.133 -0.5387  0.1221 -0.1302
    4CHTO  H183 1373   6.741   9.295   1.119 -1.0251  1.2591 -2.9224
    4CHTO   C98 1374   6.572   9.372   1.022 -0.0941 -0.3729  0.2124
    4CHTO  H185 1375   6.463   9.369   1.023 -0.1714  0.9120 -1.6188
    4CHTO   O67 1376   6.602   9.503   1.059  0.5232 -0.3054  0.0306
    4CHTO  H167 1377   6.530   9.561   1.073 -0.6986 -1.8202  0.1313
    4CHTO  C102 1378   6.624   9.340   0.872 -0.0582 -0.7516  0.3481
    4CHTO  H189 1379   6.720   9.394   0.867 -0.8542  1.0193  3.1048
    4CHTO   N18 1380   6.539   9.393   0.765 -0.6179 -0.7397 -0.2342
    4CHTO  H176 1381   6.441   9.349   0.778 -1.6713  1.6700  0.2053
    4CHTO  H177 1382   6.538   9.501   0.765 -0.1601 -0.7314  0.4239
    4CHTO  C105 1383   6.653   9.189   0.856  0.2038  0.4123  0.3959
    4CHTO  H192 1384   6.573   9.140   0.800  0.2141 -2.4245  2.7560
    4CHTO   O65 1385   6.668   9.106   0.969  0.6838  0.3169 -1.0422
    4CHTO  C100 1386   6.600   9.135   1.093  0.1917 -0.7570  0.3198
    4CHTO  H187 1387   6.491   9.128   1.079  0.0740  0.1924  0.7425
    4CHTO  C107 1388   6.636   9.026   1.205 -0.2888  1.0019 -0.5238
    4CHTO   O70 1389   6.770   9.047   1.242  0.1588 -0.0023 -0.2612
    4CHTO  H170 1390   6.813   8.964   1.249 -1.2558 -0.6936  0.4354
    4CHTO   O57 1391   6.783   9.184   0.774 -0.2000  0.4423  0.1232
    4CHTO   C85 1392   6.798   9.084   0.670 -0.7534  0.1024  0.5139
    4CHTO  H157 1393   6.710   9.098   0.604  1.2345 -0.8947 -2.4647
    4CHTO   C83 1394   6.781   8.939   0.719  0.7748  0.0346 -1.0631
    4CHTO  H155 1395   6.687   8.936   0.775 -0.5486 -1.4810 -3.2771
    4CHTO   O56 1396   6.888   8.902   0.806  0.3872 -0.3232  0.3096
    4CHTO  H135 1397   6.867   8.934   0.891  0.4455  1.6769 -0.3883
    4CHTO   C81 1398   6.771   8.842   0.597 -0.3013  0.1133  0.2560
    4CHTO  H153 1399   6.681   8.867   0.542 -0.6483  0.0707  0.8087
    4CHTO   N14 1400   6.740   8.701   0.630 -0.6350 -0.4196  0.1883
    4CHTO  H141 1401   6.653   8.667   0.578  0.1634  0.7564 -1.9791
    4CHTO  H142 1402   6.823   8.640   0.603 -0.2640  0.0411  0.2824
    4CHTO   C79 1403   6.903   8.859   0.507 -0.1812  0.2025 -0.5112
    4CHTO  H151 1404   6.881   8.809   0.413  0.7097 -0.1790 -0.5128
    4CHTO   O52 1405   6.931   9.002   0.484 -0.5270  0.0112 -0.2610
    4CHTO   C86 1406   6.930   9.098   0.591  0.0497  0.5646 -0.0137
    4CHTO  H158 1407   7.017   9.075   0.655  2.4915  0.1781 -3.3400
    4CHTO   C90 1408   6.936   9.244   0.543  0.1984 -0.0105  0.1793
    4CHTO   O60 1409   7.029   9.270   0.436  0.5483 -0.1197  0.3290
    4CHTO  H138 1410   7.119   9.265   0.463  0.3716  1.0248  1.1035
    4CHTO   O50 1411   7.016   8.789   0.562  0.4793 -0.1238  0.3590
    4CHTO   C73 1412   7.150   8.816   0.611 -0.0427 -0.7561 -0.6637
    4CHTO  H145 1413   7.143   8.874   0.704  1.0057 -0.9340 -0.4635
    4CHTO   C74 1414   7.237   8.884   0.501 -0.1277 -0.3817 -0.3257
    4CHTO  H146 1415   7.190   8.980   0.473 -3.5689 -1.9289 -0.1332
    4CHTO   O54 1416   7.360   8.902   0.572 -0.5086 -0.0889 -0.3914
    4CHTO  H133 1417   7.434   8.848   0.551 -1.1378 -0.8046 -0.7985
    4CHTO   C75 1418   7.249   8.790   0.381  0.4646  0.2948 -0.2920
    4CHTO  H147 1419   7.151   8.776   0.333  0.3883  1.1091 -0.3768
    4CHTO   N13 1420   7.346   8.840   0.278 -0.0606 -0.1067 -0.2050
    4CHTO  H139 1421   7.441   8.836   0.329 -0.4784  1.6594  0.7588
    4CHTO  H140 1422   7.317   8.940   0.252 -0.6814 -0.1102  0.4640
    4CHTO   C76 1423   7.296   8.647   0.429 -0.5236 -0.3006 -0.6732
    4CHTO  H148 1424   7.396   8.637   0.469 -0.5762 -1.4318 -0.7949
    4CHTO   O49 1425   7.219   8.590   0.536 -0.0208  0.0371 -0.0357
    4CHTO   C77 1426   7.211   8.677   0.655  0.4431  0.4313  0.0818
    4CHTO  H149 1427   7.309   8.692   0.699  1.7161 -3.4366 -1.1900
    4CHTO   C88 1428   7.115   8.618   0.764  0.0785 -0.2370 -0.3979
    4CHTO   O58 1429   7.148   8.484   0.817 -0.4006 -0.1816  0.7006
    4CHTO  H136 1430   7.190   8.427   0.756 -0.4793 -2.3090  2.5653
    4CHTO   O51 1431   7.259   8.539   0.312  0.2977  0.5555  0.1806
    4CHTO   C78 1432   7.398   8.436   0.268  0.2742  0.0885  0.3025
    4CHTO  H150 1433   7.493   8.492   0.281  0.5492  0.6363 -3.5652
    4CHTO   C80 1434   7.386   8.402   0.119 -0.3162 -0.3266  0.4138
    4CHTO  H152 1435   7.283   8.366   0.098  0.3330 -2.0011 -0.0613
    4CHTO   O55 1436   7.396   8.525   0.048  0.0662 -0.2491  0.1290
    4CHTO  H134 1437   7.324   8.582   0.063 -0.1515  0.0211 -1.7737
    4CHTO   C84 1438   7.502   8.297   0.069 -0.3115 -0.1113  0.2326
    4CHTO  H156 1439   7.592   8.356   0.084  0.4332 -1.8925  3.2120
    4CHTO   N15 1440   7.483   8.265  -0.079  0.6681  0.0221  0.1163
    4CHTO  H143 1441   7.387   8.228  -0.108  1.0177 -0.7379 -0.1091
    4CHTO  H144 1442   7.495   8.358  -0.130 -2.5819 -1.0417 -2.7657
    4CHTO   C87 1443   7.509   8.175   0.154 -0.0187  0.5761 -0.5916
    4CHTO  H159 1444   7.414   8.123   0.138  0.1347 -0.2415  1.0374
    4CHTO   O53 1445   7.516   8.231   0.315  0.3865  0.3503 -0.6266
    4CHTO   C82 1446   7.399   8.304   0.349 -0.5640 -0.0886  1.2911
    4CHTO  H154 1447   7.308   8.249   0.327 -0.8218  0.3682  1.2173
    4CHTO   C89 1448   7.407   8.325   0.496  0.0123  0.5692  0.2217
    4CHTO   O59 1449   7.520   8.408   0.523  0.3022  0.3102 -0.1092
    4CHTO  H137 1450   7.589   8.347   0.509 -0.3593 -0.2297 -1.0810
    4CHTO   O45 1451   7.631   8.073   0.097  0.0823  0.0895  0.3792
    4CHTO   C67 1452   7.666   7.955   0.175 -0.3147  0.5240 -0.4809
    4CHTO  H124 1453   7.729   7.893   0.111  2.7645  0.8602  2.1291
    4CHTO   C65 1454   7.753   7.988   0.299 -0.2365 -0.5880  0.3210
    4CHTO  H122 1455   7.754   8.096   0.314  1.1076 -0.7376  1.4305
    4CHTO   O44 1456   7.891   7.954   0.265  0.3470  0.1932 -0.6231
    4CHTO  H102 1457   7.951   8.003   0.317 -1.5855 -1.2978  3.2243
    4CHTO   C63 1458   7.694   7.933   0.429  0.3569  0.5089  0.2235
    4CHTO  H120 1459   7.606   7.991   0.457  0.9964  0.5189  2.2731
    4CHTO   N11 1460   7.776   7.949   0.555  0.8886 -0.2938  0.0067
    4CHTO  H108 1461   7.819   8.046   0.568  0.7650 -0.0578 -1.2944
    4CHTO  H109 1462   7.740   7.892   0.638  0.9195  0.0796  0.2816
    4CHTO   C61 1463   7.662   7.778   0.415 -0.1984 -0.3811 -0.8251
    4CHTO  H118 1464   7.623   7.750   0.514  4.2150 -1.0047  0.8290
    4CHTO   O40 1465   7.558   7.763   0.321 -0.2765  0.2876 -1.0239
    4CHTO   C68 1466   7.545   7.862   0.210  0.6381  0.3658  0.8681
    4CHTO  H125 1467   7.467   7.934   0.243  0.5777 -0.1569  1.8822
    4CHTO   C72 1468   7.488   7.785   0.080 -0.2049  0.5291 -0.4968
    4CHTO   O48 1469   7.375   7.704   0.109  0.4934  0.6441  0.5469
    4CHTO  H105 1470   7.380   7.618   0.073  0.4386  0.6826  0.4478
    4CHTO   O38 1471   7.768   7.693   0.366  0.4542 -0.0063  0.0068
    4CHTO   C55 1472   7.765   7.554   0.409  0.1821  0.1653  0.1180
    4CHTO  H112 1473   7.659   7.534   0.432  0.8666 -3.3089  0.4340
    4CHTO   C56 1474   7.862   7.527   0.535  0.2021  0.3822 -0.1179
    4CHTO  H113 1475   7.962   7.548   0.495 -0.5671  0.8783 -1.8120
    4CHTO   O42 1476   7.831   7.609   0.645  0.5092  0.2659 -0.6365
    4CHTO  H100 1477   7.898   7.586   0.706 -0.4669 -0.3080  0.2296
    4CHTO   C57 1478   7.854   7.370   0.572  0.6324 -0.0198  0.1325
    4CHTO  H114 1479   7.751   7.353   0.601 -0.3893  2.0631 -2.0505
    4CHTO   N10 1480   7.951   7.337   0.683 -0.2189 -0.3737  0.4922
    4CHTO  H106 1481   7.907   7.253   0.735  0.9243 -0.0211  2.0729
    4CHTO  H107 1482   8.052   7.315   0.651 -0.8957 -0.0254 -1.9790
    4CHTO   C58 1483   7.881   7.290   0.448 -0.7150  0.3126 -0.6365
    4CHTO  H115 1484   7.986   7.301   0.415 -0.2125 -1.9370  0.1446
    4CHTO   O37 1485   7.793   7.327   0.345 -0.1005 -0.5377  0.3474
    4CHTO   C59 1486   7.802   7.460   0.293 -0.4233 -0.6748  0.4085
    4CHTO  H116 1487   7.904   7.477   0.259 -0.5354 -1.2872 -0.2282
    4CHTO   C70 1488   7.704   7.471   0.175  0.7274  0.2360  0.1630
    4CHTO   O46 1489   7.745   7.393   0.062  0.0228  0.2632  0.4820
    4CHTO  H103 1490   7.702   7.439  -0.008  1.9925  0.0964 -0.8668
    4CHTO   O39 1491   7.839   7.131   0.488 -0.3002  0.1316 -0.2633
    4CHTO   C60 1492   7.715   7.071   0.444  0.1771  0.2149  0.7494
    4CHTO  H117 1493   7.638   7.149   0.442 -0.9311 -0.7898  2.4379
    4CHTO   C62 1494   7.726   7.012   0.303  0.0201 -0.8673  0.1982
    4CHTO  H119 1495   7.752   7.102   0.242 -2.1492  0.2870  0.9314
    4CHTO   O43 1496   7.822   6.914   0.297 -0.3862 -0.0720  0.3095
    4CHTO  H101 1497   7.825   6.897   0.205  1.2466 -1.4412  0.6009
    4CHTO   C66 1498   7.580   6.967   0.248  0.3986  0.2874 -1.1777
    4CHTO  H123 1499   7.511   7.050   0.263 -0.6056 -0.2547 -2.6196
    4CHTO   N12 1500   7.587   6.939   0.104  0.2581  0.2184  0.1725
    4CHTO  H110 1501   7.579   7.037   0.057 -1.7221  0.4700  0.9686
    4CHTO  H111 1502   7.672   6.878   0.079  1.3087  1.4390  0.6550
    4CHTO   C69 1503   7.518   6.853   0.341  0.1102  0.1869 -0.3085
    4CHTO  H126 1504   7.586   6.766   0.333  0.6101  0.2492  2.7599
    4CHTO   O41 1505   7.536   6.900   0.494  0.3698 -0.3229  0.2838
    4CHTO   C64 1506   7.674   6.976   0.543  0.3173 -0.1130  0.8105
    4CHTO  H121 1507   7.755   6.900   0.552  1.2225  0.6028 -0.9029
    4CHTO   C71 1508   7.654   7.046   0.681 -0.6355  0.0759 -0.0354
    4CHTO   O47 1509   7.776   7.082   0.753 -0.1091  0.0382  0.2203
    4CHTO  H104 1510   7.772   7.043   0.838  0.6255 -0.6292 -0.0401
    4CHTO   O34 1511   7.378   6.807   0.312  0.4121 -0.3114 -0.2332
    4CHTO   C49 1512   7.300   6.684   0.279 -0.1908 -0.4236 -0.0037
    4CHTO   H91 1513   7.375   6.604   0.278  0.7645  0.4652  0.0619
    4CHTO   C47 1514   7.216   6.689   0.150 -0.6525  0.2698  0.3658
    4CHTO   H89 1515   7.291   6.663   0.072 -0.7901 -0.7766  0.5738
    4CHTO   O33 1516   7.157   6.809   0.117  0.8713  0.1123 -0.2462
    4CHTO   H70 1517   7.122   6.807   0.031 -3.0487 -0.2417  1.2525
    4CHTO   C45 1518   7.111   6.571   0.150 -0.3320  0.2674 -0.6559
    4CHTO   H87 1519   7.018   6.615   0.190 -0.9719 -0.1513 -1.6537
    4CHTO    N8 1520   7.085   6.530   0.011  0.6468 -0.6820  0.2090
    4CHTO   H75 1521   6.987   6.569  -0.013  0.8854 -0.0503  0.2376
    4CHTO   H76 1522   7.082   6.422   0.010 -3.0508 -0.6368 -0.8984
    4CHTO   C43 1523   7.129   6.456   0.265  0.0411  0.1372 -0.7738
    4CHTO   H85 1524   7.043   6.390   0.253 -0.8699  1.3299 -0.9099
    4CHTO   O29 1525   7.133   6.524   0.394  0.0884  0.5522  0.6965
    4CHTO   C50 1526   7.203   6.654   0.399 -0.2837 -0.0025 -0.5204
    4CHTO   H92 1527   7.127   6.734   0.408 -1.2570 -1.2874  4.3733
    4CHTO   C54 1528   7.267   6.671   0.535 -0.0470  0.1749  0.8620
    4CHTO   O36 1529   7.358   6.573   0.559 -0.4108  0.2575  0.4973
    4CHTO   H72 1530   7.378   6.572   0.650 -0.5914 -1.1599  0.5335
    4CHTO   O27 1531   7.248   6.383   0.251 -0.0604 -0.5736 -0.4811
    4CHTO   C37 1532   7.333   6.276   0.222 -0.3811  0.3426 -0.3889
    4CHTO   H79 1533   7.293   6.190   0.167  0.4420 -0.0387 -0.3987
    4CHTO   C38 1534   7.446   6.326   0.126 -0.0358  0.1696  0.8554
    4CHTO   H80 1535   7.477   6.427   0.159 -0.8300  1.0536 -1.0437
    4CHTO   O31 1536   7.392   6.351  -0.006 -0.5289  0.3498 -0.9111
    4CHTO   H68 1537   7.323   6.414  -0.008 -1.5982 -0.8124 -1.2247
    4CHTO   C39 1538   7.566   6.232   0.111 -0.2782  0.1087 -1.0939
    4CHTO   H81 1539   7.529   6.145   0.057 -0.2002  0.4661 -1.7330
    4CHTO    N7 1540   7.693   6.294   0.048 -0.6689  0.1042  0.2680
    4CHTO   H73 1541   7.720   6.383   0.103 -1.4502  1.2235 -1.1184
    4CHTO   H74 1542   7.675   6.322  -0.055  2.6486 -0.0598 -0.3914
    4CHTO   C40 1543   7.604   6.165   0.247 -0.7947  0.2567  0.5806
    4CHTO   H82 1544   7.670   6.231   0.304 -0.7629 -0.2521  1.1364
    4CHTO   O26 1545   7.488   6.127   0.323 -0.4766 -0.0040 -0.1350
    4CHTO   C41 1546   7.397   6.230   0.355  0.5372 -0.1096  0.5894
    4CHTO   H83 1547   7.452   6.318   0.391  1.7122 -0.3499 -0.5820
    4CHTO   C52 1548   7.296   6.182   0.461  0.0127 -0.0435 -0.3832
    4CHTO   O35 1549   7.369   6.193   0.589 -0.2434  0.6366  0.2503
    4CHTO   H71 1550   7.368   6.280   0.626 -0.1140 -0.3271  2.6346
    4CHTO   O28 1551   7.678   6.041   0.224 -0.3932  0.4733  0.0535
    4CHTO   C42 1552   7.792   5.996   0.301 -0.7700  0.2488 -0.4548
    4CHTO   H84 1553   7.861   6.076   0.325  1.9973 -2.1505 -0.1279
    4CHTO   C44 1554   7.864   5.893   0.213 -0.2076 -0.9434  0.1051
    4CHTO   H86 1555   7.799   5.808   0.194 -0.7664 -0.6336  0.5907
    4CHTO   O32 1556   7.899   5.960   0.091  0.0824 -0.5797  0.1028
    4CHTO   H69 1557   7.960   5.906   0.044 -0.8114 -2.7088  1.3064
    4CHTO   C48 1558   8.002   5.843   0.277  0.1391  0.3120  0.1730
    4CHTO   H90 1559   8.068   5.926   0.301  2.4489 -1.8139  1.2769
    4CHTO    N9 1560   8.089   5.764   0.180 -0.8895 -0.3855  0.5877
    4CHTO   H77 1561   8.179   5.732   0.231 -0.4484  0.1016  0.1055
    4CHTO   H78 1562   8.037   5.683   0.132 -0.0212 -0.7766  0.3044
    4CHTO   C51 1563   7.962   5.763   0.408  0.2810  0.5409 -0.4929
    4CHTO   H93 1564   7.888   5.686   0.386 -2.8180  3.4594 -0.5437
    4CHTO   O30 1565   7.906   5.871   0.487  0.4284 -0.2296 -0.2348
    4CHTO   C46 1566   7.767   5.915   0.432  0.1104  0.1187 -0.2127
    4CHTO   H88 1567   7.711   5.825   0.409  0.1874  0.2442 -0.9146
    4CHTO   C53 1568   7.697   6.010   0.535 -0.0839 -0.7727  0.5691
    4CHTO   O72 1569   7.669   5.952   0.667 -0.3053 -0.2225  0.0918
    4CHTO  H199 1570   7.744   5.955   0.723 -0.9293  0.4418  0.9039
    4CHTO   O22 1571   8.072   5.721   0.492 -0.6132 -0.0189 -0.0895
    4CHTO   C31 1572   8.048   5.686   0.637  0.0262 -0.2530  0.4313
    4CHTO   H59 1573   7.948   5.726   0.665  0.0301  1.4541 -1.7709
    4CHTO   C29 1574   8.039   5.535   0.662 -0.4483 -0.0017 -0.6108
    4CHTO   H57 1575   8.138   5.489   0.651 -0.9493 -0.5753 -3.1337
    4CHTO   O21 1576   7.965   5.465   0.556 -0.3656 -0.0964  0.3544
    4CHTO   H37 1577   8.001   5.491   0.474  1.1847 -0.3255  0.9533
    4CHTO   C27 1578   7.972   5.502   0.804  0.1037  0.4692 -0.0530
    4CHTO   H55 1579   7.867   5.534   0.796 -0.3920 -1.3337 -1.1177
    4CHTO    N5 1580   7.973   5.358   0.840  0.0786  0.4798  0.5585
    4CHTO   H43 1581   7.985   5.303   0.748  0.2369 -0.1928  0.9752
    4CHTO   H44 1582   7.896   5.324   0.909  0.2614 -1.7056 -0.2561
    4CHTO   C25 1583   8.048   5.588   0.911 -0.2803  0.2161  0.7350
    4CHTO   H53 1584   8.131   5.534   0.959  1.5595  1.0703 -1.3765
    4CHTO   O17 1585   8.088   5.722   0.871 -0.3709  0.3080 -0.9519
    4CHTO   C32 1586   8.148   5.744   0.743  0.5659  1.0211  0.1548
    4CHTO   H60 1587   8.244   5.694   0.735  1.8055  3.4845 -1.0809
    4CHTO   C36 1588   8.185   5.889   0.734 -0.5737  0.3513 -0.4353
    4CHTO   O25 1589   8.075   5.980   0.745 -0.2735 -0.2436  0.0427
    4CHTO   H40 1590   8.082   6.045   0.813  0.3223 -0.9656  0.6825
    4CHTO   O15 1591   7.958   5.609   1.024 -0.4347 -0.5569  0.2672
    4CHTO   C19 1592   7.946   5.690   1.146 -0.0863 -0.3308  1.3306
    4CHTO   H47 1593   7.852   5.656   1.193 -1.7541  2.2050 -0.0546
    4CHTO   C20 1594   8.057   5.662   1.240  0.0719 -0.1294 -0.7570
    4CHTO   H48 1595   8.155   5.688   1.198 -0.1476  2.4081  0.2263
    4CHTO   O19 1596   8.065   5.517   1.263  0.0602 -0.2259 -0.5734
    4CHTO   H35 1597   8.136   5.477   1.309 -0.9028 -1.7741 -0.4050
    4CHTO   C21 1598   8.037   5.743   1.373  0.3141  0.2309 -0.1348
    4CHTO   H49 1599   7.958   5.697   1.431 -0.9598  3.2352  0.5997
    4CHTO    N4 1600   8.146   5.723   1.469  0.2374 -0.6618  0.5131
    4CHTO   H41 1601   8.114   5.781   1.554  0.8897  0.5148 -0.0293
    4CHTO   H42 1602   8.163   5.621   1.500  0.0239 -0.7122  0.4630
    4CHTO   C22 1603   8.008   5.889   1.338 -0.3003 -0.0734 -0.7273
    4CHTO   H50 1604   8.097   5.939   1.299 -0.7331 -0.2438 -1.9464
    4CHTO   O14 1605   7.904   5.898   1.239 -0.5758 -0.1622 -0.0331
    4CHTO   C23 1606   7.930   5.839   1.115 -0.1736  0.0940 -0.0202
    4CHTO   H51 1607   8.019   5.885   1.071  0.8011  0.9632  2.7232
    4CHTO   C34 1608   7.812   5.878   1.019  0.1462  0.8720  0.3273
    4CHTO   O23 1609   7.838   5.846   0.880 -0.2521 -0.2292  0.3186
    4CHTO   H38 1610   7.758   5.850   0.832  0.1806  1.4797 -0.2704
    4CHTO   O16 1611   7.964   5.967   1.452  0.1959  0.1764 -0.3034
    4CHTO   C24 1612   7.959   6.129   1.413  0.1580 -1.0029  0.0608
    4CHTO   H52 1613   7.953   6.145   1.305 -2.2470 -0.3182  0.2689
    4CHTO   C26 1614   8.083   6.195   1.469 -0.2291  0.4292 -0.1634
    4CHTO   H54 1615   8.102   6.157   1.572 -0.0431  0.2649 -0.2584
    4CHTO   O20 1616   8.205   6.152   1.403  0.3358 -0.5957 -0.6421
    4CHTO   H36 1617   8.270   6.124   1.464  1.5841 -2.6672 -2.8241
    4CHTO   C30 1618   8.079   6.355   1.469 -0.4167 -0.2714 -0.4992
    4CHTO   H58 1619   8.106   6.391   1.369  0.5253 -0.7605 -0.4250
    4CHTO    N6 1620   8.171   6.413   1.569 -0.3642 -0.2553 -0.4859
    4CHTO   H45 1621   8.215   6.340   1.636  0.0992  0.2785 -0.2065
    4CHTO   H46 1622   8.115   6.481   1.631  2.1262 -1.2218  2.9931
    4CHTO   C33 1623   7.932   6.413   1.496  0.0870  0.1121 -0.1140
    4CHTO   H61 1624   7.914   6.417   1.604 -1.0164  1.5995 -0.3430
    4CHTO   O18 1625   7.831   6.333   1.435 -0.3491  0.3201 -0.3442
    4CHTO   C28 1626   7.830   6.195   1.476  0.0359  0.1268  0.8752
    4CHTO   H56 1627   7.844   6.199   1.584 -1.3164  1.8177  1.0128
    4CHTO   C35 1628   7.700   6.111   1.441 -1.3005 -0.5022  0.9712
    4CHTO   O24 1629   7.583   6.188   1.476 -0.3822  0.4220 -1.0429
    4CHTO   H39 1630   7.511   6.136   1.507  1.0267  0.4334  2.4635
    4CHTO    O9 1631   7.927   6.554   1.454  0.3349  0.1955 -0.2421
    4CHTO   C13 1632   7.784   6.631   1.498 -1.0697  0.3866  0.0912
    4CHTO   H26 1633   7.702   6.557   1.500 -0.4775 -0.3091 -1.1632
    4CHTO   C11 1634   7.772   6.741   1.382 -0.2143  0.0540 -0.1536
    4CHTO   H24 1635   7.744   6.691   1.288 -1.0415  1.8450 -0.8819
    4CHTO    O8 1636   7.894   6.811   1.349  0.2608  0.0529  0.7141
    4CHTO    H3 1637   7.943   6.770   1.280 -0.7813  0.9379 -0.5741
    4CHTO    C9 1638   7.647   6.827   1.410 -0.0403  0.5074 -0.1848
    4CHTO   H22 1639   7.564   6.755   1.420  1.0915 -0.7893 -0.0868
    4CHTO    N2 1640   7.607   6.915   1.298  0.0332  0.5473 -0.0128
    4CHTO   H10 1641   7.514   6.874   1.261  1.1874 -0.2096 -2.1715
    4CHTO   H11 1642   7.592   7.018   1.328  4.6424  1.1719  0.4376
    4CHTO    C7 1643   7.671   6.896   1.542 -0.2092 -0.7966 -0.5162
    4CHTO   H20 1644   7.569   6.938   1.561  0.8865  1.4519  0.5651
    4CHTO    O4 1645   7.701   6.805   1.652 -0.4207 -0.4814 -0.1519
    4CHTO   C14 1646   7.800   6.700   1.634 -0.0009 -0.3916  0.5057
    4CHTO   H27 1647   7.783   6.614   1.703 -0.8598 -1.6253 -1.1957
    4CHTO   C18 1648   7.943   6.748   1.669 -0.2486 -0.4866  0.3657
    4CHTO   O13 1649   7.952   6.773   1.812  0.2271  0.7362 -0.2853
    4CHTO    H7 1650   7.892   6.842   1.832 -0.5746  0.3820 -1.3892
    4CHTO    O2 1651   7.784   7.021   1.540 -0.5720 -0.3133 -0.4631
    4CHTO    C1 1652   7.728   7.155   1.569 -0.5582 -0.0530  0.4838
    4CHTO   H14 1653   7.619   7.149   1.549 -0.4370 -0.2016 -0.1438
    4CHTO    C2 1654   7.793   7.274   1.476  0.2324  0.0487 -0.2408
    4CHTO   H15 1655   7.902   7.272   1.482  0.1359 -1.5812  1.4675
    4CHTO    O6 1656   7.756   7.248   1.335  0.1053  0.3972 -0.4247
    4CHTO    H1 1657   7.664   7.247   1.313 -0.0137 -0.1715  0.0835
    4CHTO    C3 1658   7.745   7.419   1.523 -0.0654 -0.1168 -0.3371
    4CHTO   H16 1659   7.640   7.438   1.498  0.2294  0.2469 -1.3380
    4CHTO    N1 1660   7.823   7.528   1.456 -0.0819 -0.2737  0.0555
    4CHTO    H8 1661   7.924   7.499   1.483  0.0619 -2.2022 -2.3547
    4CHTO    H9 1662   7.799   7.629   1.485 -2.4112 -0.5172 -0.9544
    4CHTO    C4 1663   7.751   7.438   1.679  0.3256 -0.0971  0.1824
    4CHTO   H17 1664   7.855   7.440   1.711  0.7454 -1.7417 -1.0254
    4CHTO    O1 1665   7.688   7.325   1.736 -0.0493 -0.1152 -0.0150
    4CHTO    C5 1666   7.752   7.195   1.714 -0.0030 -0.1913  0.6013
    4CHTO   H18 1667   7.858   7.198   1.739  0.0269  1.0294  0.3837
    4CHTO   C16 1668   7.685   7.099   1.812  0.6096 -0.0841 -0.5536
    4CHTO   O11 1669   7.693   7.144   1.950  0.5238 -0.5718  0.5244
    4CHTO    H5 1670   7.645   7.224   1.962 -1.4911 -1.9883  2.1357
    4CHTO    O3 1671   7.674   7.545   1.731  0.2143  0.0302  0.3923
    4CHTO    C6 1672   7.744   7.650   1.810 -0.3579  0.3616 -0.0919
    4CHTO   H19 1673   7.853   7.637   1.811 -0.5668 -1.9454 -2.1601
    4CHTO    C8 1674   7.697   7.790   1.758 -0.2719  0.2389 -0.2116
    4CHTO   H21 1675   7.588   7.791   1.750 -0.4406  1.4491  1.8895
    4CHTO    O7 1676   7.744   7.796   1.622  0.0557 -0.5232  0.4105
    4CHTO    H2 1677   7.668   7.816   1.570  0.2900 -0.8684 -0.0612
    4CHTO   C12 1678   7.749   7.904   1.852  0.5138  0.1133  0.1184
    4CHTO   H25 1679   7.859   7.897   1.862  0.5063  1.6347  1.5019
    4CHTO    N3 1680   7.720   8.039   1.795  0.3730 -0.6480  0.0846
    4CHTO   H12 1681   7.620   8.081   1.797  0.7878  0.3851 -0.1753
    4CHTO   H13 1682   7.797   8.115   1.803  0.5268 -0.7529 -0.4024
    4CHTO   C15 1683   7.689   7.880   1.990  0.2194 -0.1487  0.7034
    4CHTO   H28 1684   7.583   7.902   2.007  0.1638 -0.0651  0.2562
    4CHTO   O10 1685   7.765   7.981   2.109 -0.8626 -0.1222 -0.0397
    4CHTO    H4 1686   7.847   8.012   2.078  0.5885 -1.0908  2.6272
    4CHTO    O5 1687   7.727   7.746   2.039 -0.0089  0.5611 -0.0184
    4CHTO   C10 1688   7.696   7.632   1.957 -0.7531 -0.4336  0.5719
    4CHTO   H23 1689   7.587   7.626   1.956 -0.6965 -2.0544  2.3486
    4CHTO   C17 1690   7.750   7.506   2.026 -0.1216 -0.1575 -0.2904
    4CHTO   O12 1691   7.888   7.498   2.048  0.1020  0.2712 -0.2377
    4CHTO    H6 1692   7.925   7.445   1.980 -1.2875  0.2946 -1.0335
    5CHTO  H203 1693   8.023   3.726   0.584  0.0007  0.8868 -2.9629
    5CHTO   O82 1694   8.089   3.660   0.585 -0.3801  0.4861 -0.0465
    5CHTO  C123 1695   8.090   3.590   0.711 -0.3693 -0.4097  0.3431
    5CHTO  H227 1696   7.998   3.531   0.723 -0.3757 -0.2962  0.8591
    5CHTO   O77 1697   8.198   3.493   0.689  0.5350  0.1011  0.0807
    5CHTO  C118 1698   8.213   3.395   0.790  0.6801  0.7264  0.0296
    5CHTO  H222 1699   8.122   3.336   0.806  1.9309 -1.2007  0.1629
    5CHTO  C125 1700   8.310   3.297   0.719 -0.7714 -0.4815  0.1270
    5CHTO   O84 1701   8.435   3.377   0.695 -0.4456 -0.1551  0.6399
    5CHTO  H205 1702   8.454   3.423   0.774 -0.7314 -0.1021  0.6788
    5CHTO  C114 1703   8.263   3.462   0.918  0.1632 -1.3006  0.2144
    5CHTO  H218 1704   8.362   3.503   0.896 -0.4121 -1.3739 -2.6379
    5CHTO  C116 1705   8.168   3.582   0.954  0.2478  0.6802 -0.7496
    5CHTO  H220 1706   8.077   3.532   0.994  1.5016 -0.0277  1.2603
    5CHTO   O79 1707   8.211   3.666   1.065  0.4715 -0.2590 -0.6660
    5CHTO  H201 1708   8.231   3.609   1.137  1.8226 -2.3632 -2.6220
    5CHTO  C120 1709   8.132   3.673   0.834  0.3400 -0.4581 -0.1872
    5CHTO  H224 1710   8.222   3.731   0.804  0.4434  0.2399  1.4528
    5CHTO   N21 1711   8.025   3.772   0.871 -0.8575 -0.4042  0.1656
    5CHTO  H211 1712   7.932   3.721   0.852 -3.0253  3.3419  0.1934
    5CHTO  H212 1713   8.028   3.865   0.815  0.7362 -0.8400 -0.4768
    5CHTO   O75 1714   8.283   3.354   1.012  0.2979  0.4400  0.1701
    5CHTO  C112 1715   8.147   3.316   1.117  0.4870 -0.5261  0.4350
    5CHTO  H216 1716   8.054   3.317   1.057  0.0786 -1.3017  1.0423
    5CHTO   O73 1717   8.142   3.421   1.221 -0.5325  0.6143 -0.2009
    5CHTO  C113 1718   8.023   3.399   1.304  0.6554  0.0514 -0.5578
    5CHTO  H217 1719   7.941   3.378   1.233  1.4996 -0.9555 -1.2496
    5CHTO  C124 1720   7.996   3.530   1.388 -0.8733 -0.3364  1.1111
    5CHTO   O83 1721   7.953   3.635   1.300  0.0193  0.2665  0.9381
    5CHTO  H204 1722   7.862   3.629   1.278  0.5414 -1.9805 -0.7453
    5CHTO  C109 1723   8.037   3.265   1.397 -0.7829 -0.2210  0.2237
    5CHTO  H213 1724   8.123   3.282   1.463 -0.1351 -0.7941 -0.4734
    5CHTO  C110 1725   8.073   3.140   1.306 -1.0165 -0.2183  0.1554
    5CHTO  H214 1726   7.979   3.092   1.276 -0.8924 -0.9823  0.9485
    5CHTO   O78 1727   8.133   3.042   1.393 -0.0363  0.0193 -0.0046
    5CHTO  H200 1728   8.221   3.065   1.416 -0.0671  2.9568 -2.4374
    5CHTO  C111 1729   8.169   3.174   1.181 -0.2372  1.0749 -0.5047
    5CHTO  H215 1730   8.271   3.173   1.222 -1.0392 -1.0461  1.5688
    5CHTO   N19 1731   8.162   3.068   1.081  0.4509  0.1233  0.0846
    5CHTO  H207 1732   8.210   2.982   1.127  2.1184  2.3847  2.7269
    5CHTO  H208 1733   8.064   3.026   1.065  0.0403  0.6442  1.1545
    5CHTO   O74 1734   7.913   3.252   1.479 -0.1693 -0.6196 -0.5174
    5CHTO  C115 1735   7.924   3.202   1.629 -0.1810  0.3797  0.5589
    5CHTO  H219 1736   8.018   3.148   1.642  1.1635  2.8526  1.4578
    5CHTO   O76 1737   7.934   3.309   1.724  0.6045 -0.2329 -0.2105
    5CHTO  C122 1738   7.828   3.400   1.710 -0.0608 -0.6642 -0.1988
    5CHTO  H226 1739   7.835   3.447   1.612  0.8570  1.4174  0.8355
    5CHTO  C126 1740   7.853   3.518   1.805 -0.1504 -0.8565  0.5088
    5CHTO   O85 1741   7.972   3.595   1.775 -0.4272  0.2199 -0.6666
    5CHTO  H206 1742   7.970   3.632   1.689 -4.2107  0.2618 -0.6393
    5CHTO  C121 1743   7.679   3.332   1.720 -0.6370  1.1040  0.3209
    5CHTO  H225 1744   7.612   3.380   1.794 -1.3489 -1.6583  1.5519
    5CHTO   O81 1745   7.600   3.348   1.605 -0.9214  0.2063  0.4230
    5CHTO  H202 1746   7.574   3.438   1.598 -2.0916 -0.1930 -0.5674
    5CHTO  C119 1747   7.697   3.182   1.762 -0.3968  0.1726 -0.3188
    5CHTO  H223 1748   7.749   3.190   1.858 -1.1292 -2.4140  0.3425
    5CHTO  C117 1749   7.800   3.111   1.662  0.6236  0.6835 -0.1284
    5CHTO  H221 1750   7.764   3.088   1.562 -2.7359 -1.3025  1.4600
    5CHTO   N20 1751   7.836   2.970   1.725  0.2276  0.2942  0.4434
    5CHTO  H209 1752   7.750   2.925   1.771 -1.1774  0.6891 -1.7192
    5CHTO  H210 1753   7.886   2.897   1.662 -0.6500 -0.8770  1.1095
    5CHTO   O80 1754   7.557   3.103   1.815  0.8805  0.1972  0.0515
    5CHTO  C103 1755   7.427   3.081   1.712 -0.2911 -0.2315 -0.2907
    5CHTO  H190 1756   7.432   3.161   1.639  0.4738  0.6088  0.6827
    5CHTO  C101 1757   7.425   2.952   1.631  0.3573 -0.3386  0.3869
    5CHTO  H188 1758   7.442   2.865   1.695 -2.0873  0.2165  1.8241
    5CHTO   O68 1759   7.533   2.943   1.529  0.1775 -0.1432  0.2398
    5CHTO  H168 1760   7.554   2.852   1.524 -0.8804 -0.3838 -0.0418
    5CHTO   C99 1761   7.284   2.927   1.554  1.0434  0.1539  0.0128
    5CHTO  H186 1762   7.290   3.007   1.478  0.2957 -1.2560 -1.5626
    5CHTO   N17 1763   7.268   2.794   1.477  0.3839  0.0676  0.4081
    5CHTO  H174 1764   7.257   2.711   1.545  2.6857 -0.7489 -0.1720
    5CHTO  H175 1765   7.174   2.811   1.426  1.9926 -0.2116 -2.7828
    5CHTO   C97 1766   7.168   2.959   1.654 -0.3435 -0.3794  0.7004
    5CHTO  H184 1767   7.173   2.880   1.731  1.4372  0.1020  1.1019
    5CHTO   O64 1768   7.188   3.086   1.707  0.3723 -0.2378  0.2706
    5CHTO  C104 1769   7.301   3.107   1.792  0.5973 -0.1718  0.0317
    5CHTO  H191 1770   7.302   3.037   1.875 -1.2770 -0.6979 -0.3638
    5CHTO  C108 1771   7.287   3.249   1.846 -0.1232  0.2141 -0.5066
    5CHTO   O71 1772   7.398   3.287   1.936  0.4149  0.3174  0.6951
    5CHTO  H171 1773   7.368   3.312   2.022  1.7308 -0.7400  1.4791
    5CHTO   O62 1774   7.039   2.968   1.584 -0.6951  0.0885  0.3330
    5CHTO   C91 1775   6.917   2.935   1.658  0.3386  0.1770  0.0972
    5CHTO  H178 1776   6.941   2.946   1.764  0.2448  2.0434 -0.0456
    5CHTO   C92 1777   6.872   2.787   1.634 -0.4641 -0.3740  0.0920
    5CHTO  H179 1778   6.887   2.766   1.527  2.5226 -1.5602  0.6872
    5CHTO   O66 1779   6.971   2.704   1.694  0.1113  0.4961  0.3339
    5CHTO  H166 1780   6.930   2.628   1.731 -0.9054 -0.0297 -1.7848
    5CHTO   C93 1781   6.727   2.759   1.690 -0.3391 -0.0918  0.2712
    5CHTO  H180 1782   6.737   2.773   1.799 -0.6763 -1.6405  0.5211
    5CHTO   N16 1783   6.679   2.622   1.675 -0.5846  0.6644 -0.2907
    5CHTO  H172 1784   6.594   2.602   1.739 -0.9634 -0.7884 -1.2469
    5CHTO  H173 1785   6.760   2.557   1.704 -0.5754  1.1800  0.8719
    5CHTO   C94 1786   6.627   2.872   1.633 -0.2954 -0.1527 -0.4967
    5CHTO  H181 1787   6.626   2.872   1.524 -2.2834 -1.1666 -0.5099
    5CHTO   O61 1788   6.665   3.002   1.679 -0.3680  0.1206 -0.2631
    5CHTO   C95 1789   6.795   3.038   1.628 -0.1285 -0.5871 -0.0282
    5CHTO  H182 1790   6.780   3.048   1.521  1.2097  2.7730  0.0399
    5CHTO  C106 1791   6.831   3.178   1.677 -0.2189  0.1163  0.0240
    5CHTO   O69 1792   6.729   3.269   1.636 -0.3541  0.1420 -0.1233
    5CHTO  H169 1793   6.765   3.354   1.654  1.2937 -0.3843 -0.8085
    5CHTO   O63 1794   6.485   2.853   1.693 -0.9085  0.1556 -0.4415
    5CHTO   C96 1795   6.362   2.872   1.579 -0.7862 -0.3490 -0.1946
    5CHTO  H183 1796   6.400   2.826   1.488  0.2153 -1.3400  0.7060
    5CHTO   C98 1797   6.308   3.005   1.558 -0.0458  0.7419  0.0533
    5CHTO  H185 1798   6.254   3.037   1.648  1.2289  1.4667  0.5828
    5CHTO   O67 1799   6.409   3.110   1.540 -0.3226  0.5559 -0.6070
    5CHTO  H167 1800   6.369   3.185   1.502  1.3154  1.7800  0.0585
    5CHTO  C102 1801   6.203   3.002   1.441  0.4650  0.7645  0.0548
    5CHTO  H189 1802   6.261   2.990   1.347  0.0373  1.6402 -0.3239
    5CHTO   N18 1803   6.127   3.130   1.436  0.5966 -0.1260  0.2059
    5CHTO  H176 1804   6.189   3.198   1.380 -0.0810  0.3922  0.0788
    5CHTO  H177 1805   6.121   3.171   1.536  0.4882 -1.8896  0.9562
    5CHTO  C105 1806   6.100   2.882   1.454  0.2850 -0.4478  0.4787
    5CHTO  H192 1807   6.014   2.911   1.514  0.9559 -0.4763  1.4780
    5CHTO   O65 1808   6.156   2.763   1.517 -0.5085 -0.9972 -0.5429
    5CHTO  C100 1809   6.239   2.782   1.633  0.5883  0.5074  0.1144
    5CHTO  H187 1810   6.190   2.825   1.721  0.0077 -0.5085  0.2983
    5CHTO  C107 1811   6.268   2.632   1.684 -0.9129  0.1571 -0.4043
    5CHTO   O70 1812   6.358   2.637   1.802  0.1259  0.5655 -0.3946
    5CHTO  H170 1813   6.396   2.552   1.811 -2.5446 -0.9025 -2.0888
    5CHTO   O57 1814   6.050   2.846   1.313  0.6335 -0.4756  1.1397
    5CHTO   C85 1815   5.927   2.777   1.287 -0.9803 -0.3899  0.0217
    5CHTO  H157 1816   5.844   2.836   1.331 -0.3089  0.8527 -0.3594
    5CHTO   C83 1817   5.919   2.637   1.364 -0.5454  0.2111 -0.1529
    5CHTO  H155 1818   5.917   2.658   1.471 -0.3700  1.6368 -0.4145
    5CHTO   O56 1819   6.032   2.552   1.341 -0.6962  0.2924  0.2517
    5CHTO  H135 1820   6.022   2.467   1.379 -1.9539  0.5755  0.5705
    5CHTO   C81 1821   5.782   2.568   1.326  1.0310 -0.3971 -0.4503
    5CHTO  H153 1822   5.702   2.638   1.347  1.2830  0.1206 -1.1929
    5CHTO   N14 1823   5.758   2.444   1.409 -0.5226  0.2492  0.0017
    5CHTO  H141 1824   5.741   2.353   1.355 -0.8611 -0.2067  0.8760
    5CHTO  H142 1825   5.682   2.455   1.483  1.5978 -2.1005  2.6553
    5CHTO   C79 1826   5.790   2.538   1.167  0.1197 -0.1950  0.0952
    5CHTO  H151 1827   5.698   2.488   1.136 -0.6249  1.6506 -0.7655
    5CHTO   O52 1828   5.785   2.664   1.097  0.4625  0.0189 -0.4928
    5CHTO   C86 1829   5.901   2.748   1.128 -0.3319 -0.4824 -0.0506
    5CHTO  H158 1830   5.989   2.697   1.083 -1.2564 -2.8280  0.6971
    5CHTO   C90 1831   5.890   2.891   1.068 -0.5843  0.1444 -0.3226
    5CHTO   O60 1832   5.883   2.901   0.927 -0.6158 -0.0245 -0.2316
    5CHTO  H138 1833   5.837   2.825   0.898  1.5922 -1.0590 -1.1367
    5CHTO   O50 1834   5.896   2.449   1.124 -0.0923 -0.2810 -0.3357
    5CHTO   C73 1835   5.921   2.353   1.019 -0.3160  0.5912  0.7367
    5CHTO  H145 1836   5.871   2.385   0.927  3.6941  0.4294 -1.6061
    5CHTO   C74 1837   5.871   2.218   1.075 -0.6398 -0.1065 -0.5101
    5CHTO  H146 1838   5.768   2.234   1.108 -0.1704 -0.5654  1.2668
    5CHTO   O54 1839   5.863   2.108   0.980  0.7355  0.4763 -0.3502
    5CHTO  H133 1840   5.837   2.127   0.892  2.1965  1.7329 -0.5323
    5CHTO   C75 1841   5.961   2.168   1.199  0.2986 -0.5873  0.1214
    5CHTO  H147 1842   5.948   2.239   1.283  2.1179  2.3992 -2.0201
    5CHTO   N13 1843   5.929   2.034   1.256  0.2328  0.0598 -0.6938
    5CHTO  H139 1844   5.848   1.978   1.212  0.3878 -2.3505  1.9140
    5CHTO  H140 1845   6.012   1.966   1.274 -1.7400 -2.2669 -0.1659
    5CHTO   C76 1846   6.115   2.179   1.159 -0.3786 -0.6598 -0.1225
    5CHTO  H148 1847   6.140   2.096   1.093 -1.1603 -0.4357 -0.7172
    5CHTO   O49 1848   6.148   2.308   1.098  0.2132  0.5349 -0.3339
    5CHTO   C77 1849   6.073   2.346   0.985 -0.8626  0.0228 -0.1367
    5CHTO  H149 1850   6.087   2.286   0.895  0.6608 -0.1022  0.1751
    5CHTO   C88 1851   6.134   2.484   0.959 -0.0387 -0.6969  0.1694
    5CHTO   O58 1852   6.295   2.480   0.945  0.1537 -0.0305 -0.3480
    5CHTO  H136 1853   6.320   2.568   0.928 -2.4785  0.9819  0.7939
    5CHTO   O51 1854   6.209   2.182   1.289  0.4204 -0.1101 -0.1177
    5CHTO   C78 1855   6.362   2.191   1.254 -0.5547 -0.2146  0.6703
    5CHTO  H150 1856   6.373   2.240   1.155  2.7619 -1.3795  0.4139
    5CHTO   C80 1857   6.427   2.053   1.243  0.4108  0.7398  0.2416
    5CHTO  H152 1858   6.403   1.992   1.332  0.9164  1.3470  0.7947
    5CHTO   O55 1859   6.365   1.972   1.138 -0.1660  0.5936 -0.1149
    5CHTO  H134 1860   6.392   1.992   1.051 -1.6138  0.9473 -0.4959
    5CHTO   C84 1861   6.581   2.061   1.222  0.6868  0.2175  0.0104
    5CHTO  H156 1862   6.598   2.093   1.119  1.1064 -0.8883 -0.2774
    5CHTO   N15 1863   6.654   1.931   1.221  0.1962 -0.7604 -0.0601
    5CHTO  H143 1864   6.656   1.889   1.319  2.2387 -0.2928  0.1229
    5CHTO  H144 1865   6.756   1.942   1.191  0.6775 -1.8041  1.1556
    5CHTO   C87 1866   6.647   2.164   1.315  0.1687 -1.1791 -0.4854
    5CHTO  H159 1867   6.641   2.116   1.413 -1.6619 -0.8760 -0.4341
    5CHTO   O53 1868   6.570   2.293   1.325 -0.2234 -0.0741  0.6132
    5CHTO   C82 1869   6.432   2.282   1.358  0.2783 -0.2085 -0.2247
    5CHTO  H154 1870   6.412   2.249   1.460 -1.5482  0.5974 -0.3046
    5CHTO   C89 1871   6.371   2.424   1.346  0.2538  0.1096 -0.2902
    5CHTO   O59 1872   6.448   2.527   1.410  0.5167 -0.2989 -0.0617
    5CHTO  H137 1873   6.540   2.512   1.411  0.2750 -2.0699 -0.9426
    5CHTO   O45 1874   6.802   2.187   1.259 -0.2876 -0.3286 -0.2166
    5CHTO   C67 1875   6.898   2.217   1.360 -0.0436  0.2455 -0.0470
    5CHTO  H124 1876   6.851   2.214   1.458 -0.4695 -2.2086 -0.3048
    5CHTO   C65 1877   7.017   2.118   1.368  0.4585  0.8016 -0.0722
    5CHTO  H122 1878   7.017   2.063   1.274  1.9942  0.9744 -0.1918
    5CHTO   O44 1879   6.980   2.035   1.478  0.4632  0.2440 -0.9259
    5CHTO  H102 1880   7.051   1.977   1.500 -0.6250 -0.4946  0.6978
    5CHTO   C63 1881   7.161   2.175   1.378 -0.1819 -0.9167 -0.0759
    5CHTO  H120 1882   7.186   2.219   1.281  0.7503 -0.4324  0.3723
    5CHTO   N11 1883   7.273   2.074   1.400  0.2798  0.1004  0.3357
    5CHTO  H108 1884   7.247   1.992   1.335  0.0281 -0.8946  1.6743
    5CHTO  H109 1885   7.369   2.113   1.375  0.2032  1.4586  2.0919
    5CHTO   C61 1886   7.165   2.296   1.472  0.0914  0.9046  0.0519
    5CHTO  H118 1887   7.257   2.354   1.457 -0.9099  1.7122 -3.5395
    5CHTO   O40 1888   7.054   2.395   1.445  0.1269 -0.2782  0.2296
    5CHTO   C68 1889   6.956   2.364   1.344  0.1730 -0.4507 -0.1786
    5CHTO  H125 1890   7.008   2.370   1.247  1.2062  0.9728  0.4415
    5CHTO   C72 1891   6.839   2.463   1.345  0.1603  0.1507 -0.6671
    5CHTO   O48 1892   6.874   2.605   1.331 -0.4215  0.2047  0.0865
    5CHTO  H105 1893   6.952   2.618   1.382 -1.5383 -1.4641  2.2947
    5CHTO   O38 1894   7.145   2.253   1.608 -0.2042  0.0918 -0.0788
    5CHTO   C55 1895   7.121   2.361   1.703 -0.1528 -0.7391 -0.3190
    5CHTO  H112 1896   7.047   2.439   1.678  0.8144  0.5450  0.7514
    5CHTO   C56 1897   7.253   2.427   1.754 -0.3110  0.3371 -0.0897
    5CHTO  H113 1898   7.319   2.341   1.770  0.8283  1.4599  1.4002
    5CHTO   O42 1899   7.302   2.497   1.646 -0.4029 -1.0055 -0.4741
    5CHTO  H100 1900   7.381   2.458   1.612 -0.2078 -0.5095 -0.5883
    5CHTO   C57 1901   7.232   2.523   1.885  0.5359 -0.1397  0.2435
    5CHTO  H114 1902   7.180   2.608   1.841  0.3190  2.1163  4.5507
    5CHTO   N10 1903   7.363   2.575   1.941 -0.3284 -0.2527  0.1748
    5CHTO  H106 1904   7.397   2.511   2.021  0.0205 -1.0040 -0.5770
    5CHTO  H107 1905   7.363   2.681   1.966  0.5096 -0.0608 -0.6444
    5CHTO   C58 1906   7.142   2.445   1.985 -0.1318  0.0864  0.5359
    5CHTO  H115 1907   7.202   2.366   2.034  0.5046  0.5346  0.4767
    5CHTO   O37 1908   7.018   2.391   1.928  0.6492  0.1508 -0.4930
    5CHTO   C59 1909   7.042   2.293   1.827  0.1617 -0.4144 -0.3057
    5CHTO  H116 1910   7.094   2.205   1.866 -2.1663 -1.9828 -0.6577
    5CHTO   C70 1911   6.908   2.243   1.772 -0.0987 -0.4740  0.0669
    5CHTO   O46 1912   6.824   2.345   1.712 -0.1794  0.1416 -0.5507
    5CHTO  H103 1913   6.756   2.371   1.772 -0.4513 -0.8391 -0.4201
    5CHTO   O39 1914   7.092   2.554   2.102 -0.8028  0.0974 -0.2856
    5CHTO   C60 1915   6.982   2.640   2.058  0.3036 -0.0465 -0.9086
    5CHTO  H117 1916   6.968   2.626   1.951 -2.4180 -0.5961 -0.5312
    5CHTO   C62 1917   6.852   2.597   2.132  0.0387  0.5366 -0.4259
    5CHTO  H119 1918   6.839   2.491   2.103  0.3457 -0.1661  1.9065
    5CHTO   O43 1919   6.868   2.605   2.276  0.2442  0.7023  0.5089
    5CHTO  H101 1920   6.884   2.695   2.298  1.8866  0.7168 -0.6602
    5CHTO   C66 1921   6.732   2.688   2.069 -0.2328  0.2182  0.4124
    5CHTO  H123 1922   6.725   2.673   1.962 -0.2600 -0.1231  0.4600
    5CHTO   N12 1923   6.604   2.625   2.116  0.0372 -0.0779  0.5029
    5CHTO  H110 1924   6.616   2.518   2.120 -3.3077 -0.5655 -0.8099
    5CHTO  H111 1925   6.588   2.655   2.219 -0.6278  0.5823  0.2097
    5CHTO   C69 1926   6.753   2.835   2.104 -0.5276 -0.8943 -0.1326
    5CHTO  H126 1927   6.752   2.828   2.215  1.3892 -0.5946 -0.0893
    5CHTO   O41 1928   6.896   2.880   2.037  0.1901  0.2403 -0.0349
    5CHTO   C64 1929   7.009   2.788   2.082  0.1200 -0.1714 -0.4026
    5CHTO  H121 1930   7.031   2.808   2.189  1.1813  1.3695 -0.8835
    5CHTO   C71 1931   7.126   2.843   2.002 -0.2353  0.3427  0.2811
    5CHTO   O47 1932   7.155   2.978   2.037  0.0809 -0.3277 -0.4610
    5CHTO  H104 1933   7.233   3.011   1.997  0.0494  0.3247  0.0044
    5CHTO   O34 1934   6.644   2.927   2.056  0.1618 -0.1310 -0.3322
    5CHTO   C49 1935   6.613   3.089   2.024 -0.1110  0.7314  0.2881
    5CHTO   H91 1936   6.661   3.116   1.930 -0.2659 -0.7085 -0.2127
    5CHTO   C47 1937   6.679   3.170   2.144  0.0162 -0.3677 -0.8190
    5CHTO   H89 1938   6.680   3.277   2.114  1.6577  0.1605  0.9781
    5CHTO   O33 1939   6.813   3.126   2.171  0.2997 -0.7905  0.2018
    5CHTO   H70 1940   6.819   3.044   2.215  0.0055 -0.1561  1.4396
    5CHTO   C45 1941   6.594   3.159   2.274 -0.2015 -0.1184  0.5764
    5CHTO   H87 1942   6.588   3.052   2.301 -1.2226 -0.2182 -0.0164
    5CHTO    N8 1943   6.649   3.238   2.391 -0.6257 -0.2172 -0.1323
    5CHTO   H75 1944   6.731   3.190   2.442  0.3019 -0.0921 -1.4642
    5CHTO   H76 1945   6.674   3.337   2.356 -0.2010 -0.2845 -0.0251
    5CHTO   C43 1946   6.443   3.193   2.251 -0.1883 -0.3912  0.2291
    5CHTO   H85 1947   6.393   3.177   2.346  0.8816  0.0794  0.8911
    5CHTO   O29 1948   6.399   3.106   2.151  1.1346  0.3674 -0.2398
    5CHTO   C50 1949   6.461   3.108   2.025 -0.2484  0.2406  0.9997
    5CHTO   H92 1950   6.414   3.041   1.951 -1.2609  3.1912 -1.1367
    5CHTO   C54 1951   6.431   3.239   1.949  0.0759 -0.4677 -0.0833
    5CHTO   O36 1952   6.499   3.267   1.826  0.1147 -0.3372 -0.2065
    5CHTO   H72 1953   6.446   3.245   1.752  0.6013  0.5455 -0.8257
    5CHTO   O27 1954   6.410   3.337   2.226  0.1069 -0.8428 -0.4907
    5CHTO   C37 1955   6.322   3.444   2.275  0.3696 -0.0042  0.2773
    5CHTO   H79 1956   6.316   3.527   2.204 -2.6613 -1.8279 -1.6968
    5CHTO   C38 1957   6.177   3.383   2.278 -1.3484 -0.0829  0.0295
    5CHTO   H80 1958   6.179   3.298   2.348 -1.6154 -0.0449  0.0841
    5CHTO   O31 1959   6.144   3.333   2.143 -0.4531  0.1147 -0.2914
    5CHTO   H68 1960   6.129   3.404   2.084  1.3885  0.4514 -0.3831
    5CHTO   C39 1961   6.078   3.489   2.334 -0.0285  0.1776 -0.0870
    5CHTO   H81 1962   6.082   3.573   2.264 -0.5933  0.4867  0.2502
    5CHTO    N7 1963   5.937   3.445   2.341 -0.0739 -0.1508 -0.2508
    5CHTO   H73 1964   5.912   3.397   2.248 -0.5105 -2.1454  0.8659
    5CHTO   H74 1965   5.881   3.538   2.344  1.7441  0.9784 -0.6472
    5CHTO   C40 1966   6.121   3.559   2.470  0.7514 -0.2173 -0.6050
    5CHTO   H82 1967   6.095   3.497   2.556  0.4002 -1.5280 -1.6314
    5CHTO   O26 1968   6.264   3.595   2.465  0.2196 -0.3895 -0.2095
    5CHTO   C41 1969   6.362   3.495   2.421 -0.0181 -0.1057  0.3042
    5CHTO   H83 1970   6.368   3.410   2.491  0.8959  0.9146  1.4916
    5CHTO   C52 1971   6.497   3.561   2.416  0.1665 -0.1433 -0.8097
    5CHTO   O35 1972   6.567   3.573   2.537  0.0274  0.1852 -0.4577
    5CHTO   H71 1973   6.644   3.624   2.522  1.2801 -1.9166 -1.4790
    5CHTO   O28 1974   6.048   3.685   2.502 -0.1551 -0.3142  0.4675
    5CHTO   C42 1975   6.048   3.772   2.623  0.0964  0.2125  0.1023
    5CHTO   H84 1976   5.988   3.856   2.589 -2.3136 -1.0064  1.2456
    5CHTO   C44 1977   6.186   3.838   2.671 -0.0816  0.4573  0.3742
    5CHTO   H86 1978   6.252   3.844   2.584  1.3628 -0.9725  1.3408
    5CHTO   O32 1979   6.169   3.980   2.713  0.3660 -0.5015  0.0561
    5CHTO   H69 1980   6.100   3.984   2.776  0.6416  1.2030  0.2684
    5CHTO   C48 1981   6.260   3.762   2.789  0.6891 -1.2646  0.1340
    5CHTO   H90 1982   6.239   3.819   2.880  0.0508 -2.5202  0.7891
    5CHTO    N9 1983   6.411   3.773   2.769  0.2386  0.3671 -0.6252
    5CHTO   H77 1984   6.446   3.856   2.829  1.3060 -0.9288  0.5978
    5CHTO   H78 1985   6.461   3.680   2.790 -0.3067  0.5813  1.7823
    5CHTO   C51 1986   6.205   3.616   2.807  0.1250  0.0243  0.7697
    5CHTO   H93 1987   6.210   3.563   2.712 -4.1194  0.6750  0.1220
    5CHTO   O30 1988   6.071   3.623   2.848  0.2017 -0.3006 -0.2045
    5CHTO   C46 1989   5.974   3.709   2.742  0.5566  0.0462 -0.5876
    5CHTO   H88 1990   5.913   3.626   2.705  0.5025 -0.4590  0.6284
    5CHTO   C53 1991   5.875   3.809   2.808 -0.3773  0.0514 -0.0266
    5CHTO   O72 1992   5.778   3.744   2.883 -0.5339  0.0625 -0.4731
    5CHTO  H199 1993   5.815   3.686   2.947 -0.7934  0.4218  0.0149
    5CHTO   O22 1994   6.276   3.541   2.911  0.0647  0.2851  0.5021
    5CHTO   C31 1995   6.290   3.384   2.899 -0.3135 -0.9270  0.0214
    5CHTO   H59 1996   6.319   3.357   3.003  1.3234  0.2113 -0.1196
    5CHTO   C29 1997   6.153   3.316   2.867 -0.0849 -0.3390  0.0896
    5CHTO   H57 1998   6.108   3.378   2.788  0.6784  0.2974  0.1468
    5CHTO   O21 1999   6.071   3.336   2.985 -0.0442  0.4044 -0.1299
    5CHTO   H37 2000   6.048   3.426   2.993 -3.2037 -0.4412  1.0301
    5CHTO   C27 2001   6.171   3.169   2.819  0.0760 -0.3190 -0.2930
    5CHTO   H55 2002   6.192   3.106   2.907  1.1348  2.0783  1.2195
    5CHTO    N5 2003   6.045   3.119   2.756 -0.2593  0.5809  0.0401
    5CHTO   H43 2004   5.985   3.060   2.823 -0.6493  1.0976  0.1481
    5CHTO   H44 2005   6.056   3.080   2.656 -0.9782  0.2984  0.0697
    5CHTO   C25 2006   6.293   3.155   2.719  0.1428 -0.3212  0.0717
    5CHTO   H53 2007   6.293   3.219   2.630  2.1119 -1.0696 -0.4981
    5CHTO   O17 2008   6.408   3.204   2.791 -0.3856  0.7033 -0.3384
    5CHTO   C32 2009   6.406   3.346   2.812  0.5149  0.3905  0.1892
    5CHTO   H60 2010   6.408   3.411   2.724 -0.2742 -0.0599 -0.1661
    5CHTO   C36 2011   6.539   3.379   2.885 -0.1376  0.1555  0.8726
    5CHTO   O25 2012   6.649   3.334   2.808  0.0771 -0.0968  0.0886
    5CHTO   H40 2013   6.685   3.268   2.863 -0.5550 -2.1711 -1.8863
    5CHTO   O15 2014   6.312   3.006   2.680 -0.0077  0.3088 -0.1157
    5CHTO   C19 2015   6.382   2.891   2.741  0.4633  0.9445  0.0590
    5CHTO   H47 2016   6.445   2.929   2.822  1.3700  0.8675 -0.5953
    5CHTO   C20 2017   6.298   2.780   2.808 -0.1775 -0.0600  0.0556
    5CHTO   H48 2018   6.234   2.725   2.738  2.1281 -3.7397  0.6375
    5CHTO   O19 2019   6.204   2.846   2.898 -0.4348  1.1192 -0.2001
    5CHTO   H35 2020   6.165   2.783   2.956  0.2754  1.3659  0.5458
    5CHTO   C21 2021   6.389   2.684   2.896 -0.9947  0.2057 -0.1910
    5CHTO   H49 2022   6.438   2.739   2.977 -0.5728 -1.2022  0.5316
    5CHTO    N4 2023   6.310   2.575   2.964  0.1961  0.4448 -0.1101
    5CHTO   H41 2024   6.356   2.535   3.053  0.4330 -0.9792 -0.8505
    5CHTO   H42 2025   6.209   2.603   2.988 -0.1996 -2.5600  2.0536
    5CHTO   C22 2026   6.495   2.628   2.803 -0.9453 -0.3110  0.2169
    5CHTO   H50 2027   6.447   2.559   2.733  0.4373 -1.8974  0.8066
    5CHTO   O14 2028   6.563   2.732   2.729 -0.2119 -0.2602  0.1984
    5CHTO   C23 2029   6.483   2.820   2.648  0.0057 -0.7346 -0.6887
    5CHTO   H51 2030   6.432   2.771   2.564 -0.2762 -2.0350  0.2352
    5CHTO   C34 2031   6.575   2.928   2.587 -0.6924  0.0046 -0.4234
    5CHTO   O23 2032   6.682   2.865   2.527 -0.3048 -0.4139  0.7488
    5CHTO   H38 2033   6.719   2.915   2.457  1.6543 -1.3855  1.0391
    5CHTO   O16 2034   6.603   2.560   2.872  0.2933 -0.5258  0.2807
    5CHTO   C24 2035   6.696   2.450   2.759  0.5886  0.2961 -0.2980
    5CHTO   H52 2036   6.664   2.465   2.656  0.8672  0.9007 -0.2982
    5CHTO   C26 2037   6.676   2.307   2.810 -0.2874  0.5121  0.1028
    5CHTO   H54 2038   6.710   2.306   2.916 -1.0749  0.1445  0.3576
    5CHTO   O20 2039   6.531   2.283   2.814  0.0094 -0.0481  0.3889
    5CHTO   H36 2040   6.489   2.317   2.738  1.0517  2.1323  0.7487
    5CHTO   C30 2041   6.757   2.201   2.728  0.1136 -0.5570  0.4907
    5CHTO   H58 2042   6.707   2.198   2.630  0.3570 -0.2934  0.3568
    5CHTO    N6 2043   6.738   2.066   2.788  0.3563  0.1632 -0.1580
    5CHTO   H45 2044   6.644   2.060   2.841  0.2762 -0.7646 -0.4019
    5CHTO   H46 2045   6.739   1.999   2.704 -1.6160  1.2814 -1.1068
    5CHTO   C33 2046   6.902   2.253   2.719  0.3121 -0.0825 -0.4003
    5CHTO   H61 2047   6.940   2.253   2.822  0.7306  0.5450 -0.5525
    5CHTO   O18 2048   6.909   2.392   2.668  0.4007 -0.4930  0.0590
    5CHTO   C28 2049   6.848   2.476   2.764 -0.2341 -0.1213 -0.0097
    5CHTO   H56 2050   6.879   2.465   2.868  0.4939  0.3376 -0.1733
    5CHTO   C35 2051   6.881   2.620   2.734  0.1021 -0.5605  0.1932
    5CHTO   O24 2052   6.870   2.700   2.851  0.9966  0.4351  0.3875
    5CHTO   H39 2053   6.815   2.771   2.823 -1.3352 -1.4365  0.1465
    5CHTO    O9 2054   6.982   2.164   2.641 -0.2163 -0.1164 -0.3720
    5CHTO   C13 2055   6.956   2.148   2.471 -0.0272  0.6800  1.1507
    5CHTO   H26 2056   6.850   2.170   2.448 -0.8906 -1.8042  2.5573
    5CHTO   C11 2057   6.992   2.003   2.425 -0.3396 -0.0368 -0.0787
    5CHTO   H24 2058   6.921   1.935   2.474 -0.1042  0.7687  1.3798
    5CHTO    O8 2059   7.120   1.969   2.473  0.0196 -0.1843 -0.2617
    5CHTO    H3 2060   7.110   1.927   2.557 -2.4356  0.5994 -0.1117
    5CHTO    C9 2061   6.975   1.988   2.271  0.1138 -0.4052  0.2632
    5CHTO   H22 2062   6.875   2.030   2.250  1.0936  2.0584  0.3065
    5CHTO    N2 2063   6.972   1.852   2.221  0.1618 -0.0118  0.0467
    5CHTO   H10 2064   6.978   1.784   2.304 -3.8735  0.8968  1.1842
    5CHTO   H11 2065   7.042   1.832   2.141 -0.8868  0.3295 -0.9807
    5CHTO    C7 2066   7.079   2.091   2.205 -0.1329 -0.1485 -0.0792
    5CHTO   H20 2067   7.043   2.093   2.100  0.9643 -2.6624 -0.5464
    5CHTO    O4 2068   7.083   2.230   2.259 -0.0718  0.8033  0.0345
    5CHTO   C14 2069   7.040   2.254   2.393  0.2989 -0.1902  0.5708
    5CHTO   H27 2070   6.983   2.348   2.380  0.7832  0.1866  1.1624
    5CHTO   C18 2071   7.163   2.291   2.476  0.1704 -0.2528 -0.0106
    5CHTO   O13 2072   7.214   2.422   2.434  0.4610  0.4869  0.7995
    5CHTO    H7 2073   7.302   2.424   2.466  0.0889  1.1544  1.7953
    5CHTO    O2 2074   7.244   2.025   2.204  0.2208 -0.1659  0.1166
    5CHTO    C1 2075   7.322   2.067   2.087 -0.2647  0.2451  0.4772
    5CHTO   H14 2076   7.290   2.167   2.049  0.6025 -0.3007 -1.7573
    5CHTO    C2 2077   7.308   1.968   1.963  0.6206  0.1732 -0.1265
    5CHTO   H15 2078   7.332   1.867   1.998 -0.5847 -0.8243 -2.0798
    5CHTO    O6 2079   7.175   1.972   1.904 -0.0353 -0.4367  0.7709
    5CHTO    H1 2080   7.179   2.001   1.815 -0.0904 -1.2670  0.4931
    5CHTO    C3 2081   7.413   2.006   1.850  1.1692 -0.7846 -0.2954
    5CHTO   H16 2082   7.384   2.099   1.798 -0.7246 -0.3265  1.5019
    5CHTO    N1 2083   7.422   1.909   1.737  0.3270 -0.2302 -0.3595
    5CHTO    H8 2084   7.329   1.882   1.691  0.7200 -2.1049 -0.0944
    5CHTO    H9 2085   7.466   1.818   1.775 -0.5935 -0.1969  0.8033
    5CHTO    C4 2086   7.552   2.032   1.910  0.7688 -0.5147 -0.5099
    5CHTO   H17 2087   7.604   1.943   1.946  1.1305 -0.4000 -0.7446
    5CHTO    O1 2088   7.548   2.123   2.018  0.4216  1.2444  0.0903
    5CHTO    C5 2089   7.468   2.079   2.131 -0.0194 -1.1627 -0.7758
    5CHTO   H18 2090   7.502   1.986   2.175  1.2164  0.1622  1.1244
    5CHTO   C16 2091   7.465   2.186   2.243 -0.5053  0.3979 -0.3940
    5CHTO   O11 2092   7.408   2.310   2.197  0.1171 -0.0150 -0.1736
    5CHTO    H5 2093   7.489   2.349   2.171  1.0801  0.1344  2.8194
    5CHTO    O3 2094   7.646   2.111   1.826 -0.7855  0.7441 -0.3978
    5CHTO    C6 2095   7.791   2.084   1.844  1.0814  0.3063 -0.0167
    5CHTO   H19 2096   7.819   2.046   1.942  1.2077  0.4206 -0.0089
    5CHTO    C8 2097   7.834   1.984   1.728 -0.4801  0.2881 -0.2788
    5CHTO   H21 2098   7.794   2.023   1.634  3.2455  2.0638 -1.1876
    5CHTO    O7 2099   7.785   1.855   1.765  1.0746  0.3929  0.0237
    5CHTO    H2 2100   7.762   1.812   1.686 -0.6783  1.5763 -0.1418
    5CHTO   C12 2101   7.994   1.977   1.709 -0.4967 -0.0843 -0.3258
    5CHTO   H25 2102   8.034   1.908   1.786  3.7085 -0.0021 -2.3250
    5CHTO    N3 2103   8.032   1.917   1.576 -0.2950 -0.4213  0.2788
    5CHTO   H12 2104   8.037   1.810   1.590 -2.9250 -0.6683 -0.3154
    5CHTO   H13 2105   7.977   1.947   1.488  0.4623  2.0473  0.6016
    5CHTO   C15 2106   8.067   2.119   1.739  0.4518  0.2323  0.0606
    5CHTO   H28 2107   8.064   2.188   1.655 -2.7985 -1.7628 -1.5307
    5CHTO   O10 2108   8.201   2.103   1.777  0.1682  0.1430 -0.6504
    5CHTO    H4 2109   8.251   2.171   1.736 -1.0125  0.4219 -1.6533
    5CHTO    O5 2110   8.008   2.187   1.852  0.0088 -0.2604  0.0699
    5CHTO   C10 2111   7.870   2.213   1.829 -0.6639 -0.5165 -0.1909
    5CHTO   H23 2112   7.859   2.258   1.730  0.0850  0.2870  0.0922
    5CHTO   C17 2113   7.830   2.324   1.937  0.6849  0.0243  0.2997
    5CHTO   O12 2114   7.853   2.278   2.071 -0.0772  0.1847 -0.0994
    5CHTO    H6 2115   7.804   2.339   2.123  1.0493  0.3049  0.8430
    6CHTO  H203 2116   7.201   4.616  -0.425  0.3249  2.8670  0.6796
    6CHTO   O82 2117   7.183   4.603  -0.334 -0.6257 -0.6041  0.0676
    6CHTO  C123 2118   7.130   4.726  -0.287 -0.4018 -0.2724  0.1122
    6CHTO  H227 2119   7.166   4.806  -0.354 -0.3218 -1.6783 -1.5373
    6CHTO   O77 2120   6.988   4.701  -0.305 -0.3278 -0.6788  0.1516
    6CHTO  C118 2121   6.910   4.815  -0.279  0.0847  0.5388 -0.4869
    6CHTO  H222 2122   6.935   4.896  -0.349  0.1367 -0.5753 -1.7844
    6CHTO  C125 2123   6.766   4.763  -0.322  0.7974 -0.7268 -0.1080
    6CHTO   O84 2124   6.660   4.859  -0.315  0.0055 -0.0426 -0.4861
    6CHTO  H205 2125   6.577   4.822  -0.336  0.9451 -1.0983 -2.4410
    6CHTO  C114 2126   6.922   4.870  -0.131  0.5516  0.0777  0.6833
    6CHTO  H218 2127   6.896   4.784  -0.070 -0.7133 -0.2893 -0.3590
    6CHTO  C116 2128   7.080   4.893  -0.106  0.1315 -0.2947  0.8301
    6CHTO  H220 2129   7.114   4.977  -0.170 -0.2545 -0.3223  0.5873
    6CHTO   O79 2130   7.093   4.939   0.032 -0.1120  0.1616 -0.3898
    6CHTO  H201 2131   7.054   4.874   0.087 -0.7863  0.9986  0.1424
    6CHTO  C120 2132   7.161   4.761  -0.133  0.4179  0.3999  0.1149
    6CHTO  H224 2133   7.117   4.686  -0.065 -2.2258 -0.0748 -2.0647
    6CHTO   N21 2134   7.305   4.781  -0.104 -0.0432 -0.1619  0.1053
    6CHTO  H211 2135   7.329   4.880  -0.141 -0.4429 -0.3698 -0.7177
    6CHTO  H212 2136   7.366   4.703  -0.145 -1.2498 -0.8944 -0.3443
    6CHTO   O75 2137   6.827   4.974  -0.105  0.2913 -0.3192  0.6035
    6CHTO  C112 2138   6.742   4.954   0.043  0.3315 -0.6129 -0.5760
    6CHTO  H216 2139   6.799   4.891   0.112  1.2596  0.8098 -0.0154
    6CHTO   O73 2140   6.616   4.891   0.005 -0.6897  0.4190  0.3636
    6CHTO  C113 2141   6.504   4.905   0.084 -0.3823 -0.2342 -0.6375
    6CHTO  H217 2142   6.534   4.854   0.178 -0.1131 -0.9540 -1.1083
    6CHTO  C124 2143   6.381   4.829   0.023 -0.0668  0.1964 -0.6282
    6CHTO   O83 2144   6.378   4.691   0.054 -0.2857 -0.4468 -0.0361
    6CHTO  H204 2145   6.387   4.689   0.148  1.6258  0.5033 -0.1823
    6CHTO  C109 2146   6.475   5.054   0.117 -0.2356 -0.0395 -0.1779
    6CHTO  H213 2147   6.470   5.111   0.023  1.4153 -3.0593 -2.1971
    6CHTO  C110 2148   6.601   5.117   0.193  0.6137  0.7496  0.6057
    6CHTO  H214 2149   6.617   5.069   0.290 -0.8349 -1.5485 -0.2394
    6CHTO   O78 2150   6.568   5.255   0.197 -0.2362 -0.1617  0.0587
    6CHTO  H200 2151   6.585   5.296   0.114  1.5568 -3.3180 -1.2161
    6CHTO  C111 2152   6.729   5.098   0.103 -0.3370  0.0405 -0.4040
    6CHTO  H215 2153   6.716   5.155   0.009  2.6950 -0.2601 -1.0542
    6CHTO   N19 2154   6.856   5.141   0.155 -0.3015  0.7281 -0.2761
    6CHTO  H207 2155   6.895   5.216   0.088  1.2680  0.0177 -0.1876
    6CHTO  H208 2156   6.925   5.058   0.153  1.4963  2.1814  0.0579
    6CHTO   O74 2157   6.357   5.082   0.197 -0.2039  0.3449 -0.0625
    6CHTO  C115 2158   6.352   5.057   0.353  0.3987 -0.3408  1.1062
    6CHTO  H219 2159   6.453   5.040   0.389  1.0810 -0.1097 -0.6280
    6CHTO   O76 2160   6.299   5.192   0.429  0.2813 -0.0975 -0.7321
    6CHTO  C122 2161   6.155   5.206   0.411 -0.7512  0.5387  0.1834
    6CHTO  H226 2162   6.137   5.230   0.307  0.0303 -2.1490 -0.6177
    6CHTO  C126 2163   6.116   5.333   0.492  0.0693  0.3433  0.2772
    6CHTO   O85 2164   6.098   5.312   0.631 -0.6434 -0.0367  0.1807
    6CHTO  H206 2165   6.177   5.327   0.680 -0.5868 -1.1399  0.4426
    6CHTO  C121 2166   6.066   5.077   0.445  0.4574 -0.1696 -0.2805
    6CHTO  H225 2167   6.003   5.107   0.532  0.4528 -3.4016  0.8967
    6CHTO   O81 2168   5.977   5.046   0.335 -0.1061  0.1729 -0.2794
    6CHTO  H202 2169   6.010   4.978   0.281  0.9215 -1.1103  1.8913
    6CHTO  C119 2170   6.152   4.960   0.489  0.6781  0.4244  0.0382
    6CHTO  H223 2171   6.198   4.989   0.584  0.5463 -0.7481  0.4793
    6CHTO  C117 2172   6.263   4.930   0.381 -0.9770 -0.1768  0.3749
    6CHTO  H221 2173   6.227   4.900   0.283 -0.8326  0.4705  0.1249
    6CHTO   N20 2174   6.346   4.818   0.435 -0.5598 -0.2977  0.2863
    6CHTO  H209 2175   6.358   4.746   0.355 -0.0014 -1.9475  1.8356
    6CHTO  H210 2176   6.311   4.777   0.529 -2.1806  0.3285 -0.0259
    6CHTO   O80 2177   6.066   4.820   0.538  0.5097  0.0938  0.7152
    6CHTO  C103 2178   6.018   4.802   0.675 -0.3338 -0.0560 -0.1288
    6CHTO  H190 2179   6.067   4.874   0.740  0.4831 -0.9687  0.2757
    6CHTO  C101 2180   5.859   4.808   0.686  0.0594  0.4678 -0.2349
    6CHTO  H188 2181   5.813   4.761   0.599 -3.2332  3.1317 -0.0452
    6CHTO   O68 2182   5.802   4.967   0.673  0.7532 -0.3298  0.2335
    6CHTO  H168 2183   5.841   5.021   0.739  0.4355 -1.5344  1.4430
    6CHTO   C99 2184   5.810   4.742   0.819 -0.4003  0.6840 -0.1090
    6CHTO  H186 2185   5.844   4.802   0.907 -0.3313  0.1744  0.2162
    6CHTO   N17 2186   5.664   4.739   0.833  0.8393  0.1531  0.0072
    6CHTO  H174 2187   5.618   4.719   0.929 -0.7155 -1.6611 -1.0699
    6CHTO  H175 2188   5.600   4.705   0.753 -0.8044  1.4081  0.7508
    6CHTO   C97 2189   5.869   4.597   0.835 -0.4191  0.0518  0.8373
    6CHTO  H184 2190   5.830   4.534   0.754 -1.7188 -0.6386  1.9725
    6CHTO   O64 2191   6.012   4.607   0.838 -0.2740 -0.1978  0.5292
    6CHTO  C104 2192   6.066   4.656   0.717  0.6776  0.0322 -0.0587
    6CHTO  H191 2193   6.038   4.586   0.638  1.2115 -1.3030  0.9266
    6CHTO  C108 2194   6.218   4.624   0.738  0.5823  0.0925  0.4909
    6CHTO   O71 2195   6.295   4.683   0.840  0.3512 -0.2109  0.1121
    6CHTO  H171 2196   6.241   4.699   0.916  0.4855 -1.0635  0.3903
    6CHTO   O62 2197   5.866   4.536   0.962  0.0048  0.2396 -0.7049
    6CHTO   C91 2198   5.754   4.462   1.016  0.1936  0.3304 -0.4313
    6CHTO  H178 2199   5.663   4.522   1.024  1.2301  2.1442 -1.6077
    6CHTO   C92 2200   5.797   4.429   1.167  0.4168  1.2879 -0.0480
    6CHTO  H179 2201   5.817   4.524   1.220 -3.9976  2.4175 -0.2303
    6CHTO   O66 2202   5.684   4.379   1.234 -0.5616  0.5064  0.5904
    6CHTO  H166 2203   5.646   4.439   1.296  0.3876  1.8072 -0.0520
    6CHTO   C93 2204   5.912   4.316   1.182  0.1968  0.0565 -0.3479
    6CHTO  H180 2205   5.899   4.265   1.278  0.8210  0.7764  0.1208
    6CHTO   N16 2206   6.044   4.377   1.190 -0.3756 -0.1034  0.8000
    6CHTO  H172 2207   6.044   4.454   1.265 -3.5064  1.2960 -0.5556
    6CHTO  H173 2208   6.066   4.437   1.102 -0.2852  2.0288  2.2411
    6CHTO   C94 2209   5.896   4.206   1.066 -0.2567  0.7561  0.0578
    6CHTO  H181 2210   5.951   4.226   0.975 -3.1422 -2.9106 -2.6902
    6CHTO   O61 2211   5.757   4.201   1.024 -0.5365 -0.4203  0.2777
    6CHTO   C95 2212   5.721   4.320   0.945 -0.4571  0.8069  0.2927
    6CHTO  H182 2213   5.779   4.317   0.853 -1.8867 -0.5825 -0.5928
    6CHTO  C106 2214   5.572   4.297   0.911  0.2229 -0.4414  0.7936
    6CHTO   O69 2215   5.537   4.178   0.848  0.1933 -0.5183 -0.2659
    6CHTO  H169 2216   5.609   4.133   0.809  0.2249 -1.7102  1.1228
    6CHTO   O63 2217   5.949   4.075   1.118  0.5186  0.9802  0.0480
    6CHTO   C96 2218   5.967   3.973   1.003 -0.3436 -0.5772  0.0820
    6CHTO  H183 2219   5.944   4.022   0.909  1.5652 -1.4126 -0.8416
    6CHTO   C98 2220   5.871   3.856   1.015  0.5183  0.6157 -0.3720
    6CHTO  H185 2221   5.873   3.810   1.115  0.5473  0.9356 -0.2263
    6CHTO   O67 2222   5.736   3.906   1.002 -0.2998  0.2366 -0.3281
    6CHTO  H167 2223   5.719   3.942   0.917 -3.9731 -2.8612 -1.0557
    6CHTO  C102 2224   5.891   3.747   0.896 -0.9664  0.5992 -0.2493
    6CHTO  H189 2225   5.853   3.791   0.802  0.1025  1.5102 -0.2657
    6CHTO   N18 2226   5.817   3.617   0.914 -0.0153 -0.4349  0.1013
    6CHTO  H176 2227   5.711   3.635   0.927 -0.1716  0.0285 -1.7573
    6CHTO  H177 2228   5.851   3.574   1.007 -1.4206 -2.3752 -0.2424
    6CHTO  C105 2229   6.047   3.712   0.896 -0.1830 -0.4817 -0.7166
    6CHTO  H192 2230   6.075   3.672   0.993 -2.3141 -1.4794 -0.4927
    6CHTO   O65 2231   6.127   3.836   0.877  0.2285  0.1744  0.5891
    6CHTO  C100 2232   6.119   3.929   0.987  0.8927 -0.3292  0.2723
    6CHTO  H187 2233   6.153   3.878   1.079 -0.1142 -0.8833  0.3475
    6CHTO  C107 2234   6.225   4.042   0.958  0.1139  0.0043  1.1563
    6CHTO   O70 2235   6.189   4.110   0.833 -0.4101  0.1211 -0.7213
    6CHTO  H170 2236   6.129   4.181   0.847 -0.9162 -0.3428 -0.5358
    6CHTO   O57 2237   6.076   3.604   0.760  0.8152 -0.3588 -0.5905
    6CHTO   C85 2238   6.182   3.590   0.661  0.4787 -0.2600  0.5990
    6CHTO  H157 2239   6.141   3.508   0.598 -0.5864 -0.4335  1.5069
    6CHTO   C83 2240   6.309   3.537   0.726  0.6529  0.2990 -0.8531
    6CHTO  H155 2241   6.278   3.454   0.789 -1.0895  1.6566  0.1143
    6CHTO   O56 2242   6.361   3.637   0.816 -0.2263 -0.0606 -0.0704
    6CHTO  H135 2243   6.346   3.602   0.902 -2.6498  0.0230 -0.4433
    6CHTO   C81 2244   6.403   3.481   0.610  0.0502 -0.0485 -0.2449
    6CHTO  H153 2245   6.343   3.419   0.544 -0.9971  0.1321  0.5332
    6CHTO   N14 2246   6.515   3.395   0.659  0.1788 -0.1129 -0.0346
    6CHTO  H141 2247   6.523   3.415   0.764  0.9452 -0.2550 -0.0626
    6CHTO  H142 2248   6.487   3.294   0.642  0.5207 -0.6116  2.1596
    6CHTO   C79 2249   6.454   3.600   0.523  0.1078 -0.1377  0.3649
    6CHTO  H151 2250   6.518   3.557   0.446 -0.5049  3.2948 -2.1609
    6CHTO   O52 2251   6.339   3.685   0.467  0.2161 -0.2505  0.4917
    6CHTO   C86 2252   6.238   3.714   0.571 -0.3902 -0.1063 -0.3656
    6CHTO  H158 2253   6.287   3.792   0.634  1.4063 -0.8166 -0.8612
    6CHTO   C90 2254   6.118   3.783   0.496  0.0608 -0.3802  0.6890
    6CHTO   O60 2255   6.020   3.849   0.577 -0.5872  0.2825 -0.4172
    6CHTO  H138 2256   5.961   3.890   0.518 -0.6166 -0.0286 -0.6028
    6CHTO   O50 2257   6.560   3.679   0.588  0.9395  0.6060  0.1210
    6CHTO   C73 2258   6.676   3.767   0.585 -0.8719  0.8542 -0.1507
    6CHTO  H145 2259   6.742   3.731   0.504  0.6457  3.3553 -0.0690
    6CHTO   C74 2260   6.763   3.771   0.717 -0.1842  0.7078 -0.2520
    6CHTO  H146 2261   6.789   3.667   0.739 -1.3921  0.7238  1.3702
    6CHTO   O54 2262   6.889   3.831   0.688 -0.6092  0.6895 -0.1152
    6CHTO  H133 2263   6.874   3.919   0.659  2.7291  0.8268 -1.6372
    6CHTO   C75 2264   6.688   3.844   0.842  0.1499 -0.4571  0.0350
    6CHTO  H147 2265   6.594   3.790   0.861  1.8518 -2.6223  2.6577
    6CHTO   N13 2266   6.762   3.847   0.967  0.2752  0.7119 -0.2688
    6CHTO  H139 2267   6.698   3.804   1.042 -1.0628  1.1510 -1.1471
    6CHTO  H140 2268   6.859   3.798   0.958 -0.7047 -1.1358 -1.1342
    6CHTO   C76 2269   6.653   3.985   0.790 -0.7726 -0.0285 -0.0880
    6CHTO  H148 2270   6.743   4.042   0.769 -2.1628  1.9427 -0.7767
    6CHTO   O49 2271   6.571   3.972   0.670 -0.1746 -0.3525  0.0450
    6CHTO   C77 2272   6.638   3.917   0.556 -0.3121  1.1353 -0.1169
    6CHTO  H149 2273   6.727   3.974   0.529  0.1867  0.3240 -0.2193
    6CHTO   C88 2274   6.551   3.931   0.436  0.1688  1.3622 -0.0711
    6CHTO   O58 2275   6.521   4.105   0.417 -0.5940  0.1986 -0.3673
    6CHTO  H136 2276   6.454   4.112   0.352 -3.5860 -1.6255  2.3499
    6CHTO   O51 2277   6.572   4.068   0.899  0.3874  0.3298  0.1596
    6CHTO   C78 2278   6.616   4.232   0.913 -0.3734 -0.0439 -0.8001
    6CHTO  H150 2279   6.717   4.256   0.874 -0.8269 -0.2883 -2.1539
    6CHTO   C80 2280   6.610   4.266   1.064 -0.9044 -0.0818  0.3418
    6CHTO  H152 2281   6.528   4.211   1.115  0.1272 -2.0569 -0.0672
    6CHTO   O55 2282   6.723   4.206   1.130 -0.4983 -0.3257  0.5435
    6CHTO  H134 2283   6.803   4.239   1.095 -0.2612 -0.9569  0.4815
    6CHTO   C84 2284   6.614   4.415   1.092  0.4429  0.1876 -0.3320
    6CHTO  H156 2285   6.718   4.441   1.070 -0.1619  2.6021 -0.5253
    6CHTO   N15 2286   6.578   4.456   1.232 -0.0281 -0.4343  0.5225
    6CHTO  H143 2287   6.471   4.457   1.235 -0.1547 -2.5357 -1.4235
    6CHTO  H144 2288   6.611   4.556   1.247  1.2362 -0.8455  0.4839
    6CHTO   C87 2289   6.538   4.505   0.983 -0.1450 -0.1804 -0.2310
    6CHTO  H159 2290   6.433   4.507   1.011 -0.2008  0.0632 -0.4445
    6CHTO   O53 2291   6.556   4.453   0.853  0.7090 -0.1516 -0.0709
    6CHTO   C82 2292   6.514   4.320   0.835 -0.5130 -0.2653 -0.3602
    6CHTO  H154 2293   6.411   4.308   0.869 -0.3338  0.7702  0.5564
    6CHTO   C89 2294   6.511   4.280   0.687 -0.2457  0.2112 -0.0770
    6CHTO   O59 2295   6.396   4.341   0.630 -0.9418  0.1637  0.0798
    6CHTO  H137 2296   6.315   4.301   0.656 -1.6395  1.0206 -0.7648
    6CHTO   O45 2297   6.594   4.637   0.970  0.5198 -0.2004  0.2779
    6CHTO   C67 2298   6.722   4.664   0.912 -0.1436 -0.5677 -0.6861
    6CHTO  H124 2299   6.786   4.581   0.944 -0.8301 -0.9452 -0.2934
    6CHTO   C65 2300   6.721   4.657   0.756 -0.6061 -0.1419  0.4074
    6CHTO  H122 2301   6.616   4.645   0.729 -0.4367 -2.5080  0.6372
    6CHTO   O44 2302   6.802   4.541   0.714 -0.0743 -0.2970  0.9303
    6CHTO  H102 2303   6.780   4.515   0.627  1.2263 -0.1945  0.5587
    6CHTO   C63 2304   6.755   4.803   0.700  0.4643  0.5537 -0.0490
    6CHTO  H120 2305   6.675   4.872   0.728 -0.1476  0.1200 -0.7034
    6CHTO   N11 2306   6.740   4.811   0.548 -0.5016 -0.4657  0.1329
    6CHTO  H108 2307   6.646   4.790   0.502 -0.7915 -2.0083  1.3886
    6CHTO  H109 2308   6.817   4.750   0.506 -0.7805 -0.6711 -0.0724
    6CHTO   C61 2309   6.898   4.853   0.759 -0.3021 -0.5973  0.5958
    6CHTO  H118 2310   6.914   4.958   0.732 -0.2315 -1.2363 -1.9385
    6CHTO   O40 2311   6.905   4.843   0.900 -0.6976 -0.4407  0.2999
    6CHTO   C68 2312   6.784   4.794   0.972 -0.1251 -0.7264 -0.1840
    6CHTO  H125 2313   6.709   4.876   0.966  0.5443  0.0862  2.0939
    6CHTO   C72 2314   6.832   4.781   1.123 -0.0237 -0.0566  0.1405
    6CHTO   O48 2315   6.942   4.687   1.131  0.2167 -0.2798  0.3208
    6CHTO  H105 2316   6.919   4.602   1.161 -0.3632  0.4986  2.1566
    6CHTO   O38 2317   7.010   4.776   0.705 -0.1957  0.3362  0.0593
    6CHTO   C55 2318   7.144   4.834   0.711  0.0325 -0.8961 -0.1560
    6CHTO  H112 2319   7.138   4.905   0.795  0.8865  0.2471 -1.0434
    6CHTO   C56 2320   7.179   4.914   0.581 -1.0335 -0.0118  0.0384
    6CHTO  H113 2321   7.200   4.847   0.496  1.5293  0.9506 -0.1389
    6CHTO   O42 2322   7.078   5.006   0.536  0.2917 -0.0159  0.0998
    6CHTO  H100 2323   7.073   4.994   0.444  1.4064 -0.3176  0.0730
    6CHTO   C57 2324   7.312   4.995   0.609 -0.2236 -0.3452  0.0511
    6CHTO  H114 2325   7.283   5.064   0.688  4.7893 -0.3597  2.0912
    6CHTO   N10 2326   7.353   5.069   0.483 -0.2476 -0.4505  0.0629
    6CHTO  H106 2327   7.461   5.078   0.483 -0.2393 -0.5202 -1.0724
    6CHTO  H107 2328   7.323   5.021   0.391 -1.5159  0.7836 -0.1802
    6CHTO   C58 2329   7.426   4.903   0.666 -0.3528  0.3198  0.4556
    6CHTO  H115 2330   7.477   4.848   0.584  0.0244 -0.8989  1.4850
    6CHTO   O37 2331   7.381   4.807   0.764  0.6496  0.1475 -0.7125
    6CHTO   C59 2332   7.256   4.731   0.747 -0.0132  0.1670 -0.2239
    6CHTO  H116 2333   7.266   4.656   0.668  0.7085  0.1974 -0.1658
    6CHTO   C70 2334   7.229   4.656   0.884  0.2721 -0.1812  0.3588
    6CHTO   O46 2335   7.320   4.548   0.893  0.6609  0.1263 -0.2121
    6CHTO  H103 2336   7.284   4.495   0.961  0.4483 -0.5418 -0.8383
    6CHTO   O39 2337   7.529   4.981   0.722 -0.2405 -0.1018  0.0228
    6CHTO   C60 2338   7.664   4.943   0.691  0.1240  0.0472 -0.1094
    6CHTO  H117 2339   7.669   4.847   0.641  2.1555  1.0913 -2.0019
    6CHTO   C62 2340   7.739   5.040   0.593 -0.8028 -0.6999 -0.0857
    6CHTO  H119 2341   7.671   5.038   0.505 -1.4061 -0.0016  0.3623
    6CHTO   O43 2342   7.741   5.171   0.655  0.1679  0.0817  1.2173
    6CHTO  H101 2343   7.745   5.239   0.591 -0.0641  0.4328  1.5742
    6CHTO   C66 2344   7.885   4.971   0.573 -0.0804  0.0665  0.6591
    6CHTO  H123 2345   7.868   4.872   0.532 -1.5821  1.4772 -2.2932
    6CHTO   N12 2346   7.948   5.054   0.457  0.0406  0.0639  0.1456
    6CHTO  H110 2347   7.907   5.142   0.412  0.9048  0.5282  0.2484
    6CHTO  H111 2348   8.054   5.043   0.439  0.5229  2.3519  1.4375
    6CHTO   C69 2349   7.961   4.982   0.705  0.3265 -0.5768 -0.6743
    6CHTO  H126 2350   7.959   5.087   0.741 -1.5065 -0.4792 -1.0144
    6CHTO   O41 2351   7.895   4.881   0.797 -0.3295 -0.4993  0.7874
    6CHTO   C64 2352   7.751   4.928   0.822 -1.2012 -0.5793 -0.2440
    6CHTO  H121 2353   7.758   5.025   0.877 -1.4050 -1.0918  0.6929
    6CHTO   C71 2354   7.679   4.829   0.911 -1.1225 -0.1473 -0.4776
    6CHTO   O47 2355   7.732   4.803   1.041  0.2956  0.1772 -0.0606
    6CHTO  H104 2356   7.693   4.867   1.097  0.3636 -0.7233  1.0268
    6CHTO   O34 2357   8.115   4.924   0.684  0.1620 -0.8087  0.2167
    6CHTO   C49 2358   8.231   4.961   0.621  0.4109  0.1077 -0.6547
    6CHTO   H91 2359   8.231   4.926   0.518  0.7359 -1.5630 -0.1095
    6CHTO   C47 2360   8.344   4.888   0.691  0.3592 -0.1734 -0.5760
    6CHTO   H89 2361   8.426   4.918   0.623 -2.0334  0.9299 -3.0733
    6CHTO   O33 2362   8.321   4.742   0.683  0.1504  0.5591 -0.2375
    6CHTO   H70 2363   8.229   4.721   0.676  0.0895  0.5518  0.5907
    6CHTO   C45 2364   8.364   4.940   0.838 -0.1300 -0.3085 -0.2818
    6CHTO   H87 2365   8.278   4.902   0.896  1.2114 -1.5067  0.9456
    6CHTO    N8 2366   8.488   4.883   0.899 -0.3194  0.0075 -0.1529
    6CHTO   H75 2367   8.565   4.958   0.892  1.6754 -1.9884 -0.2375
    6CHTO   H76 2368   8.472   4.868   1.005 -1.6573 -1.7588 -0.5791
    6CHTO   C43 2369   8.360   5.100   0.861 -0.0520  0.0772 -0.0607
    6CHTO   H85 2370   8.325   5.125   0.961 -1.7680  0.6938 -0.7927
    6CHTO   O29 2371   8.280   5.170   0.759  0.3052  0.1691 -0.0253
    6CHTO   C50 2372   8.255   5.114   0.631 -1.1519 -0.4347  0.1071
    6CHTO   H92 2373   8.164   5.168   0.601 -0.7632  0.1523 -0.0199
    6CHTO   C54 2374   8.363   5.163   0.529  0.3690  0.4026 -0.2641
    6CHTO   O36 2375   8.311   5.133   0.395 -0.2116  0.1514  0.0333
    6CHTO   H72 2376   8.377   5.121   0.330 -0.8690 -1.1626 -0.4092
    6CHTO   O27 2377   8.486   5.174   0.847  0.7136  0.2536  0.1919
    6CHTO   C37 2378   8.538   5.303   0.896 -0.8695  0.1315  0.5804
    6CHTO   H79 2379   8.600   5.347   0.817  4.0802 -1.7304  3.2417
    6CHTO   C38 2380   8.430   5.404   0.935  0.8779  0.4560 -0.3560
    6CHTO   H80 2381   8.369   5.352   1.011  1.5511  1.3369  0.7920
    6CHTO   O31 2382   8.361   5.442   0.815  0.3295  0.0672  0.8394
    6CHTO   H68 2383   8.280   5.396   0.810  1.3502 -1.7058 -0.3665
    6CHTO   C39 2384   8.492   5.539   1.001 -0.0754 -0.4363  1.0716
    6CHTO   H81 2385   8.564   5.567   0.924 -2.0118 -0.9133 -0.9690
    6CHTO    N7 2386   8.395   5.645   1.031  0.1102 -0.2205  0.0672
    6CHTO   H73 2387   8.361   5.677   0.933 -2.1700  0.7856  1.1500
    6CHTO   H74 2388   8.315   5.608   1.093 -0.3020  1.5331  0.6028
    6CHTO   C40 2389   8.574   5.491   1.128 -0.3103  0.0039  0.2467
    6CHTO   H82 2390   8.500   5.447   1.196 -1.5007 -0.6864 -1.4731
    6CHTO   O26 2391   8.676   5.402   1.092  0.2468 -0.5899 -0.5448
    6CHTO   C41 2392   8.638   5.279   1.018 -0.4917  0.2357  0.1142
    6CHTO   H83 2393   8.584   5.208   1.082 -0.4722 -0.2168 -0.3727
    6CHTO   C52 2394   8.770   5.206   0.973  0.4318 -0.0725 -0.5854
    6CHTO   O35 2395   8.779   5.065   1.054 -0.6177  0.4301  0.6445
    6CHTO   H71 2396   8.718   5.001   1.026 -0.1610 -0.0514  0.7364
    6CHTO   O28 2397   8.643   5.593   1.197 -0.2595 -0.8888 -0.0357
    6CHTO   C42 2398   8.643   5.602   1.344  0.5110  0.1097 -0.8984
    6CHTO   H84 2399   8.742   5.645   1.362  0.8400 -0.4262 -1.4135
    6CHTO   C44 2400   8.644   5.471   1.426 -0.0769  0.2270  0.5695
    6CHTO   H86 2401   8.550   5.418   1.419 -1.1134  1.8799  1.4828
    6CHTO   O32 2402   8.759   5.389   1.372 -0.1705 -0.0931 -0.1865
    6CHTO   H69 2403   8.824   5.378   1.438  0.7413  3.6438 -0.3698
    6CHTO   C48 2404   8.659   5.510   1.581 -0.1731 -0.0878  0.1740
    6CHTO   H90 2405   8.764   5.539   1.584  0.3244 -1.5206 -2.0187
    6CHTO    N9 2406   8.644   5.391   1.679 -0.1465  0.3699  0.5288
    6CHTO   H77 2407   8.631   5.306   1.613 -0.0707  0.2411  0.6801
    6CHTO   H78 2408   8.731   5.375   1.740  1.1572  0.4085 -1.2708
    6CHTO   C51 2409   8.546   5.613   1.621 -0.3422 -0.4632  1.1232
    6CHTO   H93 2410   8.450   5.564   1.604 -1.3495  2.2796 -1.3240
    6CHTO   O30 2411   8.568   5.721   1.535 -0.1006 -0.4837  0.0144
    6CHTO   C46 2412   8.537   5.705   1.398  0.2890  0.3500  0.0684
    6CHTO   H88 2413   8.441   5.656   1.382  1.1041 -0.3278 -3.1306
    6CHTO   C53 2414   8.559   5.842   1.335  0.4319 -0.0415 -0.5088
    6CHTO   O72 2415   8.463   5.939   1.372 -0.4391 -0.4256 -0.3772
    6CHTO  H199 2416   8.393   5.948   1.311 -2.5075  1.5539  2.1531
    6CHTO   O22 2417   8.552   5.660   1.761 -0.6392 -0.4041  0.0816
    6CHTO   C31 2418   8.454   5.745   1.826 -0.0610 -0.6595 -0.7095
    6CHTO   H59 2419   8.475   5.740   1.935 -1.0801 -2.6945 -0.5711
    6CHTO   C29 2420   8.458   5.891   1.781 -0.7477  0.0048 -0.2177
    6CHTO   H57 2421   8.436   5.901   1.674  0.0832  3.1323 -0.1475
    6CHTO   O21 2422   8.588   5.949   1.805  0.4179  0.4759 -0.1726
    6CHTO   H37 2423   8.627   5.925   1.887 -0.2374 -2.2073 -0.6035
    6CHTO   C27 2424   8.352   5.977   1.873 -0.3564 -0.1912 -0.0198
    6CHTO   H55 2425   8.383   5.964   1.978 -0.2493  0.2954  0.0066
    6CHTO    N5 2426   8.351   6.132   1.842  0.3189  1.3137  0.4353
    6CHTO   H43 2427   8.345   6.155   1.737 -0.0824  1.3542  0.4677
    6CHTO   H44 2428   8.423   6.189   1.898 -1.0939  2.6680  0.9205
    6CHTO   C25 2429   8.213   5.910   1.847 -0.1727  0.0602 -0.1747
    6CHTO   H53 2430   8.182   5.908   1.742 -1.4965  0.4354  0.1994
    6CHTO   O17 2431   8.213   5.772   1.885  0.3729  0.7255 -0.2617
    6CHTO   C32 2432   8.305   5.688   1.814 -0.4627  0.6962  0.3000
    6CHTO   H60 2433   8.273   5.696   1.710 -3.6633  0.8489  1.2554
    6CHTO   C36 2434   8.280   5.541   1.867 -0.3617  0.9056  0.7747
    6CHTO   O25 2435   8.322   5.447   1.771 -0.1837 -0.3541  0.1937
    6CHTO   H40 2436   8.414   5.429   1.779 -0.1845 -1.6147 -2.2093
    6CHTO   O15 2437   8.094   5.975   1.921  0.8599  0.2373 -0.3789
    6CHTO   C19 2438   7.969   6.050   1.943 -0.0621  0.0134 -0.8669
    6CHTO   H47 2439   7.945   6.045   2.050  0.1751 -2.2616 -0.8973
    6CHTO   C20 2440   7.977   6.200   1.910 -0.1090 -0.2493 -0.5057
    6CHTO   H48 2441   7.999   6.214   1.803 -1.6233 -2.3418 -1.1225
    6CHTO   O19 2442   8.082   6.261   1.993 -0.4305  0.0032 -0.3164
    6CHTO   H35 2443   8.166   6.221   1.977 -0.0347  0.1585  1.2665
    6CHTO   C21 2444   7.844   6.281   1.939  0.3861  0.8015  0.1190
    6CHTO   H49 2445   7.814   6.274   2.044 -1.9559  2.5731 -0.3649
    6CHTO    N4 2446   7.847   6.421   1.907  0.0320  0.5285  0.6106
    6CHTO   H41 2447   7.908   6.475   1.978  1.5306  1.2386 -1.1451
    6CHTO   H42 2448   7.886   6.433   1.806 -1.2900  0.5647  0.1001
    6CHTO   C22 2449   7.726   6.205   1.873  0.0137 -0.1141 -0.2780
    6CHTO   H50 2450   7.733   6.214   1.764  1.6660 -0.3021 -0.1898
    6CHTO   O14 2451   7.734   6.069   1.896  0.2910 -0.7988  0.8002
    6CHTO   C23 2452   7.848   5.992   1.871  0.3147  0.2409  0.1030
    6CHTO   H51 2453   7.863   5.990   1.762  2.2576 -0.3819  0.3684
    6CHTO   C34 2454   7.813   5.853   1.922 -0.4054 -0.0368 -0.2739
    6CHTO   O23 2455   7.762   5.846   2.056  0.6929  0.2477  0.6381
    6CHTO   H38 2456   7.743   5.757   2.077  4.3009 -1.1777 -1.6037
    6CHTO   O16 2457   7.604   6.256   1.918  0.1557  0.0470 -0.2742
    6CHTO   C24 2458   7.475   6.252   1.810  0.5175  0.2381  0.2535
    6CHTO   H52 2459   7.491   6.181   1.729  2.5091  1.3879 -0.3988
    6CHTO   C26 2460   7.465   6.388   1.743  0.1992 -0.6561 -0.1780
    6CHTO   H54 2461   7.444   6.466   1.819  2.1567  1.3412 -1.6293
    6CHTO   O20 2462   7.592   6.408   1.677 -0.0269  0.0393  0.5462
    6CHTO   H36 2463   7.586   6.491   1.635 -0.3943  0.5248  1.5469
    6CHTO   C30 2464   7.351   6.380   1.635 -0.0269 -0.1466  0.0824
    6CHTO   H58 2465   7.371   6.298   1.565  1.9957 -0.8684  1.4535
    6CHTO    N6 2466   7.341   6.515   1.565 -0.0058 -0.0243 -0.0507
    6CHTO   H45 2467   7.277   6.505   1.479  2.1044  0.9544 -1.7690
    6CHTO   H46 2468   7.442   6.540   1.537 -0.0784  1.9236  1.3097
    6CHTO   C33 2469   7.221   6.342   1.709  0.0389  0.4827 -0.1757
    6CHTO   H61 2470   7.208   6.409   1.796 -2.5471 -1.9273  1.3840
    6CHTO   O18 2471   7.241   6.206   1.763  0.6658 -0.4105 -0.2590
    6CHTO   C28 2472   7.339   6.214   1.875  1.2906  0.8042  0.4567
    6CHTO   H56 2473   7.309   6.286   1.951  0.0041 -1.5147  2.2120
    6CHTO   C35 2474   7.353   6.074   1.943  0.0075  0.3144  0.1288
    6CHTO   O24 2475   7.226   6.041   1.992  0.0268 -0.3006  0.1306
    6CHTO   H39 2476   7.188   5.970   1.944 -0.8709  0.7455 -0.7477
    6CHTO    O9 2477   7.102   6.347   1.629  0.7953  0.3398 -0.8048
    6CHTO   C13 2478   6.962   6.386   1.705 -0.2814  0.4228 -0.2093
    6CHTO   H26 2479   6.986   6.475   1.766 -0.1337  0.2814 -0.0619
    6CHTO   C11 2480   6.921   6.261   1.799  0.1237  0.1809  0.7469
    6CHTO   H24 2481   7.005   6.244   1.869  0.0666  0.2992  0.8448
    6CHTO    O8 2482   6.925   6.140   1.718 -0.0838  0.5281 -0.4633
    6CHTO    H3 2483   7.011   6.129   1.684  0.3964  1.0244  0.5885
    6CHTO    C9 2484   6.787   6.297   1.875 -0.0950  0.2371  0.4245
    6CHTO   H22 2485   6.813   6.384   1.938 -2.8534 -0.0988  2.1265
    6CHTO    N2 2486   6.744   6.200   1.985  0.0593  0.4326  0.0310
    6CHTO   H10 2487   6.739   6.245   2.083  0.7243  1.0083 -0.1935
    6CHTO   H11 2488   6.654   6.149   1.956 -0.0957  1.2781 -1.0111
    6CHTO    C7 2489   6.672   6.337   1.770 -0.0762  0.4468 -0.4888
    6CHTO   H20 2490   6.593   6.374   1.838  0.0169  4.0366 -2.2601
    6CHTO    O4 2491   6.716   6.448   1.684  0.3384  0.0640 -0.9703
    6CHTO   C14 2492   6.842   6.432   1.612 -0.0183  0.1700 -0.4198
    6CHTO   H27 2493   6.868   6.533   1.574  1.4162 -0.2597 -0.5980
    6CHTO   C18 2494   6.836   6.337   1.485  0.9561  0.2817 -0.4305
    6CHTO   O13 2495   6.952   6.332   1.406 -0.0310 -0.9302  0.6453
    6CHTO    H7 2496   6.960   6.254   1.354 -1.1784 -0.5412 -0.1452
    6CHTO    O2 2497   6.637   6.207   1.680 -0.4133  0.4729  0.0152
    6CHTO    C1 2498   6.502   6.199   1.629  0.1648  0.2315  0.1199
    6CHTO   H14 2499   6.504   6.117   1.554 -0.0656 -1.0074  1.4438
    6CHTO    C2 2500   6.430   6.322   1.561 -0.0503  0.1976  0.0908
    6CHTO   H15 2501   6.436   6.413   1.623  0.6588 -0.2296  0.6618
    6CHTO    O6 2502   6.504   6.355   1.443  0.1390 -0.7766  0.1979
    6CHTO    H1 2503   6.555   6.433   1.451 -2.2416  0.8912 -0.0624
    6CHTO    C3 2504   6.281   6.287   1.520 -0.2684 -0.3172 -0.7643
    6CHTO   H16 2505   6.284   6.202   1.451  1.1119 -2.9987  2.4578
    6CHTO    N1 2506   6.200   6.402   1.467 -0.0604  0.3246  0.0315
    6CHTO    H8 2507   6.106   6.411   1.520 -0.3634 -0.2950 -0.4015
    6CHTO    H9 2508   6.171   6.387   1.364  0.1116  1.1549 -0.1405
    6CHTO    C4 2509   6.212   6.226   1.648  0.4766 -0.5298  0.4302
    6CHTO   H17 2510   6.199   6.303   1.725  0.6430 -0.3907  0.3200
    6CHTO    O1 2511   6.283   6.114   1.702 -0.2151 -0.4878  0.4879
    6CHTO    C5 2512   6.413   6.143   1.745 -0.0258 -0.0914 -0.0516
    6CHTO   H18 2513   6.419   6.213   1.829 -3.1420 -0.6444  0.6944
    6CHTO   C16 2514   6.454   6.005   1.800  0.1717 -0.4074 -0.2237
    6CHTO   O11 2515   6.594   5.981   1.791 -0.0271  0.9019  0.4670
    6CHTO    H5 2516   6.615   5.960   1.702  1.0212 -0.8499  1.1136
    6CHTO    O3 2517   6.081   6.172   1.613  0.7562 -0.6290 -0.2169
    6CHTO    C6 2518   5.982   6.176   1.730  0.2395 -0.3000 -0.3051
    6CHTO   H19 2519   6.031   6.174   1.828 -0.3524  0.3117  0.0074
    6CHTO    C8 2520   5.877   6.296   1.734  0.3562  0.0544 -0.2979
    6CHTO   H21 2521   5.828   6.302   1.636  0.8586 -0.4143 -0.5831
    6CHTO    O7 2522   5.953   6.420   1.747 -0.0087  0.0244 -0.2468
    6CHTO    H2 2523   5.891   6.490   1.735 -0.7247 -0.7580 -1.2914
    6CHTO   C12 2524   5.766   6.277   1.839  0.1260  0.3343 -0.2099
    6CHTO   H25 2525   5.822   6.276   1.936 -0.0399 -1.4015 -0.1132
    6CHTO    N3 2526   5.659   6.380   1.846 -0.4136  0.1411  0.3758
    6CHTO   H12 2527   5.687   6.466   1.905  0.0447  1.3442 -1.5750
    6CHTO   H13 2528   5.627   6.416   1.749  0.9322 -1.5787 -0.7281
    6CHTO   C15 2529   5.702   6.139   1.819 -0.1466 -0.1661 -0.1164
    6CHTO   H28 2530   5.636   6.140   1.732 -0.2359 -0.2258 -0.0487
    6CHTO   O10 2531   5.614   6.091   1.944  0.3231  0.2771 -0.0138
    6CHTO    H4 2532   5.563   6.020   1.911  2.7946 -1.0697 -1.0439
    6CHTO    O5 2533   5.794   6.034   1.813 -0.2453 -0.3796  0.0040
    6CHTO   C10 2534   5.903   6.044   1.721  0.3339  0.4929  0.0646
    6CHTO   H23 2535   5.855   6.036   1.624  0.9123 -2.3623 -0.0267
    6CHTO   C17 2536   6.000   5.928   1.751 -0.7700 -0.0470  0.0112
    6CHTO   O12 2537   6.042   5.917   1.887 -0.3939 -0.2487  0.0646
    6CHTO    H6 2538   6.010   5.840   1.930  1.9103 -1.3699 -0.1406
    7CHTO  H203 2539   5.216   2.462   2.255 -2.6878  1.1596 -0.4720
    7CHTO   O82 2540   5.239   2.477   2.166  0.1664 -0.4918 -0.0629
    7CHTO  C123 2541   5.380   2.502   2.144  0.6659 -0.2003  0.1662
    7CHTO  H227 2542   5.405   2.608   2.161  1.9635 -0.0661 -2.3373
    7CHTO   O77 2543   5.453   2.417   2.236  0.6481 -0.6819  0.0501
    7CHTO  C118 2544   5.597   2.441   2.237  1.0426  0.1210 -0.0144
    7CHTO  H222 2545   5.624   2.546   2.260  0.2728  0.1048  1.0008
    7CHTO  C125 2546   5.640   2.348   2.362 -0.2549 -0.0657 -0.2262
    7CHTO   O84 2547   5.772   2.376   2.400 -0.0852 -0.4710 -0.1578
    7CHTO  H205 2548   5.829   2.345   2.332 -0.6257 -1.9385  0.0361
    7CHTO  C114 2549   5.656   2.411   2.100 -0.0549  0.2557  0.4496
    7CHTO  H218 2550   5.642   2.306   2.074  1.4677  0.4419 -1.2002
    7CHTO  C116 2551   5.584   2.496   1.991 -0.5387  0.2539  0.3456
    7CHTO  H220 2552   5.603   2.603   2.014  3.0457 -0.0981 -0.7223
    7CHTO   O79 2553   5.647   2.458   1.865 -0.2027  0.2018 -0.4780
    7CHTO  H201 2554   5.604   2.490   1.788  0.1376  1.9838  0.0513
    7CHTO  C120 2555   5.425   2.476   1.991 -0.0618 -0.9672  0.5982
    7CHTO  H224 2556   5.417   2.370   1.958  0.7283 -1.7337  2.7235
    7CHTO   N21 2557   5.363   2.569   1.896 -0.1247  0.0603 -0.1895
    7CHTO  H211 2558   5.350   2.666   1.942  0.5865  0.6380 -1.2014
    7CHTO  H212 2559   5.269   2.524   1.865 -0.3893  1.4934 -1.5087
    7CHTO   O75 2560   5.795   2.447   2.122 -0.8801  0.2330 -0.1821
    7CHTO  C112 2561   5.911   2.309   2.085  0.0441 -0.3639  0.7181
    7CHTO  H216 2562   5.859   2.238   2.019 -1.9780  0.9517  0.8687
    7CHTO   O73 2563   5.945   2.247   2.213  0.3731 -0.6680  0.3081
    7CHTO  C113 2564   6.047   2.147   2.201  0.3631  0.8782  0.0701
    7CHTO  H217 2565   6.001   2.067   2.139  1.8210  0.8410 -1.0003
    7CHTO  C124 2566   6.066   2.095   2.339 -0.3235  0.2795 -0.0345
    7CHTO   O83 2567   6.131   1.969   2.331 -0.0523  0.1895  0.5132
    7CHTO  H204 2568   6.220   1.984   2.305  0.2853 -0.7246  1.1257
    7CHTO  C109 2569   6.176   2.208   2.145  0.2961 -0.6463  1.0877
    7CHTO  H213 2570   6.192   2.299   2.206 -1.0179 -0.6803  1.4982
    7CHTO  C110 2571   6.148   2.270   2.003  0.2142  0.2598  0.1903
    7CHTO  H214 2572   6.119   2.190   1.934  1.7908  0.8261 -1.1669
    7CHTO   O78 2573   6.271   2.322   1.948  0.4303  0.0400 -0.5505
    7CHTO  H200 2574   6.343   2.263   1.953 -0.3213 -0.7436  1.7394
    7CHTO  C111 2575   6.032   2.376   2.021  0.2203 -0.9554 -0.4667
    7CHTO  H215 2576   6.064   2.458   2.086 -2.5267 -0.6135  0.5165
    7CHTO   N19 2577   5.998   2.443   1.892 -0.2445  0.6380  0.4615
    7CHTO  H207 2578   5.949   2.370   1.830  1.6228  0.2016 -0.5497
    7CHTO  H208 2579   6.091   2.483   1.854 -0.6565  0.9062 -0.2575
    7CHTO   O74 2580   6.295   2.124   2.160  0.3439  0.2250 -0.6348
    7CHTO  C115 2581   6.432   2.199   2.212 -1.0467  0.1047 -0.0157
    7CHTO  H219 2582   6.433   2.305   2.190  0.8937  0.9196  3.6094
    7CHTO   O76 2583   6.457   2.193   2.372 -0.6431  0.0494 -0.6296
    7CHTO  C122 2584   6.455   2.060   2.423 -0.3468 -0.0414 -0.4647
    7CHTO  H226 2585   6.369   1.999   2.396  0.6900 -1.1198 -1.3971
    7CHTO  C126 2586   6.461   2.054   2.574 -0.3500 -0.1675 -0.2598
    7CHTO   O85 2587   6.444   1.922   2.631  0.7494  0.1637  0.0547
    7CHTO  H206 2588   6.375   1.873   2.591  0.5417 -2.4927  3.4455
    7CHTO  C121 2589   6.586   1.994   2.362 -0.2568  0.3060  0.3499
    7CHTO  H225 2590   6.662   2.070   2.389  0.2487 -0.1231  0.1501
    7CHTO   O81 2591   6.621   1.866   2.415 -0.3666  0.2857  0.1706
    7CHTO  H202 2592   6.696   1.834   2.368  0.1309  1.0365  0.4456
    7CHTO  C119 2593   6.577   1.989   2.206  0.2031 -1.0708  0.7218
    7CHTO  H223 2594   6.668   1.943   2.168  0.6158  0.6129 -0.3829
    7CHTO  C117 2595   6.557   2.136   2.139  0.7853 -0.0343  0.3421
    7CHTO  H221 2596   6.531   2.134   2.033 -3.0808  1.1269  1.1881
    7CHTO   N20 2597   6.673   2.218   2.149  0.4816  0.3437 -1.0250
    7CHTO  H209 2598   6.658   2.316   2.107  1.8222  1.8048  1.7867
    7CHTO  H210 2599   6.715   2.230   2.248 -0.6398  0.1360 -0.5239
    7CHTO   O80 2600   6.462   1.879   2.158 -0.0135 -0.4002 -0.2977
    7CHTO  C103 2601   6.483   1.812   2.025  0.1332 -0.4379  0.0835
    7CHTO  H190 2602   6.483   1.880   1.939 -0.3072 -0.7781 -0.1872
    7CHTO  C101 2603   6.610   1.714   2.008  0.7034  0.9973 -0.2115
    7CHTO  H188 2604   6.631   1.666   2.103  0.5051  3.0108  0.8639
    7CHTO   O68 2605   6.727   1.788   1.977 -0.1998 -0.6478  0.4674
    7CHTO  H168 2606   6.719   1.833   1.895  1.0649 -1.5135 -0.1574
    7CHTO   C99 2607   6.587   1.595   1.894  0.1223  0.0272 -0.1671
    7CHTO  H186 2608   6.579   1.642   1.794 -1.2124  0.0266 -0.0671
    7CHTO   N17 2609   6.693   1.494   1.880  0.1032  0.2138  0.2815
    7CHTO  H174 2610   6.680   1.438   1.788 -0.5417 -0.0856  0.5571
    7CHTO  H175 2611   6.685   1.422   1.960 -1.4526 -1.6150 -1.4832
    7CHTO   C97 2612   6.447   1.543   1.915  0.5147  0.5541 -0.6318
    7CHTO  H184 2613   6.446   1.494   2.014  2.3449  0.6168 -0.5791
    7CHTO   O64 2614   6.354   1.648   1.902  0.2602 -0.4600 -0.2130
    7CHTO  C104 2615   6.351   1.727   2.021 -0.0139  0.5917  0.5025
    7CHTO  H191 2616   6.348   1.659   2.106  1.9629 -1.2021 -0.7986
    7CHTO  C108 2617   6.221   1.810   2.031  0.4782 -0.5133 -0.4338
    7CHTO   O71 2618   6.106   1.735   2.057  0.5649  0.4085 -0.0917
    7CHTO  H171 2619   6.094   1.733   2.150  1.3228 -2.5642 -0.0101
    7CHTO   O62 2620   6.381   1.471   1.808 -0.4137 -0.1121 -0.1324
    7CHTO   C91 2621   6.390   1.329   1.792  0.1918  0.5608 -0.3591
    7CHTO  H178 2622   6.493   1.297   1.772 -0.0825 -0.9128  0.4429
    7CHTO   C92 2623   6.300   1.286   1.669 -0.1057 -0.2776 -0.1038
    7CHTO  H179 2624   6.331   1.354   1.588 -1.2585 -0.1194 -0.4080
    7CHTO   O66 2625   6.337   1.152   1.626  0.1456 -0.1104 -0.2084
    7CHTO  H166 2626   6.384   1.097   1.685 -1.1045  0.3037  1.2043
    7CHTO   C93 2627   6.139   1.295   1.694  0.1082 -0.4837 -0.4796
    7CHTO  H180 2628   6.106   1.205   1.640 -1.2729 -0.4956  0.3692
    7CHTO   N16 2629   6.075   1.409   1.636 -0.2091 -0.4883  0.0037
    7CHTO  H172 2630   6.093   1.402   1.530  0.6679  3.7710 -0.1902
    7CHTO  H173 2631   6.130   1.496   1.669 -0.8031  0.1029 -0.5538
    7CHTO   C94 2632   6.107   1.273   1.848 -0.3769  0.2660  0.1880
    7CHTO  H181 2633   6.112   1.365   1.907  1.5059 -0.2555  0.8580
    7CHTO   O61 2634   6.209   1.183   1.903 -0.1081 -0.3842 -0.1529
    7CHTO   C95 2635   6.337   1.241   1.920  1.1200 -1.1140  0.2368
    7CHTO  H182 2636   6.338   1.298   2.012 -1.0608 -0.0222 -0.3771
    7CHTO  C106 2637   6.442   1.124   1.943  0.1011  0.0407  0.0765
    7CHTO   O69 2638   6.572   1.170   1.980  0.6745 -0.3287  0.1012
    7CHTO  H169 2639   6.575   1.225   2.055 -0.1175  1.1948 -0.9606
    7CHTO   O63 2640   5.982   1.210   1.868 -0.2128  0.1659 -0.3600
    7CHTO   C96 2641   5.913   1.278   1.996  0.6833  0.2055 -0.7627
    7CHTO  H183 2642   5.916   1.384   1.971 -0.8585 -0.0705 -2.1650
    7CHTO   C98 2643   5.977   1.255   2.138  0.0965  0.1436 -0.3017
    7CHTO  H185 2644   6.081   1.290   2.148  0.0008  0.0612  1.0929
    7CHTO   O67 2645   5.906   1.346   2.221 -0.5479 -0.1791 -0.2896
    7CHTO  H167 2646   5.909   1.431   2.182  0.2716 -0.3408 -0.5884
    7CHTO  C102 2647   5.952   1.109   2.198 -0.6669  0.0451  0.3805
    7CHTO  H189 2648   5.963   1.119   2.307 -2.6941  0.5652  0.5656
    7CHTO   N18 2649   6.043   0.998   2.166  0.5504 -0.4029  0.1747
    7CHTO  H176 2650   6.039   0.909   2.228  3.3383 -1.4315 -1.0645
    7CHTO  H177 2651   6.146   1.028   2.167 -0.0666  1.9170  3.4523
    7CHTO  C105 2652   5.805   1.060   2.165  0.1539  0.1214 -0.4119
    7CHTO  H192 2653   5.806   0.994   2.079 -0.4079 -0.2278 -0.1557
    7CHTO   O65 2654   5.718   1.162   2.128 -0.0648 -0.0403  0.5936
    7CHTO  C100 2655   5.761   1.217   1.998  0.3910 -0.9660  0.1883
    7CHTO  H187 2656   5.774   1.131   1.931 -0.1365 -0.2187 -0.8824
    7CHTO  C107 2657   5.642   1.312   1.953 -0.2021 -0.8513 -0.1760
    7CHTO   O70 2658   5.687   1.370   1.832 -0.2048  0.3055  0.1871
    7CHTO  H170 2659   5.660   1.458   1.814  0.8471  0.1705 -2.3307
    7CHTO   O57 2660   5.750   0.983   2.290  0.3137  0.3651 -0.7565
    7CHTO   C85 2661   5.723   0.844   2.275  0.3557  0.5073  0.0548
    7CHTO  H157 2662   5.776   0.809   2.184 -0.4849 -2.1729  0.5622
    7CHTO   C83 2663   5.561   0.823   2.263 -0.4879  0.4325 -0.5722
    7CHTO  H155 2664   5.528   0.871   2.171  3.8068 -0.2072 -2.5665
    7CHTO   O56 2665   5.491   0.882   2.376 -0.3119 -0.0936 -0.0534
    7CHTO  H135 2666   5.488   0.976   2.382  0.5186 -0.1303  1.1972
    7CHTO   C81 2667   5.536   0.663   2.252  0.2208 -0.6075 -0.3722
    7CHTO  H153 2668   5.579   0.623   2.160  0.4692  0.9064 -0.9208
    7CHTO   N14 2669   5.394   0.635   2.239 -0.0561 -0.2018 -0.0184
    7CHTO  H141 2670   5.365   0.690   2.152  0.3314  2.0243  1.2314
    7CHTO  H142 2671   5.335   0.673   2.320  0.2851 -2.8422  1.5207
    7CHTO   C79 2672   5.593   0.578   2.371 -1.1433 -0.5711  0.3768
    7CHTO  H151 2673   5.596   0.475   2.337  0.0157  0.4963 -2.8902
    7CHTO   O52 2674   5.731   0.615   2.404  0.1388 -0.2099 -0.1429
    7CHTO   C86 2675   5.761   0.758   2.406  0.2177  0.6174 -0.5064
    7CHTO  H158 2676   5.699   0.796   2.490 -3.7799  0.0287 -3.0607
    7CHTO   C90 2677   5.912   0.769   2.451  0.2098  0.4309  0.2485
    7CHTO   O60 2678   5.932   0.722   2.587  0.1576  0.1356 -0.2736
    7CHTO  H138 2679   6.007   0.665   2.589  2.3539  2.8958 -0.9290
    7CHTO   O50 2680   5.521   0.573   2.494 -0.1373 -0.2222  0.1284
    7CHTO   C73 2681   5.487   0.464   2.584 -0.0982 -0.2286  0.0144
    7CHTO  H145 2682   5.574   0.398   2.584 -0.5710 -0.8703 -0.9795
    7CHTO   C74 2683   5.367   0.385   2.526 -0.2758  0.0970 -0.0174
    7CHTO  H146 2684   5.388   0.360   2.421  0.1061 -1.6062  0.4599
    7CHTO   O54 2685   5.369   0.256   2.586  0.1784 -0.4875  0.1792
    7CHTO  H133 2686   5.288   0.208   2.583 -0.0712 -0.0995  0.6652
    7CHTO   C75 2687   5.236   0.465   2.542  0.7105 -0.0036 -0.2257
    7CHTO  H147 2688   5.251   0.563   2.494 -1.4369 -0.5092 -1.9812
    7CHTO   N13 2689   5.118   0.398   2.489 -0.6241 -0.3339 -0.3497
    7CHTO  H139 2690   5.149   0.305   2.444  0.2212 -0.0488 -0.3716
    7CHTO  H140 2691   5.054   0.371   2.572  2.2603  0.3862  2.1771
    7CHTO   C76 2692   5.223   0.504   2.693 -0.7992 -0.1393 -0.8015
    7CHTO  H148 2693   5.209   0.413   2.752  1.8055  0.1900  0.3668
    7CHTO   O49 2694   5.337   0.578   2.750 -0.0847  0.2641  0.1156
    7CHTO   C77 2695   5.464   0.513   2.732  0.0633  0.2278  0.0905
    7CHTO  H149 2696   5.474   0.426   2.797 -1.1435 -0.2763 -0.3843
    7CHTO   C88 2697   5.578   0.604   2.775 -0.3929  0.2833 -0.7785
    7CHTO   O58 2698   5.715   0.554   2.741  0.0383 -0.6504 -0.2008
    7CHTO  H136 2699   5.756   0.639   2.745 -2.2671  0.4462  1.0607
    7CHTO   O51 2700   5.099   0.603   2.712  0.0078 -0.0619  0.0444
    7CHTO   C78 2701   5.048   0.615   2.866  0.3526  0.1180 -0.5914
    7CHTO  H150 2702   5.132   0.591   2.934  0.5122  0.1745 -0.7680
    7CHTO   C80 2703   4.933   0.517   2.888 -0.3459  0.2231 -0.4221
    7CHTO  H152 2704   4.847   0.548   2.826 -0.1766  1.8628  0.1423
    7CHTO   O55 2705   4.979   0.385   2.856 -0.2910 -0.4366 -0.3825
    7CHTO  H134 2706   4.914   0.326   2.888  1.3936 -2.6044 -0.8120
    7CHTO   C84 2707   4.889   0.528   3.042  0.5744  0.4408  0.4315
    7CHTO  H156 2708   4.978   0.509   3.101 -0.7121  0.0535  2.2847
    7CHTO   N15 2709   4.781   0.428   3.074 -0.0444  0.4276  0.1432
    7CHTO  H143 2710   4.820   0.332   3.049 -0.1124  0.5261 -0.3384
    7CHTO  H144 2711   4.763   0.430   3.180 -0.9259 -1.6293  0.0504
    7CHTO   C87 2712   4.842   0.672   3.081 -0.0842  0.0911 -0.4346
    7CHTO  H159 2713   4.751   0.689   3.024  0.3184  2.3357 -0.4817
    7CHTO   O53 2714   4.961   0.785   3.026 -0.6902  0.3864  0.3063
    7CHTO   C82 2715   5.000   0.760   2.888 -0.0041 -0.1105  0.6761
    7CHTO  H154 2716   4.910   0.774   2.828  0.3776 -0.2228  0.0800
    7CHTO   C89 2717   5.112   0.847   2.835  0.5016 -0.0183  0.4316
    7CHTO   O59 2718   5.073   0.982   2.823  0.0697 -0.5240 -0.1266
    7CHTO  H137 2719   5.027   0.990   2.742  0.3751 -0.2984 -0.2811
    7CHTO   O45 2720   4.815   0.683   3.223 -0.2223  0.6420 -0.1498
    7CHTO   C67 2721   4.885   0.774   3.309 -0.4062 -1.0155 -0.5088
    7CHTO  H124 2722   4.979   0.803   3.262 -1.2863  0.6254 -1.2945
    7CHTO   C65 2723   4.805   0.911   3.345  0.1902  0.4237  0.0748
    7CHTO  H122 2724   4.700   0.882   3.343  0.2516  0.2022 -2.8647
    7CHTO   O44 2725   4.824   0.999   3.233  0.6058  0.1281  0.5466
    7CHTO  H102 2726   4.790   0.971   3.150  0.0910 -0.2463  0.8809
    7CHTO   C63 2727   4.843   0.975   3.485  0.7844  0.2327 -0.2285
    7CHTO  H120 2728   4.796   0.918   3.565  1.7872  0.3872  0.4791
    7CHTO   N11 2729   4.792   1.118   3.510 -0.3403 -0.0465 -0.1309
    7CHTO  H108 2730   4.735   1.120   3.601 -0.0713  1.7173  0.0191
    7CHTO  H109 2731   4.874   1.182   3.534 -0.4093 -0.4508  1.2204
    7CHTO   C61 2732   4.994   0.955   3.511  0.4295 -0.1952 -0.8058
    7CHTO  H118 2733   5.010   0.983   3.616  0.8949 -0.1833 -0.8787
    7CHTO   O40 2734   5.031   0.815   3.500 -0.1226  0.2355  0.3466
    7CHTO   C68 2735   4.940   0.712   3.440  0.2315  0.5091 -0.0964
    7CHTO  H125 2736   4.861   0.685   3.513  1.4048 -0.2675  0.9067
    7CHTO   C72 2737   5.029   0.592   3.433 -0.3361  0.6001  0.7229
    7CHTO   O48 2738   5.117   0.590   3.314 -0.4784 -0.4527 -0.3245
    7CHTO  H105 2739   5.163   0.509   3.313 -0.8230 -0.6501 -0.0245
    7CHTO   O38 2740   5.076   1.025   3.420  0.0528 -0.4729 -0.1623
    7CHTO   C55 2741   5.216   1.054   3.455 -0.1813  0.3264 -0.0390
    7CHTO  H112 2742   5.249   0.989   3.537  0.9142 -0.3281 -0.9734
    7CHTO   C56 2743   5.231   1.202   3.486  0.2917 -0.2154 -0.1860
    7CHTO  H113 2744   5.191   1.259   3.401 -4.2219 -2.8832 -0.0216
    7CHTO   O42 2745   5.136   1.230   3.587  0.3646  0.2257  0.1107
    7CHTO  H100 2746   5.046   1.223   3.563  0.5967  1.1006 -1.0701
    7CHTO   C57 2747   5.373   1.251   3.514  0.3744  0.5000 -1.0942
    7CHTO  H114 2748   5.410   1.228   3.614  0.8664 -1.6271 -1.7431
    7CHTO   N10 2749   5.381   1.399   3.518  0.3914  0.7720  0.0340
    7CHTO  H106 2750   5.485   1.416   3.495  1.9442 -4.7186  2.0804
    7CHTO  H107 2751   5.318   1.432   3.436 -1.3911 -1.5123  0.4380
    7CHTO   C58 2752   5.476   1.198   3.412  0.3406 -0.0492  0.4349
    7CHTO  H115 2753   5.465   1.250   3.314 -0.6830 -0.8911  0.0946
    7CHTO   O37 2754   5.452   1.062   3.380 -0.0396  0.1565 -0.1145
    7CHTO   C59 2755   5.318   1.028   3.341 -0.2386  0.3731  0.4217
    7CHTO  H116 2756   5.286   1.092   3.259  3.1359 -0.5689 -1.6899
    7CHTO   C70 2757   5.296   0.882   3.296  0.4934 -0.0675 -0.1068
    7CHTO   O46 2758   5.394   0.853   3.197  0.6949 -0.0073 -0.3460
    7CHTO  H103 2759   5.406   0.760   3.193 -0.8017 -0.1517 -2.8417
    7CHTO   O39 2760   5.642   1.204   3.453 -0.2170  0.4033 -0.8001
    7CHTO   C60 2761   5.732   1.131   3.370  0.2557 -0.4436 -0.6019
    7CHTO  H117 2762   5.723   1.023   3.383  0.9880 -0.2569  1.5347
    7CHTO   C62 2763   5.706   1.150   3.216  0.5051 -0.3135 -0.7247
    7CHTO  H119 2764   5.606   1.114   3.184 -0.0571  2.9423 -2.9222
    7CHTO   O43 2765   5.702   1.291   3.191 -0.1079 -0.0456  0.8243
    7CHTO  H101 2766   5.679   1.314   3.103 -0.5639  0.8938  1.1846
    7CHTO   C66 2767   5.813   1.076   3.127 -0.0297  0.0711 -0.6161
    7CHTO  H123 2768   5.792   0.970   3.144 -1.7766  0.7116  1.5045
    7CHTO   N12 2769   5.798   1.090   2.983  0.4374  0.2513 -0.8357
    7CHTO  H110 2770   5.718   1.025   2.952 -0.1296  0.3013  0.4952
    7CHTO  H111 2771   5.784   1.197   2.976  0.3921  0.4724  1.8661
    7CHTO   C69 2772   5.958   1.105   3.184  0.8194  0.5550 -0.0856
    7CHTO  H126 2773   5.992   1.207   3.156  1.8853  0.0246 -0.7616
    7CHTO   O41 2774   5.973   1.078   3.329 -0.0713 -0.5374 -0.3001
    7CHTO   C64 2775   5.883   1.164   3.408  0.3093  0.5549  0.5346
    7CHTO  H121 2776   5.906   1.269   3.377 -0.5800  0.2137 -1.3686
    7CHTO   C71 2777   5.901   1.139   3.553 -0.2191 -0.0096 -0.1244
    7CHTO   O47 2778   6.039   1.153   3.596  0.6954  0.3057 -0.0635
    7CHTO  H104 2779   6.080   1.070   3.581 -2.6864 -1.3756 -0.3917
    7CHTO   O34 2780   6.052   1.009   3.115  0.7090  0.1999  0.1723
    7CHTO   C49 2781   6.135   0.924   3.016 -0.0250  0.7101 -0.7113
    7CHTO   H91 2782   6.206   0.873   3.082 -1.7298 -1.0489 -0.1613
    7CHTO   C47 2783   6.208   1.016   2.922 -0.3685 -0.3007  0.5968
    7CHTO   H89 2784   6.297   1.050   2.979  1.4795  0.0663 -2.3961
    7CHTO   O33 2785   6.127   1.125   2.892  0.1052 -0.1045 -0.7603
    7CHTO   H70 2786   6.169   1.206   2.867 -0.4905  0.8518  1.2440
    7CHTO   C45 2787   6.247   0.946   2.785  0.1789  0.5918  0.3461
    7CHTO   H87 2788   6.172   0.962   2.706  0.0278 -0.0630  0.3553
    7CHTO    N8 2789   6.372   1.005   2.733 -0.6652  0.6483  0.0525
    7CHTO   H75 2790   6.353   1.111   2.721 -3.3375  0.2456  0.5034
    7CHTO   H76 2791   6.452   1.002   2.806 -1.6919  1.9835  1.2685
    7CHTO   C43 2792   6.233   0.784   2.791 -0.3780  0.0144 -0.2604
    7CHTO   H85 2793   6.249   0.746   2.690 -0.3444 -1.8985  0.4398
    7CHTO   O29 2794   6.100   0.748   2.842  0.5449  0.1864  0.5973
    7CHTO   C50 2795   6.044   0.822   2.945  0.3282  0.4553  0.5145
    7CHTO   H92 2796   5.957   0.880   2.910 -0.9199  0.2816  3.2386
    7CHTO   C54 2797   5.984   0.728   3.052  0.1507  0.1721  0.6556
    7CHTO   O36 2798   5.910   0.618   3.002  1.0111 -0.0646 -0.0075
    7CHTO   H72 2799   5.873   0.631   2.917 -1.8201  0.0136  1.1728
    7CHTO   O27 2800   6.334   0.719   2.868  0.1189 -0.5045  0.4543
    7CHTO   C37 2801   6.390   0.603   2.927 -0.3942 -0.2056 -0.5586
    7CHTO   H79 2802   6.394   0.614   3.036  0.8043 -0.2896 -0.5894
    7CHTO   C38 2803   6.302   0.483   2.907  0.9576 -0.4633  0.1982
    7CHTO   H80 2804   6.271   0.486   2.801  3.4306  4.3185 -0.5520
    7CHTO   O31 2805   6.181   0.496   2.985  0.1663 -0.0522 -0.9691
    7CHTO   H68 2806   6.127   0.423   2.965 -0.0473  0.1290 -1.0594
    7CHTO   C39 2807   6.371   0.344   2.951 -0.3038  0.5075  0.4969
    7CHTO   H81 2808   6.373   0.348   3.060 -1.0671  0.5850  0.5066
    7CHTO    N7 2809   6.297   0.219   2.911 -0.1067 -0.1486  0.2002
    7CHTO   H73 2810   6.349   0.134   2.952 -0.2054 -0.2792  0.0554
    7CHTO   H74 2811   6.190   0.223   2.928  0.1433  2.6731  1.2635
    7CHTO   C40 2812   6.517   0.344   2.899 -0.2921 -0.1938 -0.3486
    7CHTO   H82 2813   6.533   0.315   2.795 -0.2897  1.1807 -0.7365
    7CHTO   O26 2814   6.582   0.461   2.933 -0.2582 -0.1500  0.0411
    7CHTO   C41 2815   6.532   0.580   2.869 -0.1646  0.3204 -0.5419
    7CHTO   H83 2816   6.528   0.554   2.762  2.8657 -1.3922 -0.2903
    7CHTO   C52 2817   6.633   0.695   2.883  0.5005  0.7114  0.0905
    7CHTO   O35 2818   6.626   0.789   2.785 -0.1468 -1.0175  0.2856
    7CHTO   H71 2819   6.687   0.858   2.803  0.4784 -1.1109 -1.4376
    7CHTO   O28 2820   6.586   0.240   2.972  0.2758  0.1056 -0.3258
    7CHTO   C42 2821   6.730   0.198   2.938 -0.0541 -0.4063  0.4413
    7CHTO   H84 2822   6.746   0.147   3.034  0.7792  2.1697  1.7369
    7CHTO   C44 2823   6.843   0.313   2.929 -0.1403  0.1302  0.7261
    7CHTO   H86 2824   6.817   0.386   2.852  1.6970 -0.1879 -0.2289
    7CHTO   O32 2825   6.848   0.382   3.047  0.5793  0.2979  0.3056
    7CHTO   H69 2826   6.783   0.449   3.057  1.2527  0.7351  1.9257
    7CHTO   C48 2827   6.982   0.252   2.883  0.5695  0.2600  0.2350
    7CHTO   H90 2828   7.024   0.188   2.961 -1.1375  0.2304  1.1598
    7CHTO    N9 2829   7.083   0.360   2.871 -0.6934 -0.0544  0.2154
    7CHTO   H77 2830   7.145   0.344   2.784 -0.6599  1.0858  0.0241
    7CHTO   H78 2831   7.154   0.361   2.952  0.4358 -0.2693 -0.7605
    7CHTO   C51 2832   6.959   0.168   2.747 -0.0688  0.0723  0.0470
    7CHTO   H93 2833   6.917   0.237   2.674  1.6133  1.8337  0.6773
    7CHTO   O30 2834   6.868   0.058   2.777 -0.1052  0.2421 -0.0355
    7CHTO   C46 2835   6.730   0.091   2.825  0.1855 -0.5980  0.4496
    7CHTO   H88 2836   6.675   0.129   2.739 -0.0540  2.2340  1.7987
    7CHTO   C53 2837   6.658  -0.045   2.857 -0.1184  0.0038  0.1035
    7CHTO   O72 2838   6.659  -0.138   2.750 -0.0538 -0.0999 -0.1823
    7CHTO  H199 2839   6.573  -0.164   2.725  0.2354 -3.8794  2.2891
    7CHTO   O22 2840   7.080   0.091   2.710 -0.2812  0.0911 -0.0518
    7CHTO   C31 2841   7.088   0.031   2.574  0.6112 -0.3093  0.7452
    7CHTO   H59 2842   7.186  -0.021   2.567  0.6224 -0.1377 -0.5862
    7CHTO   C29 2843   6.978  -0.074   2.546 -1.0388 -0.1198 -0.0419
    7CHTO   H57 2844   6.883  -0.021   2.560 -0.7791  0.5443 -0.7340
    7CHTO   O21 2845   6.996  -0.181   2.646 -0.3271 -0.3035  0.2378
    7CHTO   H37 2846   7.070  -0.233   2.621 -0.7806 -1.0858  0.4912
    7CHTO   C27 2847   6.994  -0.126   2.399  0.4161 -0.3020 -0.1266
    7CHTO   H55 2848   7.089  -0.179   2.386  0.9686  1.0945 -2.1384
    7CHTO    N5 2849   6.890  -0.220   2.362 -0.4779 -0.2027  1.2646
    7CHTO   H43 2850   6.801  -0.197   2.418  0.0346  1.9800  1.2075
    7CHTO   H44 2851   6.909  -0.324   2.387 -0.5047 -0.2065  1.2675
    7CHTO   C25 2852   6.999  -0.004   2.293 -0.1760  0.0111 -0.2389
    7CHTO   H53 2853   6.910   0.060   2.295  0.1128  0.4029  1.3544
    7CHTO   O17 2854   7.107   0.088   2.324 -0.3484 -0.2711  0.1911
    7CHTO   C32 2855   7.094   0.139   2.460  0.1977  0.3731 -0.3976
    7CHTO   H60 2856   7.003   0.198   2.468  0.2396  0.7455 -2.4622
    7CHTO   C36 2857   7.203   0.242   2.478 -0.1666 -0.1366  0.1885
    7CHTO   O25 2858   7.193   0.348   2.383 -0.1906 -0.1466 -0.0878
    7CHTO   H40 2859   7.186   0.423   2.439  0.8740  1.0727 -1.5315
    7CHTO   O15 2860   7.040  -0.066   2.158  0.2803 -0.4906  0.1618
    7CHTO   C19 2861   7.023   0.024   2.044  0.4305 -0.0519 -1.0311
    7CHTO   H47 2862   7.030  -0.036   1.952  0.3087 -1.2399 -0.2802
    7CHTO   C20 2863   6.882   0.090   2.024  0.3350 -0.0125 -0.0861
    7CHTO   H48 2864   6.840   0.125   2.119 -3.3188  1.7243 -2.2442
    7CHTO   O19 2865   6.786  -0.004   1.968  0.1661  0.0302 -0.2920
    7CHTO   H35 2866   6.698   0.026   1.982 -0.5634 -1.4439 -1.5514
    7CHTO   C21 2867   6.867   0.230   1.943  0.5769 -0.0504 -0.3579
    7CHTO   H49 2868   6.857   0.207   1.837  2.3442  0.2914 -0.6070
    7CHTO    N4 2869   6.741   0.308   1.972  0.7844  0.4372 -0.2050
    7CHTO   H41 2870   6.654   0.245   1.961 -0.4874  2.3298 -1.2773
    7CHTO   H42 2871   6.726   0.391   1.903 -0.1742  1.5293  1.2823
    7CHTO   C22 2872   6.993   0.316   1.954 -0.1497  0.5834  0.1882
    7CHTO   H50 2873   6.995   0.359   2.054 -0.6836  1.7255 -0.2874
    7CHTO   O14 2874   7.109   0.230   1.932 -0.2348 -0.0621  0.0465
    7CHTO   C23 2875   7.132   0.131   2.037 -0.1480 -0.2665  0.2836
    7CHTO   H51 2876   7.138   0.190   2.130 -3.9653  0.6526  0.0384
    7CHTO   C34 2877   7.268   0.063   2.006  0.4435 -0.4579  0.0357
    7CHTO   O23 2878   7.366   0.166   2.017 -0.5302 -0.3782  0.0143
    7CHTO   H38 2879   7.453   0.130   2.025 -0.2032  0.5348  0.5728
    7CHTO   O16 2880   6.985   0.419   1.853  0.4413  0.2474 -0.2810
    7CHTO   C24 2881   7.010   0.569   1.901  0.3177 -0.3743  0.4134
    7CHTO   H52 2882   6.991   0.584   2.007 -0.3028  2.0260 -0.0178
    7CHTO   C26 2883   6.903   0.654   1.830 -0.2532  0.6773 -0.4095
    7CHTO   H54 2884   6.910   0.631   1.721  0.8447 -2.3607  0.2579
    7CHTO   O20 2885   6.766   0.604   1.858  0.0885  0.7368 -0.2899
    7CHTO   H36 2886   6.759   0.598   1.951  2.1081 -0.5468 -0.1750
    7CHTO   C30 2887   6.933   0.809   1.861 -0.6095 -0.9706 -0.8094
    7CHTO   H58 2888   6.922   0.826   1.969 -1.1452  2.2870 -1.3258
    7CHTO    N6 2889   6.837   0.899   1.791  0.1223  0.2875  0.2541
    7CHTO   H45 2890   6.847   0.891   1.683  1.7671  0.7316  0.3606
    7CHTO   H46 2891   6.736   0.881   1.826  0.3436 -3.3158 -0.7594
    7CHTO   C33 2892   7.084   0.844   1.831  1.2343  0.0969  0.1109
    7CHTO   H61 2893   7.104   0.822   1.726 -0.3192 -2.0790  0.2393
    7CHTO   O18 2894   7.170   0.759   1.909 -0.3659  0.3008  0.3763
    7CHTO   C28 2895   7.156   0.619   1.874  0.2676  0.5772  0.4355
    7CHTO   H56 2896   7.186   0.596   1.771  1.8792 -2.5713  1.5558
    7CHTO   C35 2897   7.273   0.537   1.933  0.3625 -0.4521 -0.5874
    7CHTO   O24 2898   7.405   0.594   1.929 -0.5360 -0.0513 -0.6461
    7CHTO   H39 2899   7.426   0.656   1.996  0.2675 -0.6079 -0.3719
    7CHTO    O9 2900   7.109   0.987   1.860 -0.6611  0.3112  0.0424
    7CHTO   C13 2901   7.268   1.042   1.796 -0.3527 -0.4535 -0.1412
    7CHTO   H26 2902   7.282   0.988   1.700 -0.0327  1.2037 -1.0553
    7CHTO   C11 2903   7.380   1.004   1.902 -0.2878  0.8937  0.0551
    7CHTO   H24 2904   7.383   0.895   1.915  1.1450  0.9283  0.0361
    7CHTO    O8 2905   7.353   1.063   2.032 -0.3756 -0.6425 -0.0214
    7CHTO    H3 2906   7.378   1.153   2.038  1.1376 -0.5203 -5.4516
    7CHTO    C9 2907   7.514   1.051   1.836  1.1441  0.3607  0.8680
    7CHTO   H22 2908   7.527   0.994   1.743  0.9717  2.5475 -0.5398
    7CHTO    N2 2909   7.635   1.009   1.915  0.4199  0.1992 -0.0756
    7CHTO   H10 2910   7.642   0.902   1.931 -1.1451  0.0196 -0.4708
    7CHTO   H11 2911   7.726   1.054   1.877  0.7657 -1.0946 -0.8404
    7CHTO    C7 2912   7.509   1.210   1.807  0.1535 -1.1228  0.3511
    7CHTO   H20 2913   7.600   1.217   1.743  0.1254 -1.8973  0.2256
    7CHTO    O4 2914   7.384   1.249   1.732  0.7186  0.3663 -0.2390
    7CHTO   C14 2915   7.256   1.192   1.772 -0.2565 -0.3753  0.1621
    7CHTO   H27 2916   7.185   1.206   1.687  0.5211 -1.3016 -0.6502
    7CHTO   C18 2917   7.193   1.271   1.892  0.4918 -0.1487 -0.3156
    7CHTO   O13 2918   7.134   1.391   1.842  0.2060  0.1300  0.0482
    7CHTO    H7 2919   7.044   1.403   1.867 -0.1689  0.4242 -1.4336
    7CHTO    O2 2920   7.523   1.313   1.958  0.0196  0.3638  0.4506
    7CHTO    C1 2921   7.587   1.442   1.954 -0.6688  0.1222  0.5233
    7CHTO   H14 2922   7.562   1.496   1.860  0.2797  0.1672  0.2825
    7CHTO    C2 2923   7.751   1.426   1.965  0.8212  0.3038  0.6892
    7CHTO   H15 2924   7.773   1.375   2.060  0.6280 -0.1292  0.5018
    7CHTO    O6 2925   7.787   1.353   1.848  0.2613 -0.3045 -0.9708
    7CHTO    H1 2926   7.871   1.310   1.848 -0.5261 -1.9009 -2.0502
    7CHTO    C3 2927   7.819   1.575   1.966 -0.0439 -0.8044  0.5287
    7CHTO   H16 2928   7.792   1.624   1.871  2.9926 -2.3483 -1.1994
    7CHTO    N1 2929   7.966   1.563   1.965  0.6426 -0.1147  0.2633
    7CHTO    H8 2930   7.990   1.516   1.870  0.2005 -1.1674  0.6590
    7CHTO    H9 2931   8.014   1.659   1.970 -0.0420  0.3136 -1.1554
    7CHTO    C4 2932   7.753   1.663   2.079 -0.0123 -0.2444 -0.0971
    7CHTO   H17 2933   7.771   1.612   2.174  2.2509  1.1754  0.2775
    7CHTO    O1 2934   7.614   1.663   2.061  0.0086 -0.6007 -0.0173
    7CHTO    C5 2935   7.540   1.538   2.075 -0.7695  0.8096  0.5818
    7CHTO   H18 2936   7.576   1.502   2.171 -0.3379 -1.0311 -0.2465
    7CHTO   C16 2937   7.383   1.557   2.078 -0.8885  0.0324 -0.8103
    7CHTO   O11 2938   7.340   1.618   1.956 -0.5384  0.3635  0.3937
    7CHTO    H5 2939   7.290   1.555   1.907 -1.0551  0.4323  0.8301
    7CHTO    O3 2940   7.794   1.799   2.090  0.1768  0.4839  0.2451
    7CHTO    C6 2941   7.870   1.856   2.201 -0.3512 -0.3917 -0.3911
    7CHTO   H19 2942   7.915   1.780   2.265 -0.2388  0.0348  0.0414
    7CHTO    C8 2943   7.986   1.941   2.155  0.8324  0.1068 -0.1489
    7CHTO   H21 2944   7.951   2.020   2.088  0.7419  0.2387  0.0537
    7CHTO    O7 2945   8.083   1.849   2.093 -0.5434  0.4554 -0.3359
    7CHTO    H2 2946   8.126   1.896   2.024  1.4312 -0.4398  0.2503
    7CHTO   C12 2947   8.057   2.021   2.272 -0.0791 -0.9625  0.1317
    7CHTO   H25 2948   8.101   1.939   2.332 -2.2891 -0.4505  2.5709
    7CHTO    N3 2949   8.164   2.110   2.211 -0.2590  0.0625 -0.0814
    7CHTO   H12 2950   8.150   2.216   2.230 -3.0205 -0.6710  2.4513
    7CHTO   H13 2951   8.265   2.083   2.238  0.4041  1.4046 -1.1349
    7CHTO   C15 2952   7.947   2.089   2.356 -0.5050 -0.6680 -0.1725
    7CHTO   H28 2953   7.910   2.182   2.313  1.9191  0.2144 -0.4767
    7CHTO   O10 2954   8.001   2.128   2.475  0.3642 -0.3469 -0.2428
    7CHTO    H4 2955   7.935   2.160   2.534  0.9056 -1.6566  1.1120
    7CHTO    O5 2956   7.847   1.998   2.404  0.7737 -0.6788  0.1377
    7CHTO   C10 2957   7.775   1.939   2.293 -0.3691  0.2806 -0.6392
    7CHTO   H23 2958   7.733   2.026   2.242 -0.1558 -0.1413 -1.5454
    7CHTO   C17 2959   7.657   1.845   2.345  0.0837  0.0488 -0.7714
    7CHTO   O12 2960   7.572   1.909   2.435  0.2627 -0.1445 -0.0676
    7CHTO    H6 2961   7.483   1.906   2.404 -1.0119 -2.1131  3.4291
    8CHTO  H203 2962   7.498   8.840   0.866 -0.9438 -0.5458  0.4006
    8CHTO   O82 2963   7.517   8.889   0.943 -0.4042  0.2814 -0.2464
    8CHTO  C123 2964   7.455   8.834   1.062  0.5537 -0.3362  0.6056
    8CHTO  H227 2965   7.518   8.855   1.150  0.7538  1.7927 -0.0168
    8CHTO   O77 2966   7.324   8.905   1.055 -0.1988 -0.4676  0.1229
    8CHTO  C118 2967   7.230   8.874   1.156  0.2659  0.4930 -0.7228
    8CHTO  H222 2968   7.256   8.904   1.259  0.5314 -0.3700 -0.5313
    8CHTO  C125 2969   7.101   8.958   1.126 -0.7739 -0.0629  0.1556
    8CHTO   O84 2970   7.052   8.930   0.994  0.4826  0.1398 -0.4668
    8CHTO  H205 2971   7.122   8.916   0.932  1.9345  0.5372  1.0648
    8CHTO  C114 2972   7.197   8.725   1.159 -0.4717  0.0795 -0.4213
    8CHTO  H218 2973   7.141   8.704   1.067  0.7539  0.7649 -1.3322
    8CHTO  C116 2974   7.334   8.645   1.168 -0.4865  0.0978  0.2767
    8CHTO  H220 2975   7.380   8.677   1.264  0.1536 -0.7380  0.2510
    8CHTO   O79 2976   7.315   8.502   1.188  0.2473  0.2434 -0.0934
    8CHTO  H201 2977   7.390   8.453   1.161  1.7707  1.2060  2.1848
    8CHTO  C120 2978   7.427   8.679   1.049 -0.6630  0.1958 -0.3264
    8CHTO  H224 2979   7.372   8.652   0.956 -1.2092 -1.1044  0.3600
    8CHTO   N21 2980   7.557   8.602   1.045  0.0627  0.0307 -0.1706
    8CHTO  H211 2981   7.630   8.664   1.094 -0.8860  0.2961  0.9297
    8CHTO  H212 2982   7.577   8.587   0.940 -1.8941  0.5386 -0.6400
    8CHTO   O75 2983   7.107   8.702   1.269  0.1080  0.2941 -0.2107
    8CHTO  C112 2984   6.986   8.610   1.246  0.3341 -0.1338  0.1203
    8CHTO  H216 2985   7.029   8.515   1.211  1.9757  0.7742 -0.3943
    8CHTO   O73 2986   6.906   8.677   1.142  0.3109  0.7821 -0.7000
    8CHTO  C113 2987   6.778   8.619   1.133  0.5258  0.5857  0.7334
    8CHTO  H217 2988   6.806   8.517   1.098  0.9134  1.0116 -0.2311
    8CHTO  C124 2989   6.717   8.689   1.011  0.2475  0.1659 -0.3249
    8CHTO   O83 2990   6.613   8.610   0.956  0.0425  0.3642 -0.2489
    8CHTO  H204 2991   6.589   8.635   0.869  0.5830  2.3823  0.1592
    8CHTO  C109 2992   6.706   8.641   1.267  0.2508 -0.1034  0.2180
    8CHTO  H213 2993   6.735   8.742   1.300  1.3391  0.0195 -1.0395
    8CHTO  C110 2994   6.773   8.548   1.374  0.7165  0.5549 -1.1510
    8CHTO  H214 2995   6.764   8.446   1.338 -2.2966  0.1725  0.5393
    8CHTO   O78 2996   6.704   8.554   1.499  0.9524 -0.2113 -0.4959
    8CHTO  H200 2997   6.737   8.483   1.551 -0.3098 -0.6368 -0.2511
    8CHTO  C111 2998   6.918   8.593   1.389  0.1617  0.2689 -0.2769
    8CHTO  H215 2999   6.919   8.695   1.429 -2.4455  0.2969 -0.1759
    8CHTO   N19 3000   6.998   8.507   1.480 -0.3544 -0.4854 -0.0212
    8CHTO  H207 3001   7.100   8.541   1.489 -0.5034  0.2106 -0.9033
    8CHTO  H208 3002   6.994   8.406   1.441 -0.9727 -0.1913 -0.7211
    8CHTO   O74 3003   6.556   8.634   1.267  0.6877 -0.4852  0.2484
    8CHTO  C115 3004   6.460   8.502   1.235 -0.5311 -0.1637 -0.0726
    8CHTO  H219 3005   6.506   8.435   1.163 -0.1444  2.3417 -2.2473
    8CHTO   O76 3006   6.440   8.413   1.359 -0.1470  0.2414 -0.3836
    8CHTO  C122 3007   6.370   8.490   1.460 -0.3394 -0.2319  0.4442
    8CHTO  H226 3008   6.425   8.581   1.482  0.1502 -0.0530 -1.4825
    8CHTO  C126 3009   6.382   8.400   1.589 -0.3352  0.5074  0.6412
    8CHTO   O85 3010   6.520   8.378   1.631 -0.1251 -0.1050 -0.2407
    8CHTO  H206 3011   6.534   8.441   1.699 -0.1283  0.6113 -0.8878
    8CHTO  C121 3012   6.225   8.507   1.409  0.5259  0.0652 -0.7896
    8CHTO  H225 3013   6.177   8.416   1.369  0.1166 -0.1096  0.0954
    8CHTO   O81 3014   6.130   8.544   1.511  0.1293  0.7587 -0.1039
    8CHTO  H202 3015   6.059   8.598   1.484 -0.4996  0.8308  1.6116
    8CHTO  C119 3016   6.242   8.615   1.299 -0.0459  0.2178 -0.5635
    8CHTO  H223 3017   6.139   8.633   1.267 -0.0602  1.7370  0.2886
    8CHTO  C117 3018   6.325   8.557   1.180 -0.1214 -0.1256  0.9527
    8CHTO  H221 3019   6.363   8.632   1.110  3.4238 -2.5031  0.2060
    8CHTO   N20 3020   6.250   8.461   1.095  0.2510 -0.1612  0.1493
    8CHTO  H209 3021   6.314   8.405   1.028  0.8873  1.4134 -0.5675
    8CHTO  H210 3022   6.208   8.385   1.159 -0.0944 -0.0976 -0.0048
    8CHTO   O80 3023   6.283   8.761   1.355 -1.1378 -0.4655 -0.2144
    8CHTO  C103 3024   6.195   8.880   1.338  0.1460 -0.0260 -0.1947
    8CHTO  H190 3025   6.097   8.839   1.313  0.0750 -1.2111  1.8775
    8CHTO  C101 3026   6.187   8.988   1.458 -0.1886 -0.5714 -0.3325
    8CHTO  H188 3027   6.286   9.019   1.491 -1.3681  1.4155  1.5367
    8CHTO   O68 3028   6.115   8.918   1.580  0.3859 -0.0726 -0.6132
    8CHTO  H168 3029   6.145   8.829   1.585 -0.1130 -0.2612 -0.9734
    8CHTO   C99 3030   6.104   9.116   1.409  0.2249 -0.0823 -0.3083
    8CHTO  H186 3031   6.004   9.081   1.376 -0.3279  1.7039 -0.5874
    8CHTO   N17 3032   6.073   9.224   1.509  0.2149 -0.1674  0.8709
    8CHTO  H174 3033   6.132   9.217   1.599  2.6019 -0.6142 -0.6889
    8CHTO  H175 3034   5.967   9.230   1.531  0.0143  1.5813 -0.4933
    8CHTO   C97 3035   6.172   9.172   1.280 -0.5474  0.6174  0.2029
    8CHTO  H184 3036   6.274   9.210   1.299 -0.1887  0.4053 -1.2279
    8CHTO   O64 3037   6.167   9.067   1.182  0.6869  0.2608  0.8802
    8CHTO  C104 3038   6.253   8.958   1.209 -0.3558  0.5828 -0.2778
    8CHTO  H191 3039   6.357   8.987   1.220 -0.0255 -1.2809  2.1225
    8CHTO  C108 3040   6.240   8.868   1.087  0.1234  0.3183  0.2130
    8CHTO   O71 3041   6.320   8.916   0.980  0.2972  0.1863 -0.2922
    8CHTO  H171 3042   6.268   8.967   0.921 -1.1590  3.0748  3.2620
    8CHTO   O62 3043   6.102   9.279   1.216 -0.3814  0.3886 -0.2564
    8CHTO   C91 3044   6.178   9.353   1.118  0.7304  0.2609  0.6041
    8CHTO  H178 3045   6.275   9.305   1.104 -0.0872 -0.9645 -0.8873
    8CHTO   C92 3046   6.205   9.493   1.177  0.2826  0.3051  0.8280
    8CHTO  H179 3047   6.116   9.526   1.232 -0.2360  1.2078 -0.5436
    8CHTO   O66 3048   6.298   9.472   1.281 -0.5140  0.0894 -0.2808
    8CHTO  H166 3049   6.260   9.448   1.363  3.5792 -2.4189  1.0545
    8CHTO   C93 3050   6.264   9.600   1.074 -0.1215  0.3613  0.2247
    8CHTO  H180 3051   6.367   9.572   1.046  0.1594  1.5142  0.0489
    8CHTO   N16 3052   6.256   9.736   1.138 -0.4399 -0.3877  0.8276
    8CHTO  H172 3053   6.354   9.778   1.123  0.2625 -2.9587 -2.1162
    8CHTO  H173 3054   6.181   9.794   1.086  0.4517 -1.1361 -1.3419
    8CHTO   C94 3055   6.177   9.593   0.949 -0.6229  0.4067  0.1507
    8CHTO  H181 3056   6.074   9.620   0.970 -1.1858 -1.6422  0.1874
    8CHTO   O61 3057   6.179   9.458   0.899  0.4313  0.2678  0.2409
    8CHTO   C95 3058   6.116   9.359   0.984 -0.2979 -0.0152 -0.0821
    8CHTO  H182 3059   6.018   9.399   1.014 -0.3310 -0.3488  0.2679
    8CHTO  C106 3060   6.098   9.226   0.896  0.1346  0.1134 -0.5551
    8CHTO   O69 3061   5.978   9.241   0.818 -0.7615  0.7739 -0.1406
    8CHTO  H169 3062   5.949   9.161   0.778 -0.6047  0.0809  1.1108
    8CHTO   O63 3063   6.242   9.686   0.836  0.8567  0.8254  0.7296
    8CHTO   C96 3064   6.147   9.703   0.705  0.5572 -0.1842 -0.0038
    8CHTO  H183 3065   6.064   9.633   0.713  0.9794 -0.5046  1.9131
    8CHTO   C98 3066   6.225   9.690   0.568 -0.3161 -0.6044  0.4118
    8CHTO  H185 3067   6.316   9.752   0.570 -1.7895  1.6666 -1.0579
    8CHTO   O67 3068   6.274   9.556   0.552  0.2926 -0.3404 -0.1818
    8CHTO  H167 3069   6.325   9.550   0.474  0.2718 -0.6318 -0.1735
    8CHTO  C102 3070   6.151   9.737   0.436  0.0186  0.1215 -0.3859
    8CHTO  H189 3071   6.076   9.659   0.415 -0.2399  0.7030 -1.7044
    8CHTO   N18 3072   6.240   9.744   0.318  0.1426  0.5683 -0.0344
    8CHTO  H176 3073   6.342   9.713   0.340  0.8460  1.4203 -2.0226
    8CHTO  H177 3074   6.250   9.841   0.273  0.2799  1.6546  2.2651
    8CHTO  C105 3075   6.073   9.874   0.466  0.3851 -0.0709  0.1848
    8CHTO  H192 3076   6.137   9.959   0.442 -0.7695  0.5060 -0.9230
    8CHTO   O65 3077   6.002   9.874   0.593 -0.1179  0.0383 -0.1682
    8CHTO  C100 3078   6.082   9.855   0.711  1.0245 -0.2947  0.5460
    8CHTO  H187 3079   6.160   9.933   0.715 -0.7844  1.5701  0.4821
    8CHTO  C107 3080   6.002   9.876   0.838  0.9576  0.3369  0.7269
    8CHTO   O70 3081   5.889   9.790   0.866  0.1637 -0.3285  0.8594
    8CHTO  H170 3082   5.849   9.807   0.949  0.9364 -0.6654  1.3033
    8CHTO   O57 3083   5.952   9.862   0.352 -0.1206 -0.0293  0.0082
    8CHTO   C85 3084   5.926   9.980   0.271 -0.2813  0.0688 -0.3072
    8CHTO  H157 3085   6.026  10.021   0.245  0.0554 -0.4897  0.1035
    8CHTO   C83 3086   5.872  10.095   0.359  0.2725  0.8113 -0.6057
    8CHTO  H155 3087   5.959  10.130   0.414  0.4664 -1.2800  0.4967
    8CHTO   O56 3088   5.772  10.045   0.450  0.2818  0.1794 -0.6461
    8CHTO  H135 3089   5.735   9.969   0.411  0.2504 -0.4458  0.5643
    8CHTO   C81 3090   5.809  10.207   0.271 -0.4829 -0.2299  0.9323
    8CHTO  H153 3091   5.885  10.251   0.207  1.3064  0.9831  3.7719
    8CHTO   N14 3092   5.760  10.324   0.353 -0.3015  0.6818  0.3945
    8CHTO  H141 3093   5.827  10.376   0.418  0.3432  0.0601  0.2272
    8CHTO  H142 3094   5.716  10.394   0.285 -1.5351 -1.2542 -0.8523
    8CHTO   C79 3095   5.693  10.146   0.183 -0.2911  0.1383  1.1780
    8CHTO  H151 3096   5.652  10.232   0.130  1.1746  0.1395 -0.0186
    8CHTO   O52 3097   5.757  10.063   0.086  0.5285 -0.6200 -0.0740
    8CHTO   C86 3098   5.837   9.947   0.141 -0.1137  0.0967  0.4427
    8CHTO  H158 3099   5.768   9.864   0.166 -0.5342  0.0981 -0.6789
    8CHTO   C90 3100   5.941   9.891   0.043  0.0088 -0.3471  0.6103
    8CHTO   O60 3101   5.871   9.821  -0.060  0.0814 -0.8111 -0.4419
    8CHTO  H138 3102   5.867   9.728  -0.053  0.9363 -0.9410 -1.4366
    8CHTO   O50 3103   5.590  10.075   0.245 -0.3731 -0.0098 -0.1716
    8CHTO   C73 3104   5.458  10.022   0.240  0.3216  0.1775 -0.3100
    8CHTO  H145 3105   5.443   9.962   0.149 -2.7272  1.3401 -0.6145
    8CHTO   C74 3106   5.365  10.143   0.243 -0.3931 -0.3568 -0.5878
    8CHTO  H146 3107   5.392  10.206   0.158  0.9243 -0.4185 -0.2324
    8CHTO   O54 3108   5.229  10.098   0.231 -0.4008  0.0165 -0.9057
    8CHTO  H133 3109   5.179  10.177   0.223  0.1337  0.5705  0.9802
    8CHTO   C75 3110   5.385  10.215   0.380  0.7740  0.3403  0.0478
    8CHTO  H147 3111   5.485  10.259   0.389  0.6031  1.3164 -2.5283
    8CHTO   N13 3112   5.288  10.330   0.387 -0.5324 -0.1610 -0.0255
    8CHTO  H139 3113   5.290  10.374   0.289  1.1579  0.9118  0.4702
    8CHTO  H140 3114   5.194  10.286   0.416 -1.3056  0.4910 -1.5417
    8CHTO   C76 3115   5.365  10.110   0.499  0.4389  0.5524 -0.2211
    8CHTO  H148 3116   5.264  10.069   0.495  0.8772 -0.5881  0.3501
    8CHTO   O49 3117   5.463  10.006   0.484  0.3164 -0.2412 -0.4995
    8CHTO   C77 3118   5.444   9.931   0.368 -0.1120  0.3765  0.1802
    8CHTO  H149 3119   5.348   9.881   0.364 -0.1048  0.4641 -1.5517
    8CHTO   C88 3120   5.545   9.819   0.365 -0.4488 -0.4086  0.2723
    8CHTO   O58 3121   5.515   9.711   0.240 -0.0707  0.2009  0.1559
    8CHTO  H136 3122   5.423   9.697   0.230  0.2866 -1.3002 -1.2956
    8CHTO   O51 3123   5.397  10.177   0.651  0.1392  0.2129  0.1643
    8CHTO   C78 3124   5.396  10.060   0.763 -0.3347 -0.0400 -0.0055
    8CHTO  H150 3125   5.400   9.956   0.723  0.7196  0.3687 -1.0160
    8CHTO   C80 3126   5.268  10.082   0.847  0.2962  0.1428  0.4604
    8CHTO  H152 3127   5.275  10.182   0.893  0.3911  1.2125 -1.7995
    8CHTO   O55 3128   5.156  10.065   0.759 -0.1830  0.4945  1.0179
    8CHTO  H134 3129   5.072  10.073   0.800 -1.4205  1.2425 -1.6021
    8CHTO   C84 3130   5.270   9.976   0.973  0.0460 -0.2928  0.7075
    8CHTO  H156 3131   5.274   9.876   0.930  2.1956 -0.1517  0.5346
    8CHTO   N15 3132   5.146   9.976   1.060 -0.0379 -0.0087 -0.1691
    8CHTO  H143 3133   5.166   9.979   1.165 -1.0009 -1.9677  0.0998
    8CHTO  H144 3134   5.071  10.048   1.036  0.8646  0.8057 -0.5637
    8CHTO   C87 3135   5.392   9.991   1.064 -0.1418  0.0439  0.5645
    8CHTO  H159 3136   5.377  10.092   1.102 -0.5620  0.4406 -0.6255
    8CHTO   O53 3137   5.527   9.995   0.970  0.2064 -0.1864  0.1939
    8CHTO   C82 3138   5.516  10.091   0.856  0.5268 -0.3066  0.0445
    8CHTO  H154 3139   5.504  10.190   0.898 -0.5195 -0.0677 -0.7821
    8CHTO   C89 3140   5.654  10.088   0.783  0.1345  0.5003 -0.9874
    8CHTO   O59 3141   5.664  10.189   0.682  0.5467 -0.1912  0.4231
    8CHTO  H137 3142   5.599  10.160   0.622  0.8724  0.3074 -0.1771
    8CHTO   O45 3143   5.404   9.885   1.173 -0.2872  0.4710  0.6335
    8CHTO   C67 3144   5.444   9.751   1.156 -0.2135 -0.5628 -0.3583
    8CHTO  H124 3145   5.401   9.707   1.067  0.2062  2.1870 -1.9634
    8CHTO   C65 3146   5.606   9.739   1.144  0.6501  0.4280 -0.0513
    8CHTO  H122 3147   5.642   9.840   1.159 -2.5274  1.4338  1.1950
    8CHTO   O44 3148   5.629   9.678   1.013  0.0473  0.3321 -0.7152
    8CHTO  H102 3149   5.719   9.653   1.007  0.4406  1.4023  0.3276
    8CHTO   C63 3150   5.671   9.659   1.264  0.3002 -0.9487  1.0767
    8CHTO  H120 3151   5.653   9.711   1.358  0.4982  0.6475  0.2486
    8CHTO   N11 3152   5.824   9.649   1.266  0.0766  0.1453 -0.0023
    8CHTO  H108 3153   5.849   9.590   1.352 -0.3218 -1.0052 -0.6562
    8CHTO  H109 3154   5.860   9.748   1.250 -1.5213  1.5736  4.3759
    8CHTO   C61 3155   5.598   9.513   1.273 -0.3060 -0.3094 -0.1002
    8CHTO  H118 3156   5.636   9.471   1.367  5.2469 -2.9747 -3.2356
    8CHTO   O40 3157   5.452   9.533   1.281  0.3756 -0.3492  0.7588
    8CHTO   C68 3158   5.393   9.669   1.283 -0.0346  0.4768 -0.0913
    8CHTO  H125 3159   5.426   9.714   1.379  0.8635 -1.5437  0.5646
    8CHTO   C72 3160   5.239   9.651   1.281 -0.5504 -0.1289 -0.0707
    8CHTO   O48 3161   5.193   9.576   1.172 -0.2897  0.1847 -0.1245
    8CHTO  H105 3162   5.102   9.558   1.185 -0.1428 -0.3277  0.2110
    8CHTO   O38 3163   5.637   9.427   1.161 -0.2399 -0.2432 -0.3026
    8CHTO   C55 3164   5.598   9.285   1.163  0.2174  0.2521 -0.0315
    8CHTO  H112 3165   5.507   9.271   1.224 -0.7240  1.6069 -1.0890
    8CHTO   C56 3166   5.715   9.190   1.208 -0.4105 -0.1177 -0.4810
    8CHTO  H113 3167   5.799   9.223   1.145 -0.4961  0.1853 -0.4360
    8CHTO   O42 3168   5.762   9.211   1.341 -0.3030  0.4725  0.1653
    8CHTO  H100 3169   5.713   9.285   1.369 -1.4907 -0.2984  0.1589
    8CHTO   C57 3170   5.691   9.040   1.185  0.8467 -0.3020  0.2309
    8CHTO  H114 3171   5.634   9.003   1.270  0.4801 -0.7002 -0.1819
    8CHTO   N10 3172   5.811   8.944   1.190 -0.7678 -0.2704 -0.0763
    8CHTO  H106 3173   5.906   8.978   1.152 -0.5240 -3.6185 -2.6731
    8CHTO  H107 3174   5.821   8.916   1.294 -2.7476 -1.7797 -0.2449
    8CHTO   C58 3175   5.609   9.018   1.055 -0.2415 -0.2976 -0.0231
    8CHTO  H115 3176   5.678   8.993   0.971  0.0938  0.9471 -0.1381
    8CHTO   O37 3177   5.513   9.121   1.019  0.9588 -0.1114 -0.1999
    8CHTO   C59 3178   5.564   9.247   1.021 -0.6050 -0.6546 -0.2412
    8CHTO  H116 3179   5.655   9.256   0.962  0.2061  0.9072  1.2131
    8CHTO   C70 3180   5.452   9.333   0.960  0.3934  0.2069 -0.3051
    8CHTO   O46 3181   5.339   9.349   1.044  0.0868  0.1560 -0.2862
    8CHTO  H103 3182   5.280   9.280   1.022  1.2885 -1.9147  2.6881
    8CHTO   O39 3183   5.510   8.876   1.089  0.2281  0.2696 -0.9133
    8CHTO   C60 3184   5.377   8.884   1.144  0.0225  0.1163 -0.0209
    8CHTO  H117 3185   5.362   8.982   1.190 -2.9166  0.8630 -2.4039
    8CHTO   C62 3186   5.276   8.876   1.025  0.4641  0.7714  0.5882
    8CHTO  H119 3187   5.300   8.972   0.974 -2.9801  1.4506  0.1268
    8CHTO   O43 3188   5.298   8.762   0.940  0.3548 -0.5469 -0.4185
    8CHTO  H101 3189   5.384   8.770   0.901 -0.8561 -1.8628 -3.5549
    8CHTO   C66 3190   5.119   8.876   1.080 -0.2658 -0.2073 -0.3057
    8CHTO  H123 3191   5.104   8.966   1.141  0.6083 -0.3543  0.1279
    8CHTO   N12 3192   5.021   8.873   0.972 -0.2283 -0.5593 -0.1615
    8CHTO  H110 3193   4.922   8.878   1.016 -0.0528 -0.5006  0.2291
    8CHTO  H111 3194   5.033   8.777   0.924  0.0861  0.2097 -1.6740
    8CHTO   C69 3195   5.104   8.760   1.184  0.7036 -0.3135 -0.5032
    8CHTO  H126 3196   5.125   8.660   1.141  2.2800 -1.2125  2.1878
    8CHTO   O41 3197   5.211   8.783   1.293  0.0423 -0.7390 -0.0294
    8CHTO   C64 3198   5.355   8.780   1.255  0.9877  0.1999 -0.0943
    8CHTO  H121 3199   5.379   8.680   1.213  1.8894  0.3840 -0.0207
    8CHTO   C71 3200   5.444   8.808   1.377 -0.2235  0.7427  0.1125
    8CHTO   O47 3201   5.392   8.757   1.501 -0.1931  0.5269  0.4061
    8CHTO  H104 3202   5.439   8.678   1.522 -0.4707 -0.6465 -3.0990
    8CHTO   O34 3203   4.961   8.767   1.252 -0.1941 -0.7026 -0.1972
    8CHTO   C49 3204   4.891   8.818   1.363 -0.2448  0.0019  0.6232
    8CHTO   H91 3205   4.912   8.764   1.455 -1.7264  0.0517  1.0160
    8CHTO   C47 3206   4.741   8.821   1.334 -0.2287  0.4299  0.4600
    8CHTO   H89 3207   4.685   8.844   1.427 -0.3467 -2.0236  1.0163
    8CHTO   O33 3208   4.695   8.692   1.296 -0.5772  0.3045  0.4161
    8CHTO   H70 3209   4.609   8.672   1.326 -0.8614  2.4899  1.1565
    8CHTO   C45 3210   4.708   8.929   1.215 -0.1868  0.3966 -0.9280
    8CHTO   H87 3211   4.773   8.895   1.133  0.0842 -0.6500 -0.2729
    8CHTO    N8 3212   4.569   8.931   1.169 -0.1831 -0.0889 -0.3409
    8CHTO   H75 3213   4.491   8.900   1.238  1.0646 -0.1870  1.0587
    8CHTO   H76 3214   4.549   8.888   1.072  0.2458  0.3969 -0.6447
    8CHTO   C43 3215   4.770   9.072   1.244  0.0157 -0.0955 -0.3184
    8CHTO   H85 3216   4.767   9.123   1.148  3.1864  2.7089  0.9684
    8CHTO   O29 3217   4.905   9.062   1.292 -0.1807  0.0832 -0.3912
    8CHTO   C50 3218   4.933   8.960   1.391 -0.4929 -0.1399 -0.0595
    8CHTO   H92 3219   5.042   8.950   1.400 -0.4702  0.3541  0.2218
    8CHTO   C54 3220   4.901   9.001   1.532 -0.0017  0.0034 -0.1563
    8CHTO   O36 3221   5.009   9.075   1.592  0.1491  0.4353 -0.1139
    8CHTO   H72 3222   5.014   9.155   1.544 -1.0439  1.8061  1.9817
    8CHTO   O27 3223   4.704   9.152   1.344 -0.2280 -0.1326  0.3748
    8CHTO   C37 3224   4.665   9.277   1.404 -0.0489 -0.7177  0.0650
    8CHTO   H79 3225   4.632   9.257   1.507  0.3540  0.2325  0.3796
    8CHTO   C38 3226   4.795   9.361   1.401  0.2198 -0.0575 -0.3090
    8CHTO   H80 3227   4.841   9.358   1.301  2.6329  0.2112  0.7688
    8CHTO   O31 3228   4.886   9.301   1.498  0.1455  0.2480  0.1107
    8CHTO   H68 3229   4.972   9.338   1.500  0.4435 -0.5012  1.5521
    8CHTO   C39 3230   4.759   9.510   1.448 -0.2352  0.3704  1.0636
    8CHTO   H81 3231   4.727   9.504   1.552  1.5244  0.4176  1.6205
    8CHTO    N7 3232   4.881   9.598   1.454  0.3275  0.2224  0.3071
    8CHTO   H73 3233   4.860   9.699   1.486  0.2158  0.6028 -0.9152
    8CHTO   H74 3234   4.962   9.552   1.508  1.3813  1.5319 -0.1239
    8CHTO   C40 3235   4.643   9.565   1.358  0.9022  0.1986  0.2163
    8CHTO   H82 3236   4.685   9.554   1.258 -1.2903 -1.3974 -0.5897
    8CHTO   O26 3237   4.529   9.485   1.381 -0.0879  0.2098 -0.2715
    8CHTO   C41 3238   4.557   9.353   1.320  0.6449 -0.3633  0.9472
    8CHTO   H83 3239   4.597   9.355   1.218  1.9484 -0.0009  1.4589
    8CHTO   C52 3240   4.422   9.283   1.324  0.4244 -0.1303  0.2392
    8CHTO   O35 3241   4.330   9.342   1.252  0.7903  0.1419  0.0605
    8CHTO   H71 3242   4.252   9.289   1.249  1.3212 -0.5872 -1.1085
    8CHTO   O28 3243   4.605   9.705   1.384 -0.2444 -0.1255  0.3317
    8CHTO   C42 3244   4.528   9.784   1.281  0.4303 -0.2825  0.4294
    8CHTO   H84 3245   4.480   9.861   1.342 -1.0282  0.2173 -1.3028
    8CHTO   C44 3246   4.410   9.706   1.209 -0.1560  0.6235  0.0770
    8CHTO   H86 3247   4.451   9.614   1.167  0.6135 -0.6120  3.3801
    8CHTO   O32 3248   4.312   9.654   1.297  0.1218  0.1432 -0.1842
    8CHTO   H69 3249   4.276   9.726   1.345  0.6868  0.5772 -0.3994
    8CHTO   C48 3250   4.346   9.789   1.091 -0.2815 -0.0882  0.7506
    8CHTO   H90 3251   4.282   9.866   1.134 -0.7809 -1.1393  1.9412
    8CHTO    N9 3252   4.244   9.713   1.007 -0.2217  0.5661  0.3918
    8CHTO   H77 3253   4.145   9.751   1.028 -0.8036 -1.8211  2.2305
    8CHTO   H78 3254   4.253   9.610   1.036 -2.8661  0.4524  0.9299
    8CHTO   C51 3255   4.454   9.862   0.991 -0.4017  0.2465 -0.3873
    8CHTO   H93 3256   4.504   9.781   0.939  0.4463  0.7631 -0.3851
    8CHTO   O30 3257   4.542   9.935   1.077  0.1289  0.0372  0.1622
    8CHTO   C46 3258   4.616   9.862   1.181  0.5760  0.1572  0.1179
    8CHTO   H88 3259   4.676   9.787   1.129  1.1059  1.1943 -0.7704
    8CHTO   C53 3260   4.699   9.978   1.252 -0.5443  0.0661  0.2950
    8CHTO   O72 3261   4.783   9.946   1.370 -0.1558  0.0353 -0.6453
    8CHTO  H199 3262   4.758   9.861   1.403  0.7215 -0.7431 -1.9442
    8CHTO   O22 3263   4.410   9.963   0.901 -0.7620  0.1097 -0.2322
    8CHTO   C31 3264   4.468   9.986   0.768 -0.1970 -0.3616 -0.0406
    8CHTO   H59 3265   4.394  10.050   0.715 -2.6654 -3.9250 -1.0908
    8CHTO   C29 3266   4.604  10.056   0.778  0.7825 -0.2254 -0.1030
    8CHTO   H57 3267   4.663   9.983   0.836 -1.2326 -1.6204  0.2344
    8CHTO   O21 3268   4.576  10.185   0.838 -0.4241  0.2263  0.1592
    8CHTO   H37 3269   4.653  10.237   0.853 -0.4907  0.2512  0.4224
    8CHTO   C27 3270   4.675  10.071   0.641  0.2478 -0.0603 -0.5228
    8CHTO   H55 3271   4.615  10.143   0.583  0.6679  1.5838  1.0341
    8CHTO    N5 3272   4.808  10.138   0.659  0.1666  0.2140  0.3047
    8CHTO   H43 3273   4.838  10.179   0.563 -0.5392  0.0116 -0.0017
    8CHTO   H44 3274   4.833  10.192   0.748  1.7264  0.6958 -0.4004
    8CHTO   C25 3275   4.678   9.932   0.571  0.5523 -0.3529 -0.5128
    8CHTO   H53 3276   4.737   9.862   0.633  1.6631  0.3011 -0.8228
    8CHTO   O17 3277   4.546   9.883   0.553  0.1316 -0.2820 -0.0863
    8CHTO   C32 3278   4.480   9.857   0.678  0.2574 -0.2902 -0.0233
    8CHTO   H60 3279   4.521   9.774   0.734  0.0492 -0.5270 -0.2205
    8CHTO   C36 3280   4.331   9.828   0.649  0.6371  0.2744 -0.2560
    8CHTO   O25 3281   4.314   9.703   0.582  0.0384 -0.8937 -0.1400
    8CHTO   H40 3282   4.273   9.645   0.643 -0.8571  1.8599  1.9951
    8CHTO   O15 3283   4.740   9.952   0.438  0.0803  0.3452  0.0378
    8CHTO   C19 3284   4.770   9.925   0.301  0.2565 -0.4274 -0.0265
    8CHTO   H47 3285   4.691   9.865   0.254  1.6073 -2.1035 -0.2421
    8CHTO   C20 3286   4.790  10.046   0.211  0.6577 -0.4586 -0.0068
    8CHTO   H48 3287   4.879  10.104   0.236  0.2812  0.9307 -1.7320
    8CHTO   O19 3288   4.673  10.123   0.209  0.3820 -0.1784 -0.9840
    8CHTO   H35 3289   4.602  10.069   0.179  1.3815 -1.0583 -1.8018
    8CHTO   C21 3290   4.828  10.005   0.061 -0.3994 -0.4698  0.1224
    8CHTO   H49 3291   4.743   9.955   0.014 -0.1440  0.2808 -1.1558
    8CHTO    N4 3292   4.868  10.123  -0.024  0.2135  0.4229  0.6772
    8CHTO   H41 3293   4.793  10.201  -0.019  0.8673  1.1894 -0.9406
    8CHTO   H42 3294   4.957  10.161   0.024  2.0424 -2.3916 -0.3994
    8CHTO   C22 3295   4.954   9.909   0.074 -0.0789  0.1582  0.2562
    8CHTO   H50 3296   5.039   9.960   0.118  1.7885 -2.8064  0.2269
    8CHTO   O14 3297   4.919   9.793   0.161 -0.1924 -0.1519  0.0646
    8CHTO   C23 3298   4.902   9.841   0.292  0.2115 -0.5161 -0.4990
    8CHTO   H51 3299   4.990   9.899   0.323  0.1381  0.0320 -1.3019
    8CHTO   C34 3300   4.905   9.716   0.383  0.1519  0.0604 -0.1649
    8CHTO   O23 3301   5.041   9.672   0.410  0.5066 -0.0993 -0.1396
    8CHTO   H38 3302   5.029   9.593   0.458 -0.2879 -0.1270 -0.3832
    8CHTO   O16 3303   4.992   9.853  -0.052 -0.5408 -0.0467 -0.6040
    8CHTO   C24 3304   5.140   9.772  -0.041  0.5034  0.4729 -0.2563
    8CHTO   H52 3305   5.173   9.762   0.062  0.6469 -2.5098 -0.5628
    8CHTO   C26 3306   5.250   9.846  -0.123  0.0379 -0.0027 -0.7868
    8CHTO   H54 3307   5.218   9.851  -0.229  1.0517 -2.4499 -1.2511
    8CHTO   O20 3308   5.265   9.970  -0.060  0.0981  0.1374  0.2583
    8CHTO   H36 3309   5.277  10.035  -0.126 -0.5919 -2.0615 -2.1409
    8CHTO   C30 3310   5.381   9.767  -0.122  0.0298  0.3662  0.3913
    8CHTO   H58 3311   5.416   9.746  -0.020 -0.4748 -2.1550  0.0889
    8CHTO    N6 3312   5.492   9.835  -0.197  0.0107  0.1902 -0.0534
    8CHTO   H45 3313   5.501   9.786  -0.293 -0.6680 -0.7879  0.3760
    8CHTO   H46 3314   5.587   9.834  -0.145  1.1454  1.5959 -2.0064
    8CHTO   C33 3315   5.343   9.630  -0.181  0.2034 -0.8160 -0.0460
    8CHTO   H61 3316   5.296   9.649  -0.278  0.8828 -2.2015 -0.6621
    8CHTO   O18 3317   5.251   9.560  -0.089  0.4118  0.7037  0.4329
    8CHTO   C28 3318   5.127   9.630  -0.100  0.0919  0.2438 -0.1195
    8CHTO   H56 3319   5.093   9.634  -0.203  0.1624  0.1315 -0.1472
    8CHTO   C35 3320   5.027   9.551  -0.029 -0.0605  0.7510 -0.4606
    8CHTO   O24 3321   5.069   9.509   0.098  0.0210  0.1029 -0.0483
    8CHTO   H39 3322   5.145   9.456   0.085 -0.1764 -0.6437  1.7744
    8CHTO    O9 3323   5.457   9.551  -0.215 -0.0656 -0.1402 -0.2564
    8CHTO   C13 3324   5.439   9.443  -0.333  0.2952  0.1559  0.4163
    8CHTO   H26 3325   5.359   9.483  -0.399  2.5322  2.7342 -0.8580
    8CHTO   C11 3326   5.406   9.298  -0.272 -0.1727 -0.1998  0.3098
    8CHTO   H24 3327   5.306   9.286  -0.229 -1.3344 -1.0248 -2.5418
    8CHTO    O8 3328   5.490   9.281  -0.160  0.0298  0.0099  0.0426
    8CHTO    H3 3329   5.447   9.226  -0.097 -0.8257 -1.1533 -1.5315
    8CHTO    C9 3330   5.426   9.197  -0.388 -0.0245  0.1578 -0.3241
    8CHTO   H22 3331   5.378   9.243  -0.476 -1.3763 -0.0573  0.2922
    8CHTO    N2 3332   5.362   9.064  -0.363  0.6449 -0.0604  0.1128
    8CHTO   H10 3333   5.363   9.006  -0.454 -0.1124  0.3784 -0.1823
    8CHTO   H11 3334   5.418   9.022  -0.281  1.0804 -1.1514 -0.7325
    8CHTO    C7 3335   5.587   9.196  -0.423  0.6775 -0.1291  0.6072
    8CHTO   H20 3336   5.599   9.168  -0.530 -0.1830  0.7651  0.2784
    8CHTO    O4 3337   5.649   9.331  -0.411 -0.3438 -0.3472 -0.5178
    8CHTO   C14 3338   5.559   9.443  -0.431 -0.2556  0.2973  0.5937
    8CHTO   H27 3339   5.532   9.423  -0.537 -0.9757 -1.5496  1.1083
    8CHTO   C18 3340   5.634   9.576  -0.421  0.6994 -0.3417 -0.1118
    8CHTO   O13 3341   5.730   9.583  -0.526  0.3964  0.7529 -0.1256
    8CHTO    H7 3342   5.780   9.504  -0.534 -3.3049 -1.5820 -1.8512
    8CHTO    O2 3343   5.680   9.086  -0.344 -0.5187 -0.3966  0.4831
    8CHTO    C1 3344   5.825   9.081  -0.360  0.4294 -0.7704  0.1375
    8CHTO   H14 3345   5.871   9.180  -0.342  2.0107 -1.6336  0.9233
    8CHTO    C2 3346   5.868   9.028  -0.502  0.2148 -0.1185  0.5999
    8CHTO   H15 3347   5.824   8.927  -0.505  1.7893 -0.8967  2.5756
    8CHTO    O6 3348   5.828   9.120  -0.606 -0.6157 -0.3945  0.7171
    8CHTO    H1 3349   5.846   9.090  -0.692 -2.9257 -1.3837  0.5482
    8CHTO    C3 3350   6.020   8.998  -0.511  0.8598 -0.1130 -0.1314
    8CHTO   H16 3351   6.068   9.098  -0.508 -2.4232  1.5328 -0.2133
    8CHTO    N1 3352   6.055   8.927  -0.637  0.8240  0.0131  0.0949
    8CHTO    H8 3353   6.129   8.853  -0.610 -1.7031 -2.9059 -0.8128
    8CHTO    H9 3354   6.106   9.003  -0.694  0.0170  0.5343  0.0616
    8CHTO    C4 3355   6.070   8.916  -0.378  0.2081  0.0205 -0.2530
    8CHTO   H17 3356   6.024   8.817  -0.381  1.1095 -0.4303  0.6421
    8CHTO    O1 3357   6.029   8.983  -0.259  0.0266 -0.3735 -0.0222
    8CHTO    C5 3358   5.885   8.997  -0.247 -0.2279  0.4402 -0.1478
    8CHTO   H18 3359   5.836   8.900  -0.253 -0.2370  0.3895  0.7303
    8CHTO   C16 3360   5.844   9.059  -0.108  0.4917  0.0968  0.2425
    8CHTO   O11 3361   5.882   8.987   0.010  0.0727 -0.2403 -0.3935
    8CHTO    H5 3362   5.973   9.009   0.023 -0.1576 -0.1892  1.1579
    8CHTO    O3 3363   6.216   8.899  -0.364 -0.2240 -0.5060 -0.0037
    8CHTO    C6 3364   6.253   8.800  -0.268 -0.4445  0.1397 -0.1343
    8CHTO   H19 3365   6.176   8.780  -0.194 -0.9730 -1.8118 -1.2056
    8CHTO    C8 3366   6.292   8.664  -0.333  0.2653 -0.8937 -0.0459
    8CHTO   H21 3367   6.343   8.690  -0.426  2.0792  1.3842  1.5261
    8CHTO    O7 3368   6.160   8.612  -0.357  0.1548 -0.7193  0.0544
    8CHTO    H2 3369   6.155   8.563  -0.437  1.5551 -0.3501 -0.2647
    8CHTO   C12 3370   6.377   8.580  -0.231  0.6255  0.3378 -0.6277
    8CHTO   H25 3371   6.303   8.548  -0.155  0.9187  1.6943  0.2482
    8CHTO    N3 3372   6.420   8.449  -0.290  0.1893  0.0646 -0.2971
    8CHTO   H12 3373   6.356   8.415  -0.370  1.2984  1.8557 -1.9758
    8CHTO   H13 3374   6.520   8.452  -0.330 -0.1102  2.0565 -0.9341
    8CHTO   C15 3375   6.490   8.653  -0.158 -0.0583 -0.3403  0.7263
    8CHTO   H28 3376   6.562   8.696  -0.229 -1.3740  1.0194  0.1891
    8CHTO   O10 3377   6.542   8.571  -0.027  0.1840 -0.4765 -0.0841
    8CHTO    H4 3378   6.616   8.516  -0.045  0.0265 -0.1719 -1.7001
    8CHTO    O5 3379   6.436   8.771  -0.090  0.0972  0.0939 -0.4703
    8CHTO   C10 3380   6.370   8.862  -0.181  0.1963  0.4363 -0.4688
    8CHTO   H23 3381   6.447   8.896  -0.250  0.8634 -2.4445 -1.2440
    8CHTO   C17 3382   6.327   8.989  -0.102 -0.0540 -0.2286 -0.7754
    8CHTO   O12 3383   6.441   9.068  -0.058 -0.1443  0.2820  0.5358
    8CHTO    H6 3384   6.459   9.050   0.032 -1.4545 -3.1594  0.1916
    9CHTO  H203 3385   8.192   4.024   3.431  0.8659  1.1750 -0.5416
    9CHTO   O82 3386   8.259   3.974   3.473 -0.3391 -0.0581 -0.0526
    9CHTO  C123 3387   8.373   3.984   3.391  0.7871  0.3748 -0.0968
    9CHTO  H227 3388   8.438   4.065   3.429  1.4923 -1.3649  2.5426
    9CHTO   O77 3389   8.438   3.857   3.416  0.1939  0.1141 -0.1792
    9CHTO  C118 3390   8.567   3.849   3.354 -0.4339  0.1353  0.0487
    9CHTO  H222 3391   8.618   3.935   3.400 -1.1002  0.6636 -0.1906
    9CHTO  C125 3392   8.637   3.725   3.393  0.6538  0.0377 -0.7937
    9CHTO   O84 3393   8.742   3.746   3.489  0.3635 -0.2750 -0.2571
    9CHTO  H205 3394   8.787   3.666   3.509  0.2868 -0.2179  0.1454
    9CHTO  C114 3395   8.561   3.862   3.203  0.2352  0.2407 -0.3068
    9CHTO  H218 3396   8.505   3.777   3.161 -1.0098  0.2906  1.1950
    9CHTO  C116 3397   8.476   3.989   3.168  0.1122  0.2191  0.3231
    9CHTO  H220 3398   8.536   4.079   3.188  0.7471 -0.7215  2.8592
    9CHTO   O79 3399   8.455   3.985   3.024  0.2266 -1.1561 -0.0507
    9CHTO  H201 3400   8.378   4.025   2.989 -0.1566 -1.4660  0.4417
    9CHTO  C120 3401   8.341   3.999   3.239 -0.0381  0.1287 -0.1742
    9CHTO  H224 3402   8.285   3.909   3.206  0.4212 -0.0920 -0.3589
    9CHTO   N21 3403   8.259   4.124   3.208  0.1829  0.3180 -0.2424
    9CHTO  H211 3404   8.325   4.209   3.201  0.3486  0.1701 -0.4609
    9CHTO  H212 3405   8.183   4.140   3.283  0.7843 -2.0019  0.9111
    9CHTO   O75 3406   8.696   3.857   3.150  0.0372 -0.1593  0.2545
    9CHTO  C112 3407   8.699   3.774   3.003  0.1038 -0.1683 -0.4001
    9CHTO  H216 3408   8.597   3.783   2.963 -0.3875 -1.3996  0.5763
    9CHTO   O73 3409   8.728   3.636   3.029 -0.2173 -0.1507  0.2783
    9CHTO  C113 3410   8.710   3.553   2.914 -0.1437  0.9506 -0.1287
    9CHTO  H217 3411   8.613   3.571   2.862 -0.3812 -0.2233 -0.1036
    9CHTO  C124 3412   8.710   3.404   2.953 -0.4040  0.4138  0.1442
    9CHTO   O83 3413   8.591   3.376   3.020  0.4518 -0.2647 -0.0705
    9CHTO  H204 3414   8.541   3.304   2.987 -1.2900  1.0367 -0.3371
    9CHTO  C109 3415   8.820   3.591   2.811 -0.6154  0.0094 -0.1578
    9CHTO  H213 3416   8.914   3.558   2.859 -0.6104 -1.3128 -1.0552
    9CHTO  C110 3417   8.810   3.749   2.779 -0.0127  0.3464  0.4987
    9CHTO  H214 3418   8.722   3.758   2.716  1.7115 -3.1026 -2.6044
    9CHTO   O78 3419   8.918   3.788   2.699 -0.1771  0.0874  0.1158
    9CHTO  H200 3420   8.923   3.731   2.625 -0.4084  1.3307 -0.8879
    9CHTO  C111 3421   8.803   3.838   2.909 -0.0416 -0.1395  0.0647
    9CHTO  H215 3422   8.900   3.834   2.961  0.5110 -0.4025 -0.9822
    9CHTO   N19 3423   8.773   3.979   2.883  0.4066 -0.7864 -0.4650
    9CHTO  H207 3424   8.675   3.979   2.837 -0.3382  0.7935  1.0554
    9CHTO  H208 3425   8.765   4.042   2.970 -2.3353 -0.4549 -0.8853
    9CHTO   O74 3426   8.801   3.513   2.695 -0.3393 -0.4954  0.4478
    9CHTO  C115 3427   8.920   3.418   2.653 -0.5367  0.1071 -0.2431
    9CHTO  H219 3428   9.012   3.441   2.708 -2.0216 -0.2351  2.4649
    9CHTO   O76 3429   8.888   3.266   2.680  0.9273  0.2866  0.6517
    9CHTO  C122 3430   8.781   3.204   2.599 -0.3323  0.3356 -0.0337
    9CHTO  H226 3431   8.687   3.237   2.644  0.4893  1.1551  1.1143
    9CHTO  C126 3432   8.790   3.051   2.640  0.8507  0.0022 -0.2596
    9CHTO   O85 3433   8.757   3.040   2.782 -0.4199 -0.0016 -0.5975
    9CHTO  H206 3434   8.812   2.982   2.831 -0.8302  0.9419  1.0103
    9CHTO  C121 3435   8.803   3.230   2.447  0.6914 -0.2479 -0.6446
    9CHTO  H225 3436   8.894   3.171   2.419  1.0090  0.6318 -1.4946
    9CHTO   O81 3437   8.692   3.192   2.368 -0.0401  0.1480  0.2551
    9CHTO  H202 3438   8.724   3.115   2.325 -1.2491 -0.6461  0.7464
    9CHTO  C119 3439   8.828   3.386   2.411  0.2096 -0.4991 -0.6149
    9CHTO  H223 3440   8.850   3.392   2.305 -1.9474 -0.9283 -1.1130
    9CHTO  C117 3441   8.947   3.452   2.499  0.0016 -0.3222  0.4940
    9CHTO  H221 3442   8.942   3.561   2.500  1.8807 -0.1951 -1.5060
    9CHTO   N20 3443   9.082   3.419   2.449  0.6173  0.0779 -0.0591
    9CHTO  H209 3444   9.098   3.313   2.463  0.2965 -0.1388 -1.2391
    9CHTO  H210 3445   9.166   3.480   2.478 -0.5582  0.9809  1.5515
    9CHTO   O80 3446   8.690   3.474   2.432  0.0357  0.5241  1.0002
    9CHTO  C103 3447   8.656   3.596   2.327 -0.0671 -0.0232 -0.0136
    9CHTO  H190 3448   8.586   3.670   2.364  1.2830  1.5081 -0.4969
    9CHTO  C101 3449   8.771   3.677   2.268  0.6040 -0.6513  0.0372
    9CHTO  H188 3450   8.848   3.610   2.232  2.1479 -0.6090  3.1196
    9CHTO   O68 3451   8.833   3.775   2.387 -0.2095  0.3537  0.1166
    9CHTO  H168 3452   8.785   3.854   2.406  0.2861  0.7837 -0.3868
    9CHTO   C99 3453   8.729   3.760   2.146 -1.0406  0.0036  0.8807
    9CHTO  H186 3454   8.664   3.847   2.168  0.8435  1.7987 -0.5548
    9CHTO   N17 3455   8.842   3.833   2.078 -0.1169  0.2707 -0.4326
    9CHTO  H174 3456   8.801   3.928   2.047  2.3676  0.8527 -1.9819
    9CHTO  H175 3457   8.929   3.845   2.140 -0.0587 -0.6693 -0.3319
    9CHTO   C97 3458   8.651   3.672   2.044  0.5319 -0.3618 -0.3030
    9CHTO  H184 3459   8.718   3.593   2.006  1.8033 -0.8030  2.7029
    9CHTO   O64 3460   8.537   3.615   2.114 -0.6107  0.1641  0.5780
    9CHTO  C104 3461   8.580   3.521   2.213 -0.2462  0.5320 -0.6324
    9CHTO  H191 3462   8.647   3.450   2.164 -0.0884 -0.8113  1.4770
    9CHTO  C108 3463   8.467   3.437   2.279  0.7769  0.2140 -0.6884
    9CHTO   O71 3464   8.432   3.328   2.197 -0.2869 -0.0703  0.5049
    9CHTO  H171 3465   8.364   3.345   2.135  1.8107  1.4908 -1.4546
    9CHTO   O62 3466   8.596   3.745   1.939  0.0015  0.3936  0.2387
    9CHTO   C91 3467   8.590   3.705   1.804  0.4712  1.0848  0.9699
    9CHTO  H178 3468   8.653   3.617   1.793  0.1464  0.6707  2.3257
    9CHTO   C92 3469   8.662   3.818   1.723  0.9113  0.2790 -0.2918
    9CHTO  H179 3470   8.769   3.825   1.743  1.0763 -2.0844 -0.1818
    9CHTO   O66 3471   8.665   3.772   1.583 -0.3832  0.1225 -0.3632
    9CHTO  H166 3472   8.738   3.721   1.555 -0.6396 -0.5554  0.1795
    9CHTO   C93 3473   8.581   3.955   1.726  0.3291 -0.0820 -1.0749
    9CHTO  H180 3474   8.593   3.998   1.626 -0.7819  1.6326 -0.5001
    9CHTO   N16 3475   8.639   4.045   1.825  0.3404  0.1496  0.2413
    9CHTO  H172 3476   8.712   4.000   1.891  0.7833  0.5675  0.0393
    9CHTO  H173 3477   8.565   4.101   1.880 -0.0742  2.4532 -2.5531
    9CHTO   C94 3478   8.426   3.925   1.742 -0.2609 -0.0735  0.5701
    9CHTO  H181 3479   8.395   3.921   1.846 -0.2894  2.6025  0.7057
    9CHTO   O61 3480   8.386   3.798   1.683  0.0950 -0.4323 -0.1429
    9CHTO   C95 3481   8.432   3.688   1.759  0.1126  0.3816 -0.7050
    9CHTO  H182 3482   8.374   3.687   1.851  1.0503  0.7581 -0.0995
    9CHTO  C106 3483   8.400   3.561   1.673  0.6591 -0.3033  0.6090
    9CHTO   O69 3484   8.444   3.447   1.748  0.2622  0.4804  0.0579
    9CHTO  H169 3485   8.519   3.403   1.713  0.3501 -0.1043  0.9474
    9CHTO   O63 3486   8.336   4.057   1.654 -0.1406 -0.1274  0.3275
    9CHTO   C96 3487   8.198   4.065   1.725  0.7243 -0.2965  0.2784
    9CHTO  H183 3488   8.204   4.033   1.829 -0.5047 -0.1632  0.4054
    9CHTO   C98 3489   8.081   3.979   1.658 -0.0112 -0.1562  0.0432
    9CHTO  H185 3490   8.094   3.992   1.550  0.1880  2.6078  0.3647
    9CHTO   O67 3491   8.092   3.840   1.683  0.5782 -0.5317 -0.5283
    9CHTO  H167 3492   8.168   3.805   1.640 -0.4775 -0.9110 -2.1270
    9CHTO  C102 3493   7.926   4.015   1.693 -0.4093  0.1083  0.2319
    9CHTO  H189 3494   7.902   3.968   1.789 -1.2278  1.2691  0.6072
    9CHTO   N18 3495   7.821   3.956   1.603 -0.2848 -0.2525  0.1337
    9CHTO  H176 3496   7.823   3.996   1.503 -0.3604 -1.0023 -0.1696
    9CHTO  H177 3497   7.720   3.965   1.639 -0.2514 -1.6736  0.6151
    9CHTO  C105 3498   7.912   4.171   1.704  0.4311 -0.7984 -0.4370
    9CHTO  H192 3499   7.920   4.217   1.606 -0.5094 -2.6280 -1.3983
    9CHTO   O65 3500   8.018   4.223   1.784 -0.6568  0.4902 -0.0407
    9CHTO  C100 3501   8.154   4.213   1.737  0.4388  0.9311  0.9779
    9CHTO  H187 3502   8.149   4.257   1.636 -1.0265 -1.2507  0.0767
    9CHTO  C107 3503   8.239   4.297   1.828 -0.3677 -0.0818  0.2972
    9CHTO   O70 3504   8.384   4.293   1.803 -0.2079  0.4157  0.6259
    9CHTO  H170 3505   8.428   4.350   1.862 -1.3524  0.5662  1.3518
    9CHTO   O57 3506   7.763   4.192   1.784 -0.1079  0.2089  0.2563
    9CHTO   C85 3507   7.697   4.320   1.788 -0.1030 -0.3524  0.1930
    9CHTO  H157 3508   7.688   4.343   1.680  0.4749 -0.3746  0.1426
    9CHTO   C83 3509   7.783   4.429   1.857 -0.4488  0.0684  0.0955
    9CHTO  H155 3510   7.872   4.430   1.794  0.2042 -2.4027  0.8950
    9CHTO   O56 3511   7.813   4.407   1.997 -0.2667  0.5664  0.1479
    9CHTO  H135 3512   7.736   4.374   2.040 -0.4521  0.8095 -0.0000
    9CHTO   C81 3513   7.703   4.556   1.838  0.1592 -1.0694  0.4933
    9CHTO  H153 3514   7.671   4.567   1.734  2.3502  1.6015  0.0327
    9CHTO   N14 3515   7.778   4.683   1.857 -0.8619 -0.2182  0.4311
    9CHTO  H141 3516   7.861   4.704   1.792 -0.5026 -0.0485  0.9359
    9CHTO  H142 3517   7.705   4.762   1.856 -3.0868 -2.2066  1.4440
    9CHTO   C79 3518   7.570   4.555   1.923 -0.0216  0.2827 -0.0719
    9CHTO  H151 3519   7.502   4.620   1.868  0.3285  0.2294 -0.5768
    9CHTO   O52 3520   7.496   4.431   1.911  0.4652  0.2048 -0.0482
    9CHTO   C86 3521   7.556   4.311   1.853  0.7849 -0.4021 -1.2348
    9CHTO  H158 3522   7.560   4.234   1.934 -0.4304 -0.2440 -1.0129
    9CHTO   C90 3523   7.460   4.259   1.752  0.0337  0.3770  0.2969
    9CHTO   O60 3524   7.328   4.247   1.797  0.1424 -0.8075  0.0103
    9CHTO  H138 3525   7.315   4.160   1.828 -0.1788 -0.6089  0.4496
    9CHTO   O50 3526   7.588   4.586   2.065 -0.3912  0.1851  0.2216
    9CHTO   C73 3527   7.511   4.644   2.167 -0.0576 -0.1644 -1.1581
    9CHTO  H145 3528   7.404   4.624   2.151 -0.3929 -1.0481  1.8426
    9CHTO   C74 3529   7.532   4.804   2.168 -0.1633 -0.2541  0.6066
    9CHTO  H146 3530   7.508   4.830   2.064 -0.9785  1.4628  1.2035
    9CHTO   O54 3531   7.435   4.863   2.254 -0.0480  0.1311 -0.1047
    9CHTO  H133 3532   7.363   4.890   2.200  0.2500 -1.1252 -1.1699
    9CHTO   C75 3533   7.682   4.839   2.202 -0.6346 -0.1595  0.1152
    9CHTO  H147 3534   7.742   4.818   2.112  0.2390 -1.0427  0.8916
    9CHTO   N13 3535   7.717   4.982   2.220 -0.1059 -0.7634 -0.3733
    9CHTO  H139 3536   7.819   4.992   2.254 -0.2877 -1.8427  0.5192
    9CHTO  H140 3537   7.694   5.044   2.135 -1.4090  1.0690  1.2389
    9CHTO   C76 3538   7.742   4.766   2.330  0.1715 -0.2644  0.1727
    9CHTO  H148 3539   7.709   4.814   2.422 -1.0213 -1.3290  0.3122
    9CHTO   O49 3540   7.688   4.625   2.343  0.4315 -0.6714  0.1722
    9CHTO   C77 3541   7.552   4.592   2.307 -1.0079  0.0239 -0.2200
    9CHTO  H149 3542   7.479   4.628   2.380 -1.4110  0.0259 -0.6192
    9CHTO   C88 3543   7.539   4.438   2.302 -0.8037 -0.1190  0.0840
    9CHTO   O58 3544   7.441   4.400   2.414  0.3344 -0.2387 -0.2289
    9CHTO  H136 3545   7.491   4.368   2.486 -0.7244  1.5310  1.3176
    9CHTO   O51 3546   7.900   4.761   2.321  0.5711  0.0591 -0.1677
    9CHTO   C78 3547   7.987   4.644   2.432 -0.6096 -0.2170  0.3635
    9CHTO  H150 3548   7.934   4.548   2.451 -2.2610  0.3015 -1.5137
    9CHTO   C80 3549   8.006   4.715   2.567  0.1936  0.4943 -1.1789
    9CHTO  H152 3550   8.036   4.820   2.545 -0.9950  0.7791 -1.5027
    9CHTO   O55 3551   7.878   4.734   2.636  0.3709 -0.0898 -0.2503
    9CHTO  H134 3552   7.904   4.751   2.724  0.0980 -0.2430 -0.1399
    9CHTO   C84 3553   8.112   4.639   2.654 -0.0280 -0.4281 -0.2423
    9CHTO  H156 3554   8.076   4.544   2.694  1.6526 -0.8752  0.2912
    9CHTO   N15 3555   8.137   4.723   2.775 -0.7064 -0.0980 -0.2436
    9CHTO  H143 3556   8.090   4.696   2.868  1.8563  0.3185  1.2277
    9CHTO  H144 3557   8.238   4.755   2.795  0.4220 -2.4888 -1.7958
    9CHTO   C87 3558   8.242   4.614   2.569  0.5554 -0.0893 -0.0537
    9CHTO  H159 3559   8.280   4.711   2.538  0.7189 -0.3138 -0.5766
    9CHTO   O53 3560   8.195   4.531   2.433 -0.0101 -0.1554 -0.0713
    9CHTO   C82 3561   8.110   4.616   2.349 -0.0540 -0.6307 -0.1637
    9CHTO  H154 3562   8.150   4.711   2.315  0.8686 -0.4688  1.3734
    9CHTO   C89 3563   8.065   4.542   2.221  0.7219 -0.3910 -0.0845
    9CHTO   O59 3564   8.175   4.503   2.143 -0.6059  0.4668  0.2641
    9CHTO  H137 3565   8.165   4.410   2.135  0.3858  0.3900 -0.2989
    9CHTO   O45 3566   8.366   4.529   2.657  0.1939 -0.2777  0.3426
    9CHTO   C67 3567   8.411   4.407   2.612  0.0134 -0.4108  0.4523
    9CHTO  H124 3568   8.323   4.343   2.609  0.1119 -0.4854 -1.4567
    9CHTO   C65 3569   8.481   4.413   2.472  0.1573 -0.5710  0.8267
    9CHTO  H122 3570   8.486   4.521   2.457 -1.4038 -0.5011  0.7051
    9CHTO   O44 3571   8.390   4.352   2.377 -0.3894 -0.0339  0.2515
    9CHTO  H102 3572   8.317   4.403   2.347  2.5258  2.8797 -2.2986
    9CHTO   C63 3573   8.629   4.359   2.475 -0.0676  0.6475  0.3328
    9CHTO  H120 3574   8.688   4.430   2.532  0.7587 -1.2134  1.8244
    9CHTO   N11 3575   8.704   4.355   2.345 -0.1291  0.4025  0.3819
    9CHTO  H108 3576   8.638   4.359   2.260  1.7649  1.5601 -1.0682
    9CHTO  H109 3577   8.762   4.265   2.340  1.0721  1.2120 -0.2970
    9CHTO   C61 3578   8.638   4.219   2.552  0.6767  0.0068 -0.0776
    9CHTO  H118 3579   8.744   4.222   2.583  0.9346  2.6123 -1.0304
    9CHTO   O40 3580   8.558   4.213   2.672  0.8846  1.0437 -0.5803
    9CHTO   C68 3581   8.511   4.341   2.720 -0.3988 -0.3645  0.1476
    9CHTO  H125 3582   8.599   4.406   2.737 -1.7731  0.9251  2.5252
    9CHTO   C72 3583   8.447   4.326   2.856  0.1481 -0.2287  0.8517
    9CHTO   O48 3584   8.547   4.287   2.949 -0.4025  0.5280  0.9190
    9CHTO  H105 3585   8.506   4.235   3.015 -0.3694 -2.7052 -1.5322
    9CHTO   O38 3586   8.608   4.099   2.472 -0.2535 -0.1000 -0.3154
    9CHTO   C55 3587   8.474   4.046   2.451 -0.7193  0.3426  0.8145
    9CHTO  H112 3588   8.399   4.127   2.444  0.3407  1.1996 -1.3075
    9CHTO   C56 3589   8.434   3.931   2.559  0.1213 -0.5050  0.2002
    9CHTO  H113 3590   8.519   3.862   2.547  0.0927 -0.6654  0.9241
    9CHTO   O42 3591   8.445   3.971   2.695 -0.2790 -0.1006  0.1762
    9CHTO  H100 3592   8.399   3.909   2.748  0.8140 -0.4269  0.7442
    9CHTO   C57 3593   8.287   3.874   2.517 -0.0465  0.1104  0.3620
    9CHTO  H114 3594   8.214   3.953   2.534  0.0800  0.2370  0.3197
    9CHTO   N10 3595   8.244   3.756   2.589  0.1200 -0.0706 -0.2863
    9CHTO  H106 3596   8.138   3.739   2.581  0.2092 -0.3735 -0.8095
    9CHTO  H107 3597   8.291   3.671   2.543 -3.5678 -1.4586 -1.6474
    9CHTO   C58 3598   8.275   3.840   2.369 -0.2689 -0.0402  0.3803
    9CHTO  H115 3599   8.336   3.752   2.341  1.3575  0.9387  0.8089
    9CHTO   O37 3600   8.312   3.951   2.291  0.1311  0.5373 -0.3707
    9CHTO   C59 3601   8.453   3.989   2.309 -0.3825 -0.3250 -0.0251
    9CHTO  H116 3602   8.518   3.905   2.286  1.9320  1.3628  0.1496
    9CHTO   C70 3603   8.475   4.083   2.191  0.3901 -1.0309  0.5090
    9CHTO   O46 3604   8.618   4.104   2.174  0.0010 -0.1006  0.3057
    9CHTO  H103 3605   8.625   4.146   2.091 -1.3287  0.8679  0.6597
    9CHTO   O39 3606   8.123   3.808   2.323  0.2824  0.5665  0.2461
    9CHTO   C60 3607   8.086   3.676   2.285 -0.0446  0.0377 -0.2347
    9CHTO  H117 3608   8.174   3.613   2.293  0.0830  0.1177 -0.9433
    9CHTO   C62 3609   7.978   3.623   2.382  0.5071 -0.3687  0.5109
    9CHTO  H119 3610   8.027   3.635   2.481  0.1591  0.5335  0.5863
    9CHTO   O43 3611   7.866   3.721   2.390  0.8788  0.4367  0.2293
    9CHTO  H101 3612   7.881   3.804   2.349  1.1727 -1.0289 -2.7566
    9CHTO   C66 3613   7.948   3.472   2.361 -0.3638 -0.2223  0.0555
    9CHTO  H123 3614   8.041   3.418   2.377 -0.7073 -1.0663 -0.7114
    9CHTO   N12 3615   7.856   3.415   2.462 -0.6352 -0.2597  0.2085
    9CHTO  H110 3616   7.856   3.480   2.549 -0.1350  0.4079 -0.2940
    9CHTO  H111 3617   7.894   3.321   2.499  1.3044  0.7397  0.7989
    9CHTO   C69 3618   7.901   3.452   2.214 -0.1185  0.1487  0.7089
    9CHTO  H126 3619   7.797   3.481   2.188  0.6232  2.7318  0.4557
    9CHTO   O41 3620   7.999   3.530   2.105 -0.5562  0.8451  0.4243
    9CHTO   C64 3621   8.049   3.668   2.135 -0.2649  0.3701  0.2505
    9CHTO  H121 3622   7.972   3.742   2.105  0.4758  0.2814 -1.9179
    9CHTO   C71 3623   8.176   3.687   2.059 -0.5462  0.4976  0.0712
    9CHTO   O47 3624   8.149   3.756   1.940 -0.2103  0.1412  0.4294
    9CHTO  H104 3625   8.228   3.780   1.896 -0.4068 -0.1298 -0.0714
    9CHTO   O34 3626   7.908   3.290   2.186  0.0449 -0.2032  0.7131
    9CHTO   C49 3627   7.983   3.211   2.080  0.1502 -0.4427 -0.5375
    9CHTO   H91 3628   7.966   3.264   1.987 -0.7687  0.1842 -0.0209
    9CHTO   C47 3629   7.930   3.062   2.079 -0.5232 -0.1001  0.1749
    9CHTO   H89 3630   7.981   3.017   1.990 -1.2968  0.9388 -0.7992
    9CHTO   O33 3631   7.789   3.063   2.063  0.1056  0.5359  0.5353
    9CHTO   H70 3632   7.755   3.024   2.141 -1.1038  0.2325 -0.1327
    9CHTO   C45 3633   7.976   2.985   2.220  0.3788  0.1053 -0.9681
    9CHTO   H87 3634   7.889   2.983   2.287  0.3304 -0.1566 -1.0367
    9CHTO    N8 3635   8.011   2.845   2.187 -0.3137  0.1691 -0.1991
    9CHTO   H75 3636   8.068   2.799   2.267 -2.0869 -3.1672 -0.7749
    9CHTO   H76 3637   7.926   2.780   2.171  0.4131 -0.1484 -2.9560
    9CHTO   C43 3638   8.082   3.078   2.295 -1.2251 -0.1155  0.4293
    9CHTO   H85 3639   8.024   3.162   2.334  1.0017  0.8475  1.7771
    9CHTO   O29 3640   8.185   3.118   2.196 -0.1974 -0.0020  0.2267
    9CHTO   C50 3641   8.135   3.213   2.106 -0.7917  0.0231 -0.1718
    9CHTO   H92 3642   8.156   3.313   2.147  2.2652 -0.9950  0.8438
    9CHTO   C54 3643   8.220   3.201   1.979 -0.0562 -0.6945  0.2619
    9CHTO   O36 3644   8.206   3.319   1.893  0.6055  0.5499  0.1135
    9CHTO   H72 3645   8.295   3.348   1.885  0.7812  0.6633  2.0983
    9CHTO   O27 3646   8.144   3.014   2.411 -0.4411  0.2328 -0.0064
    9CHTO   C37 3647   8.193   3.058   2.539  0.0245  0.3374  0.2409
    9CHTO   H79 3648   8.252   2.973   2.575  0.0148  0.2962  0.1612
    9CHTO   C38 3649   8.292   3.182   2.518 -0.1775 -0.6949  0.5165
    9CHTO   H80 3650   8.234   3.255   2.460  2.0365  1.8208  1.3440
    9CHTO   O31 3651   8.409   3.137   2.438 -1.0385 -0.1224  0.1010
    9CHTO   H68 3652   8.380   3.136   2.349 -1.6654 -2.6788  0.2956
    9CHTO   C39 3653   8.341   3.240   2.658  0.0134 -0.3354 -0.5304
    9CHTO   H81 3654   8.408   3.167   2.703  2.0334  0.9281 -1.4099
    9CHTO    N7 3655   8.420   3.370   2.645  0.2974  0.4127 -0.5551
    9CHTO   H73 3656   8.511   3.373   2.587  2.6306  1.2520  3.0117
    9CHTO   H74 3657   8.418   3.429   2.735 -1.3939 -0.8146  0.2430
    9CHTO   C40 3658   8.212   3.269   2.747  0.5806  0.1051 -0.6033
    9CHTO   H82 3659   8.158   3.345   2.692 -1.3300 -3.2024 -3.5011
    9CHTO   O26 3660   8.133   3.149   2.761 -0.0375 -0.7132  0.0884
    9CHTO   C41 3661   8.079   3.097   2.634 -0.3306 -0.0527  0.0510
    9CHTO   H83 3662   8.012   3.173   2.590  1.5321  2.3980  1.3186
    9CHTO   C52 3663   7.979   2.980   2.673 -0.2309 -0.3661  0.4877
    9CHTO   O35 3664   7.875   2.950   2.586  0.2152  0.2771 -0.3339
    9CHTO   H71 3665   7.813   2.887   2.617 -1.3102  0.9493 -1.9269
    9CHTO   O28 3666   8.239   3.289   2.885  0.2300  0.3446  0.1707
    9CHTO   C42 3667   8.160   3.382   2.961  0.0689  0.5749 -0.3848
    9CHTO   H84 3668   8.205   3.377   3.060 -0.1098 -1.8933 -0.4080
    9CHTO   C44 3669   8.008   3.339   2.976 -0.2656 -0.5197  0.0381
    9CHTO   H86 3670   7.962   3.316   2.880 -0.7964 -1.7624  0.5767
    9CHTO   O32 3671   8.010   3.225   3.062 -0.0796  0.3057 -0.2968
    9CHTO   H69 3672   8.033   3.247   3.150 -2.3744  3.0631 -0.3196
    9CHTO   C48 3673   7.925   3.456   3.040  0.0534 -0.4057  0.3335
    9CHTO   H90 3674   7.952   3.460   3.145  0.1983 -0.2864  0.2923
    9CHTO    N9 3675   7.782   3.426   3.047 -0.1699 -0.4154 -0.5770
    9CHTO   H77 3676   7.752   3.322   3.044  0.5299 -0.7339  2.1943
    9CHTO   H78 3677   7.730   3.478   3.126 -1.8007 -1.5019 -0.9026
    9CHTO   C51 3678   7.949   3.584   2.962  0.3808 -0.3657 -0.1697
    9CHTO   H93 3679   7.919   3.563   2.859 -1.6108  0.4181  0.2201
    9CHTO   O30 3680   8.080   3.627   2.972  0.4456 -0.0563  0.4816
    9CHTO   C46 3681   8.187   3.528   2.906  0.6874 -0.2379 -0.2400
    9CHTO   H88 3682   8.181   3.527   2.797 -0.1514  0.0628 -0.1956
    9CHTO   C53 3683   8.320   3.579   2.952 -0.5463 -0.5592  0.1531
    9CHTO   O72 3684   8.339   3.586   3.095  0.2527 -0.0629 -0.2434
    9CHTO  H199 3685   8.354   3.500   3.130  1.5953  0.1477 -0.2741
    9CHTO   O22 3686   7.871   3.696   3.005 -0.2806 -0.2173 -0.7235
    9CHTO   C31 3687   7.855   3.815   2.914 -0.1583  0.0655  0.1061
    9CHTO   H59 3688   7.755   3.857   2.937 -0.5479 -1.7989  1.9734
    9CHTO   C29 3689   7.963   3.927   2.953  0.9529  0.2141  0.9755
    9CHTO   H57 3690   8.066   3.888   2.953  1.2694  1.0018 -0.8604
    9CHTO   O21 3691   7.924   3.972   3.084 -0.1570  0.2750  0.2746
    9CHTO   H37 3692   7.947   3.917   3.156  2.0097 -1.3994 -1.6097
    9CHTO   C27 3693   7.954   4.048   2.851  0.4183  0.4897 -0.3393
    9CHTO   H55 3694   7.858   4.099   2.866 -0.9752 -2.1595  0.0759
    9CHTO    N5 3695   8.057   4.153   2.873 -0.0125  0.2055  0.4640
    9CHTO   H43 3696   8.050   4.197   2.971  2.6835  0.3263  0.6461
    9CHTO   H44 3697   8.155   4.107   2.867 -0.2250 -0.2595  0.4981
    9CHTO   C25 3698   7.967   3.999   2.706  0.2423 -0.3052 -0.5470
    9CHTO   H53 3699   8.061   3.943   2.692 -0.2029 -0.7715 -1.7907
    9CHTO   O17 3700   7.857   3.905   2.677 -0.6895 -0.4609 -0.4688
    9CHTO   C32 3701   7.847   3.786   2.757 -0.2827  0.6900 -0.2814
    9CHTO   H60 3702   7.933   3.726   2.729 -0.1765 -1.2698  3.8581
    9CHTO   C36 3703   7.721   3.717   2.711 -0.2416 -0.5402  0.5992
    9CHTO   O25 3704   7.695   3.588   2.760 -0.4779 -0.4865 -0.2640
    9CHTO   H40 3705   7.621   3.604   2.815 -1.7358 -0.4807 -1.9489
    9CHTO   O15 3706   7.931   4.127   2.604  0.1571 -0.6700  0.0804
    9CHTO   C19 3707   7.899   4.156   2.460  0.0866 -0.0450 -0.3082
    9CHTO   H47 3708   7.891   4.266   2.461  3.1748  0.2268 -1.3909
    9CHTO   C20 3709   8.003   4.119   2.356  0.0253  0.2825  0.2555
    9CHTO   H48 3710   8.041   4.017   2.369 -0.6128 -0.1413 -1.0849
    9CHTO   O19 3711   8.113   4.207   2.371 -0.4158  0.1823  0.7463
    9CHTO   H35 3712   8.167   4.172   2.439  1.1067  0.0545 -0.5153
    9CHTO   C21 3713   7.941   4.132   2.208  0.4683  0.1743  0.8451
    9CHTO   H49 3714   7.912   4.235   2.189 -0.4760 -0.2357  0.0120
    9CHTO    N4 3715   8.033   4.078   2.102  0.1065  0.4307  0.2700
    9CHTO   H41 3716   8.036   3.972   2.124  1.1480  0.9230  2.7550
    9CHTO   H42 3717   7.983   4.092   2.008 -1.8328 -1.1301  1.0344
    9CHTO   C22 3718   7.803   4.056   2.203 -0.2913 -0.1957  0.2321
    9CHTO   H50 3719   7.805   3.952   2.236  1.1462 -0.5292 -0.8328
    9CHTO   O14 3720   7.716   4.116   2.295  0.0778 -0.6795 -0.8793
    9CHTO   C23 3721   7.758   4.100   2.434  0.3345  0.4755 -0.3750
    9CHTO   H51 3722   7.754   3.992   2.452 -1.3099  0.4228 -1.0060
    9CHTO   C34 3723   7.650   4.164   2.513  0.1350 -0.3019  0.2157
    9CHTO   O23 3724   7.674   4.145   2.649  0.1998  0.4550  0.0552
    9CHTO   H38 3725   7.601   4.114   2.699 -0.3246  2.0321  0.3006
    9CHTO   O16 3726   7.725   4.070   2.081  0.2672 -0.6623 -0.0541
    9CHTO   C24 3727   7.588   3.948   2.074 -0.2072 -0.1334  0.4499
    9CHTO   H52 3728   7.578   3.892   2.168  0.7776 -0.5373  0.3215
    9CHTO   C26 3729   7.613   3.851   1.957 -0.2934 -0.3013 -0.2713
    9CHTO   H54 3730   7.646   3.910   1.869  0.7177 -1.0668 -0.4095
    9CHTO   O20 3731   7.728   3.777   2.003 -0.2478  0.7152 -0.2031
    9CHTO   H36 3732   7.748   3.711   1.940 -1.9337 -0.0861  0.0691
    9CHTO   C30 3733   7.485   3.769   1.915 -0.2891 -0.7422  0.1173
    9CHTO   H58 3734   7.461   3.695   1.993 -1.3195 -1.3335 -0.7575
    9CHTO    N6 3735   7.513   3.703   1.784  0.3370 -0.5855  0.0372
    9CHTO   H45 3736   7.508   3.774   1.703 -0.2871 -0.9389 -0.2412
    9CHTO   H46 3737   7.611   3.657   1.784  0.2274 -0.8687  2.0849
    9CHTO   C33 3738   7.349   3.854   1.917  0.2054 -0.0022 -0.0962
    9CHTO   H61 3739   7.357   3.929   1.836 -1.7751  0.5560  0.2035
    9CHTO   O18 3740   7.337   3.932   2.040  0.0572  0.7432  0.0696
    9CHTO   C28 3741   7.449   4.019   2.053 -0.7235  0.2464  0.2315
    9CHTO   H56 3742   7.459   4.074   1.960  0.0910  0.9372  0.7240
    9CHTO   C35 3743   7.427   4.120   2.169 -0.1896  0.0096 -0.9426
    9CHTO   O24 3744   7.334   4.231   2.138 -0.1051 -0.5311  0.0200
    9CHTO   H39 3745   7.242   4.214   2.129 -0.6120  2.0539 -0.1240
    9CHTO    O9 3746   7.226   3.781   1.890  0.2557  0.1436 -0.3148
    9CHTO   C13 3747   7.093   3.861   1.860  0.3268 -0.6069 -0.4065
    9CHTO   H26 3748   7.116   3.917   1.767  1.3696 -0.3538  0.0033
    9CHTO   C11 3749   7.050   3.955   1.978 -0.4310 -0.1271  0.3947
    9CHTO   H24 3750   7.129   4.031   1.991 -1.5506  0.9477  0.9924
    9CHTO    O8 3751   7.038   3.875   2.096  0.1685 -0.1823 -0.1264
    9CHTO    H3 3752   7.127   3.867   2.124  0.2859 -1.4279 -0.8077
    9CHTO    C9 3753   6.922   4.033   1.940  0.8034 -0.2056  0.2641
    9CHTO   H22 3754   6.942   4.080   1.843 -0.5408 -1.1772 -0.4973
    9CHTO    N2 3755   6.888   4.138   2.038 -0.0137  0.4299 -0.1008
    9CHTO   H10 3756   6.888   4.083   2.131 -2.8738  0.8124  0.1689
    9CHTO   H11 3757   6.788   4.176   2.022  0.5198  1.2612 -1.6282
    9CHTO    C7 3758   6.811   3.926   1.915 -0.4373  0.4089  0.9494
    9CHTO   H20 3759   6.729   3.990   1.877  1.3229  1.7578 -0.7183
    9CHTO    O4 3760   6.851   3.832   1.808 -0.0861 -1.0911  0.2452
    9CHTO   C14 3761   6.978   3.767   1.810 -0.0821  0.1271  0.1859
    9CHTO   H27 3762   7.008   3.749   1.704 -0.4133  1.9776 -0.2489
    9CHTO   C18 3763   6.972   3.631   1.880  0.0634  0.2815  0.1891
    9CHTO   O13 3764   7.091   3.551   1.865  0.0792 -0.0439 -0.0945
    9CHTO    H7 3765   7.085   3.482   1.928  0.6792  1.8891  2.1742
    9CHTO    O2 3766   6.765   3.817   2.047 -0.5777  0.3095 -0.1625
    9CHTO    C1 3767   6.627   3.791   2.074 -0.1374 -0.0375  0.2984
    9CHTO   H14 3768   6.622   3.693   2.127  1.9797 -1.0182 -1.2480
    9CHTO    C2 3769   6.537   3.780   1.940  0.7386 -0.2304 -0.1623
    9CHTO   H15 3770   6.543   3.876   1.885  0.9425 -0.7461 -1.0510
    9CHTO    O6 3771   6.587   3.675   1.856  0.9513  0.8593  0.4246
    9CHTO    H1 3772   6.666   3.702   1.814  0.6929 -0.4945 -0.9949
    9CHTO    C3 3773   6.380   3.756   1.985 -0.2397  1.0146 -0.3208
    9CHTO   H16 3774   6.371   3.660   2.038 -0.9095  2.9703  3.2394
    9CHTO    N1 3775   6.293   3.752   1.858 -0.4790 -0.6821 -0.4292
    9CHTO    H8 3776   6.201   3.697   1.870  0.3293 -1.6178  1.7009
    9CHTO    H9 3777   6.264   3.845   1.812 -0.2367  0.0111  0.7725
    9CHTO    C4 3778   6.333   3.863   2.091  0.2947  0.3679 -0.3596
    9CHTO   H17 3779   6.320   3.959   2.040 -1.2691 -0.3491 -1.3361
    9CHTO    O1 3780   6.432   3.882   2.192 -0.1443 -0.1511  0.2647
    9CHTO    C5 3781   6.571   3.907   2.161  0.0949  0.1917 -0.2495
    9CHTO   H18 3782   6.572   4.003   2.109  3.1913 -0.5222 -1.6187
    9CHTO   C16 3783   6.639   3.906   2.300  0.1695 -0.1367  0.3148
    9CHTO   O11 3784   6.774   3.953   2.307  0.6930 -0.0563 -0.1573
    9CHTO    H5 3785   6.794   4.010   2.379  3.1563 -0.7599 -0.2315
    9CHTO    O3 3786   6.221   3.813   2.171 -0.2259 -1.0734 -0.6796
    9CHTO    C6 3787   6.124   3.913   2.177 -0.3172  0.6468 -0.3656
    9CHTO   H19 3788   6.142   3.993   2.105  4.4244  0.5850  0.5729
    9CHTO    C8 3789   5.991   3.840   2.132 -0.2000 -0.0088 -0.5150
    9CHTO   H21 3790   5.974   3.756   2.200 -1.8798  1.0138  0.3713
    9CHTO    O7 3791   5.994   3.792   1.998 -0.4074 -0.6049  0.2866
    9CHTO    H2 3792   6.052   3.719   1.987 -0.0328 -0.5300  1.7135
    9CHTO   C12 3793   5.869   3.936   2.157  0.2799 -0.6431 -0.2118
    9CHTO   H25 3794   5.884   4.017   2.083  0.5811 -2.0482 -1.7334
    9CHTO    N3 3795   5.740   3.873   2.128 -0.3879 -0.4300  0.0904
    9CHTO   H12 3796   5.657   3.937   2.154 -0.2269 -0.3663  0.4461
    9CHTO   H13 3797   5.735   3.844   2.024  0.0565 -0.3730  0.0515
    9CHTO   C15 3798   5.880   3.992   2.302 -0.2661 -0.1462 -0.3936
    9CHTO   H28 3799   5.877   3.920   2.383 -2.3223  0.6828  0.2844
    9CHTO   O10 3800   5.785   4.113   2.335 -0.0050  0.1569  0.2372
    9CHTO    H4 3801   5.776   4.132   2.427 -0.6288 -1.5675  0.5586
    9CHTO    O5 3802   6.000   4.061   2.318  0.1826  0.2616  0.4645
    9CHTO   C10 3803   6.112   3.975   2.322  0.2208 -0.3860  0.1190
    9CHTO   H23 3804   6.103   3.889   2.389 -2.3384 -0.7260 -0.6114
    9CHTO   C17 3805   6.232   4.058   2.366 -0.0630 -0.6526 -0.0307
    9CHTO   O12 3806   6.262   4.172   2.280 -0.3447 -0.1813  1.1557
    9CHTO    H6 3807   6.344   4.169   2.236  0.3938  3.1768  2.0808
   10CHTO  H203 3808   5.495   6.335  -0.627  0.5593 -1.6033  0.2806
   10CHTO   O82 3809   5.425   6.290  -0.583 -0.3271 -0.2133  0.2950
   10CHTO  C123 3810   5.297   6.352  -0.616  0.0068  0.0347  0.1885
   10CHTO  H227 3811   5.281   6.358  -0.724 -0.7531  0.8721  0.3520
   10CHTO   O77 3812   5.199   6.264  -0.549 -1.0035  0.2136 -0.1759
   10CHTO  C118 3813   5.064   6.305  -0.564 -0.5515  0.8578 -0.2156
   10CHTO  H222 3814   5.037   6.315  -0.670  1.1332  1.4698 -0.6001
   10CHTO  C125 3815   4.971   6.196  -0.501 -0.2375 -0.2362  0.1644
   10CHTO   O84 3816   4.969   6.088  -0.598  0.0775 -1.1405 -0.2143
   10CHTO  H205 3817   4.903   6.102  -0.663  0.5192 -2.4911 -0.9665
   10CHTO  C114 3818   5.039   6.435  -0.482 -0.1815  0.3159 -0.1001
   10CHTO  H218 3819   5.063   6.420  -0.377 -1.2583 -2.7236 -0.2364
   10CHTO  C116 3820   5.130   6.540  -0.548 -0.2099  0.9413 -0.1827
   10CHTO  H220 3821   5.087   6.564  -0.648 -2.1454  0.7265  0.5901
   10CHTO   O79 3822   5.119   6.662  -0.474 -0.5598 -0.0105  0.2075
   10CHTO  H201 3823   5.193   6.718  -0.487  1.1353 -2.3164 -0.5272
   10CHTO  C120 3824   5.280   6.496  -0.555 -0.1548  0.1706 -0.0700
   10CHTO  H224 3825   5.320   6.498  -0.452  0.4166  1.5731 -0.3073
   10CHTO   N21 3826   5.365   6.595  -0.618  0.1655  0.4387  0.4010
   10CHTO  H211 3827   5.467   6.585  -0.584  1.0752  0.8002 -2.1316
   10CHTO  H212 3828   5.365   6.599  -0.726  1.3441  1.2136  0.4135
   10CHTO   O75 3829   4.896   6.474  -0.493  0.0410  0.0214  0.4923
   10CHTO  C112 3830   4.808   6.512  -0.353  0.2557 -0.2566  0.3172
   10CHTO  H216 3831   4.876   6.568  -0.287 -0.2716 -1.7458  2.1704
   10CHTO   O73 3832   4.769   6.391  -0.290  0.2893 -0.2172 -0.4185
   10CHTO  C113 3833   4.694   6.411  -0.169 -0.6756  0.3517  0.5814
   10CHTO  H217 3834   4.756   6.465  -0.094 -2.8938  0.3604  2.4643
   10CHTO  C124 3835   4.663   6.273  -0.110  0.1613  0.2126  0.0881
   10CHTO   O83 3836   4.781   6.194  -0.083 -0.3049 -0.3095 -0.5162
   10CHTO  H204 3837   4.755   6.106  -0.064 -0.0659 -0.1867  0.4358
   10CHTO  C109 3838   4.571   6.505  -0.178  0.7378 -0.3922  0.1293
   10CHTO  H213 3839   4.499   6.453  -0.244 -0.0967 -0.0467  0.7549
   10CHTO  C110 3840   4.604   6.633  -0.248  0.1635 -0.3878 -0.0409
   10CHTO  H214 3841   4.655   6.691  -0.171  0.1382  2.9585 -2.4600
   10CHTO   O78 3842   4.476   6.705  -0.274 -0.2748  0.5521 -0.8343
   10CHTO  H200 3843   4.408   6.649  -0.307 -1.0705  1.7151 -1.2085
   10CHTO  C111 3844   4.688   6.611  -0.379  0.0549  0.0591 -0.3303
   10CHTO  H215 3845   4.624   6.573  -0.460  2.1795 -1.2373 -1.4351
   10CHTO   N19 3846   4.744   6.737  -0.437 -0.1563  0.2216  0.1401
   10CHTO  H207 3847   4.725   6.745  -0.543 -0.3136 -2.5913 -0.0742
   10CHTO  H208 3848   4.746   6.826  -0.375 -1.9256 -0.1158  0.7011
   10CHTO   O74 3849   4.507   6.524  -0.053  0.0713  0.1195  0.0786
   10CHTO  C115 3850   4.347   6.505  -0.058 -0.6856  0.2243 -0.7156
   10CHTO  H219 3851   4.302   6.541  -0.150 -1.1389 -1.1476 -1.0398
   10CHTO   O76 3852   4.311   6.346  -0.059 -0.1760  0.0877 -0.0310
   10CHTO  C122 3853   4.319   6.276   0.061  0.3409 -0.1115 -0.1987
   10CHTO  H226 3854   4.426   6.280   0.081  0.7121 -2.1049 -1.5982
   10CHTO  C126 3855   4.288   6.121   0.059 -0.3237 -0.2640 -0.3359
   10CHTO   O85 3856   4.311   6.080   0.191  0.3006  0.4474  0.2851
   10CHTO  H206 3857   4.319   5.987   0.198  1.7715  0.6012  0.7981
   10CHTO  C121 3858   4.251   6.354   0.183  0.0588 -0.2522  0.2469
   10CHTO  H225 3859   4.178   6.290   0.237 -2.5780  1.4741 -1.1412
   10CHTO   O81 3860   4.343   6.381   0.285  0.5232  0.3109  0.6659
   10CHTO  H202 3861   4.420   6.327   0.282  0.2331 -0.1236  0.8980
   10CHTO  C119 3862   4.176   6.486   0.142 -0.2720  0.9517  0.5249
   10CHTO  H223 3863   4.092   6.456   0.080 -1.5461  2.8610  1.2674
   10CHTO  C117 3864   4.283   6.581   0.069  0.2107 -0.4109 -0.1062
   10CHTO  H221 3865   4.367   6.606   0.133 -0.0417  1.6778 -0.5695
   10CHTO   N20 3866   4.216   6.711   0.029 -0.0456  0.2279  0.2203
   10CHTO  H209 3867   4.115   6.689  -0.004  0.4688 -2.7178  0.4649
   10CHTO  H210 3868   4.276   6.753  -0.050  0.2316 -1.0418 -0.2733
   10CHTO   O80 3869   4.092   6.554   0.260  0.2197  0.1796 -0.2041
   10CHTO  C103 3870   3.925   6.518   0.280 -0.7267  0.2916  0.0038
   10CHTO  H190 3871   3.870   6.601   0.325 -2.2712 -0.3996 -0.5592
   10CHTO  C101 3872   3.844   6.480   0.152 -0.1752  0.0223 -0.4541
   10CHTO  H188 3873   3.892   6.398   0.100  0.6302  1.2499 -1.6707
   10CHTO   O68 3874   3.842   6.595   0.057 -0.3150 -0.0081  0.0160
   10CHTO  H168 3875   3.818   6.679   0.091  0.3726  0.1679  0.0752
   10CHTO   C99 3876   3.691   6.447   0.202  1.0473  0.2503 -0.2593
   10CHTO  H186 3877   3.644   6.540   0.242  1.1615 -0.5138  1.7378
   10CHTO   N17 3878   3.598   6.394   0.089  0.4411  0.5258 -0.1567
   10CHTO  H174 3879   3.644   6.386  -0.008  1.4202 -0.8028  0.4111
   10CHTO  H175 3880   3.503   6.446   0.089 -0.0675 -0.3792  0.9387
   10CHTO   C97 3881   3.691   6.346   0.326  0.3588 -0.4240  0.3755
   10CHTO  H184 3882   3.714   6.247   0.284 -0.0295  0.0419 -0.9424
   10CHTO   O64 3883   3.785   6.381   0.427 -0.0806  0.1430 -0.3054
   10CHTO  C104 3884   3.925   6.391   0.375  0.0959  0.0407 -0.1177
   10CHTO  H191 3885   3.969   6.308   0.321 -2.6150 -0.7204 -1.2563
   10CHTO  C108 3886   4.014   6.427   0.498  0.2495  0.4837  0.0213
   10CHTO   O71 3887   4.044   6.314   0.578  0.5450 -0.4018 -0.2080
   10CHTO  H171 3888   4.086   6.355   0.651 -0.4500  0.4030 -0.0654
   10CHTO   O62 3889   3.568   6.357   0.393  0.1778 -0.0961  0.0974
   10CHTO   C91 3890   3.480   6.242   0.403  0.0049  0.6874  0.2443
   10CHTO  H178 3891   3.484   6.189   0.308  0.0397  0.8199  0.1727
   10CHTO   C92 3892   3.337   6.292   0.430 -0.6516  0.7788  0.3180
   10CHTO  H179 3893   3.311   6.379   0.368 -0.5552  0.3306 -0.3556
   10CHTO   O66 3894   3.256   6.179   0.384  0.7550 -0.2451  0.2958
   10CHTO  H166 3895   3.166   6.197   0.403  0.8040 -0.9619  1.2289
   10CHTO   C93 3896   3.302   6.316   0.583 -0.1712  0.6605 -0.5136
   10CHTO  H180 3897   3.195   6.289   0.588  0.3907 -1.4774  0.6589
   10CHTO   N16 3898   3.315   6.455   0.630 -0.4870  0.5556 -0.3261
   10CHTO  H172 3899   3.218   6.501   0.644 -0.6922  0.0185  0.0422
   10CHTO  H173 3900   3.367   6.500   0.547 -0.2553  0.6795 -0.1120
   10CHTO   C94 3901   3.386   6.215   0.680 -0.3463 -0.6810 -0.1936
   10CHTO  H181 3902   3.474   6.263   0.723 -0.7088  1.1248 -1.4286
   10CHTO   O61 3903   3.421   6.098   0.605 -0.0919  0.1331  0.1843
   10CHTO   C95 3904   3.518   6.123   0.506 -0.8931 -0.2774 -0.6148
   10CHTO  H182 3905   3.602   6.164   0.563 -2.0459 -0.7280  1.4308
   10CHTO  C106 3906   3.558   5.996   0.435  0.0225  0.2986  0.0575
   10CHTO   O69 3907   3.654   5.998   0.332  0.2495  0.2900 -0.3309
   10CHTO  H169 3908   3.733   6.020   0.378 -0.3922 -0.6257  1.2609
   10CHTO   O63 3909   3.305   6.163   0.801 -0.3926 -0.3288  0.1454
   10CHTO   C96 3910   3.384   6.089   0.912  0.7441  0.0003  0.7755
   10CHTO  H183 3911   3.491   6.080   0.896  0.5186 -1.3928 -0.0633
   10CHTO   C98 3912   3.334   5.943   0.943  0.2410 -0.0408  0.0845
   10CHTO  H185 3913   3.228   5.947   0.971 -0.0406  0.5986 -1.0716
   10CHTO   O67 3914   3.334   5.869   0.827 -0.0093  0.2420  0.0307
   10CHTO  H167 3915   3.385   5.907   0.758 -0.5665  0.0493 -0.4914
   10CHTO  C102 3916   3.418   5.880   1.064  0.1712  0.6831  0.3344
   10CHTO  H189 3917   3.522   5.857   1.034 -0.0045 -0.4886  0.5867
   10CHTO   N18 3918   3.366   5.749   1.111  0.1205 -0.0737 -0.0056
   10CHTO  H176 3919   3.445   5.689   1.153 -1.6733 -2.5916 -0.0727
   10CHTO  H177 3920   3.318   5.698   1.028 -0.7731  0.4209  0.1980
   10CHTO  C105 3921   3.410   5.982   1.180  0.0958  0.4591 -0.5820
   10CHTO  H192 3922   3.309   5.989   1.220  0.7007 -2.1002  1.4927
   10CHTO   O65 3923   3.446   6.111   1.146  0.4024 -0.4168  0.1200
   10CHTO  C100 3924   3.368   6.170   1.045 -0.4079  0.2119  0.3244
   10CHTO  H187 3925   3.260   6.181   1.062 -0.5164  0.4323 -0.4995
   10CHTO  C107 3926   3.414   6.319   1.050  0.1581  0.6281  0.1133
   10CHTO   O70 3927   3.556   6.333   1.035 -0.1550 -0.4728  0.1139
   10CHTO  H170 3928   3.586   6.421   1.046  0.3508 -0.6105 -0.1788
   10CHTO   O57 3929   3.517   5.934   1.290  0.1389 -0.4360  0.4656
   10CHTO   C85 3930   3.489   5.976   1.424 -0.0044 -1.1710 -0.0340
   10CHTO  H157 3931   3.380   5.960   1.438 -0.8527  3.8857  0.0717
   10CHTO   C83 3932   3.508   6.128   1.446  0.4926  0.0005 -0.3042
   10CHTO  H155 3933   3.443   6.182   1.377  0.2876 -1.6353 -1.4332
   10CHTO   O56 3934   3.644   6.159   1.398  0.1637 -0.3248  0.0840
   10CHTO  H135 3935   3.691   6.094   1.349  0.0030 -2.6386  2.8143
   10CHTO   C81 3936   3.466   6.171   1.594 -0.4376 -0.0480  0.0119
   10CHTO  H153 3937   3.359   6.152   1.601 -0.6829  0.1196 -2.6715
   10CHTO   N14 3938   3.475   6.321   1.616 -0.6569 -0.2195  0.1104
   10CHTO  H141 3939   3.424   6.379   1.542 -1.2965 -1.1059 -0.1524
   10CHTO  H142 3940   3.577   6.352   1.615 -0.7651  0.1210 -1.2398
   10CHTO   C79 3941   3.543   6.075   1.696 -0.1565  0.4773  0.2761
   10CHTO  H151 3942   3.491   6.085   1.792 -1.5499  0.1977 -0.4329
   10CHTO   O52 3943   3.529   5.932   1.657 -0.1471  0.0834  0.3216
   10CHTO   C86 3944   3.576   5.893   1.527  0.2803  1.1474 -0.4841
   10CHTO  H158 3945   3.682   5.925   1.540  0.3813 -0.3264  2.6988
   10CHTO   C90 3946   3.571   5.736   1.504 -0.2030  0.1315  0.9467
   10CHTO   O60 3947   3.688   5.669   1.560  0.5672 -0.3383 -0.0243
   10CHTO  H138 3948   3.677   5.577   1.574 -2.4424 -0.0772 -0.2368
   10CHTO   O50 3949   3.685   6.099   1.702 -0.3734 -0.3444 -0.7273
   10CHTO   C73 3950   3.784   6.057   1.794 -0.1167  0.6635  0.8182
   10CHTO  H145 3951   3.780   5.951   1.823  1.4590  0.2094 -0.6088
   10CHTO   C74 3952   3.761   6.126   1.936 -0.2205  0.1861 -0.1747
   10CHTO  H146 3953   3.655   6.106   1.960 -0.0809  0.8026  1.0239
   10CHTO   O54 3954   3.840   6.065   2.041  0.0048 -0.0856 -0.4250
   10CHTO  H133 3955   3.813   5.976   2.053 -0.1370 -0.1061 -0.9019
   10CHTO   C75 3956   3.786   6.283   1.920 -0.2151 -0.4126  0.3335
   10CHTO  H147 3957   3.703   6.325   1.861 -1.8825 -2.0194  1.4465
   10CHTO   N13 3958   3.758   6.365   2.045  0.1104  0.2808  0.3382
   10CHTO  H139 3959   3.758   6.305   2.135 -0.3896 -1.4156 -0.7593
   10CHTO  H140 3960   3.658   6.406   2.036 -0.0955  0.3188  2.3699
   10CHTO   C76 3961   3.934   6.316   1.863  0.1807  0.6035 -0.3238
   10CHTO  H148 3962   4.004   6.278   1.937 -0.1791 -1.6409 -1.0736
   10CHTO   O49 3963   3.950   6.240   1.739 -0.1293 -0.2951 -0.0131
   10CHTO   C77 3964   3.930   6.092   1.744  0.0228 -0.5767 -0.3141
   10CHTO  H149 3965   4.006   6.045   1.805 -1.2739 -0.2986  1.5580
   10CHTO   C88 3966   3.959   6.042   1.605  0.3970  1.1608 -0.4171
   10CHTO   O58 3967   3.987   5.893   1.589  0.5404 -0.6750  0.3992
   10CHTO  H136 3968   3.919   5.846   1.633  0.9771 -0.4672  1.2989
   10CHTO   O51 3969   3.946   6.484   1.831 -0.1030  0.5706 -0.5330
   10CHTO   C78 3970   4.075   6.548   1.873  0.0006 -0.0154 -0.3629
   10CHTO  H150 3971   4.160   6.478   1.860 -0.8997 -1.7212  2.5059
   10CHTO   C80 3972   4.072   6.591   2.021 -0.5303 -0.3302 -0.1533
   10CHTO  H152 3973   3.981   6.649   2.043 -0.3419 -0.4569  1.0077
   10CHTO   O55 3974   4.053   6.472   2.097 -0.2791  0.3478 -0.5604
   10CHTO  H134 3975   4.043   6.491   2.188  0.3996  0.3278 -0.4759
   10CHTO   C84 3976   4.204   6.664   2.070 -0.4113 -0.3600  0.2343
   10CHTO  H156 3977   4.280   6.588   2.088  1.2343  1.4004  0.9832
   10CHTO   N15 3978   4.198   6.721   2.205 -0.1090 -0.0049 -0.6342
   10CHTO  H143 3979   4.263   6.804   2.223 -0.0447 -0.0751 -0.5364
   10CHTO  H144 3980   4.202   6.655   2.289  0.7429  1.5732  0.5943
   10CHTO   C87 3981   4.256   6.773   1.967 -0.4322  0.0355 -0.7248
   10CHTO  H159 3982   4.196   6.863   1.976 -0.4400 -0.0902  0.5555
   10CHTO   O53 3983   4.245   6.718   1.826  0.4193 -0.2252 -0.0369
   10CHTO   C82 3984   4.124   6.665   1.788  0.1540  0.3157 -0.0820
   10CHTO  H154 3985   4.052   6.747   1.796 -0.7918 -0.2664 -2.3334
   10CHTO   C89 3986   4.120   6.614   1.640  0.3683  0.0766  1.0445
   10CHTO   O59 3987   4.139   6.718   1.540  0.4146  0.3317 -0.2985
   10CHTO  H137 3988   4.055   6.740   1.505 -0.3287 -1.6232  0.2040
   10CHTO   O45 3989   4.416   6.792   1.988 -0.5982 -0.3083 -0.7419
   10CHTO   C67 3990   4.459   6.926   1.954  0.7760  0.1070  0.1709
   10CHTO  H124 3991   4.393   6.969   1.879 -0.5240 -1.1296  0.5829
   10CHTO   C65 3992   4.446   7.017   2.079 -0.1357  0.2985  0.7569
   10CHTO  H122 3993   4.468   6.963   2.170  1.7552  2.8419  1.8645
   10CHTO   O44 3994   4.305   7.059   2.075  0.4869  0.4602  0.5741
   10CHTO  H102 3995   4.248   7.005   2.127  0.2245 -0.6624 -0.8580
   10CHTO   C63 3996   4.557   7.127   2.090  0.2099  1.1939 -0.4191
   10CHTO  H120 3997   4.650   7.076   2.118 -1.7957 -2.2785  0.2276
   10CHTO   N11 3998   4.540   7.230   2.203  1.0504 -0.3244 -0.1964
   10CHTO  H108 3999   4.536   7.329   2.163  0.3457  0.0628  0.8382
   10CHTO  H109 4000   4.463   7.198   2.270  0.4311  1.2559 -0.1442
   10CHTO   C61 4001   4.581   7.179   1.949  0.4572 -0.1047 -0.1450
   10CHTO  H118 4002   4.663   7.253   1.956  1.0207 -0.5792 -1.5769
   10CHTO   O40 4003   4.624   7.072   1.845 -0.9656  0.0244  0.1489
   10CHTO   C68 4004   4.601   6.935   1.889 -0.3946 -0.2493 -0.0400
   10CHTO  H125 4005   4.683   6.908   1.959 -0.3948 -1.0152 -0.3306
   10CHTO   C72 4006   4.611   6.843   1.765  0.4355 -0.4005  0.8058
   10CHTO   O48 4007   4.747   6.826   1.731 -0.2925 -0.5296  0.4179
   10CHTO  H105 4008   4.758   6.745   1.684 -1.0493  0.1653 -1.0025
   10CHTO   O38 4009   4.466   7.243   1.900  0.1361 -0.5115 -0.2411
   10CHTO   C55 4010   4.465   7.352   1.802  0.0539 -0.3624 -0.4943
   10CHTO  H112 4011   4.376   7.332   1.741 -0.0455 -0.4415 -0.3248
   10CHTO   C56 4012   4.596   7.360   1.712  0.3417 -0.9230 -0.4266
   10CHTO  H113 4013   4.683   7.334   1.773  0.0769  0.7861  0.7140
   10CHTO   O42 4014   4.595   7.248   1.626 -0.2892 -0.3043 -0.9439
   10CHTO  H100 4015   4.512   7.247   1.582 -1.6875  0.6117  1.5958
   10CHTO   C57 4016   4.610   7.495   1.629  0.1309  0.5707 -0.3806
   10CHTO  H114 4017   4.546   7.495   1.541  1.1352  0.3697 -1.1139
   10CHTO   N10 4018   4.744   7.510   1.571  0.0932 -1.1329 -0.7342
   10CHTO  H106 4019   4.741   7.499   1.464 -1.3347 -0.4019 -0.7820
   10CHTO  H107 4020   4.794   7.604   1.592 -1.1667 -0.3231 -1.3125
   10CHTO   C58 4021   4.576   7.612   1.718 -0.1222 -0.3093  0.2556
   10CHTO  H115 4022   4.655   7.630   1.794  0.5977 -0.0593 -0.5382
   10CHTO   O37 4023   4.445   7.597   1.773  0.1418  0.1657  0.1679
   10CHTO   C59 4024   4.440   7.492   1.874 -0.4499  1.0317 -0.3562
   10CHTO  H116 4025   4.517   7.506   1.950  1.6538  0.7467 -2.3738
   10CHTO   C70 4026   4.304   7.500   1.935  0.6113 -0.0522 -0.9069
   10CHTO   O46 4027   4.281   7.625   2.001  0.0286 -0.3178 -0.1719
   10CHTO  H103 4028   4.337   7.650   2.073 -1.1154  0.1574  0.5607
   10CHTO   O39 4029   4.576   7.752   1.631  0.3397  0.8380  0.4578
   10CHTO   C60 4030   4.595   7.877   1.698  1.0349  0.3334  0.1512
   10CHTO  H117 4031   4.569   7.947   1.619  0.4024  0.8049  0.7724
   10CHTO   C62 4032   4.506   7.892   1.827  0.1890 -0.3707 -0.5069
   10CHTO  H119 4033   4.405   7.851   1.804 -0.1322 -0.7908  1.5863
   10CHTO   O43 4034   4.533   7.822   1.943  0.4682  0.1382  0.0156
   10CHTO  H101 4035   4.524   7.729   1.947 -4.1074  0.3896 -2.0477
   10CHTO   C66 4036   4.492   8.049   1.853  0.1151 -0.1443 -0.3877
   10CHTO  H123 4037   4.472   8.106   1.762 -0.6063  0.1641 -0.0365
   10CHTO   N12 4038   4.384   8.086   1.941  0.6682  0.3823  0.4011
   10CHTO  H110 4039   4.291   8.063   1.891 -0.2496 -2.2945  3.1952
   10CHTO  H111 4040   4.397   8.037   2.036 -0.0476 -0.3155  0.1435
   10CHTO   C69 4041   4.637   8.093   1.901 -0.3961 -0.0818 -0.1819
   10CHTO  H126 4042   4.658   8.045   1.999  1.6069 -0.0984 -0.6137
   10CHTO   O41 4043   4.748   8.059   1.801 -0.4879  0.3368 -0.9869
   10CHTO   C64 4044   4.742   7.913   1.742  0.6380 -0.5729  0.5554
   10CHTO  H121 4045   4.776   7.836   1.815 -1.6173 -0.3702  1.8561
   10CHTO   C71 4046   4.851   7.897   1.633 -0.3907  0.7682 -0.4545
   10CHTO   O47 4047   4.980   7.887   1.685 -0.3194 -0.0316  0.1713
   10CHTO  H104 4048   5.009   7.976   1.692 -0.0524  0.1544 -2.6103
   10CHTO   O34 4049   4.640   8.238   1.925 -0.2529 -1.2007  0.2303
   10CHTO   C49 4050   4.692   8.379   1.852  0.0975  0.0738  0.1760
   10CHTO   H91 4051   4.799   8.368   1.835  0.2595  1.0188  0.5438
   10CHTO   C47 4052   4.678   8.501   1.945  0.3087 -0.3048  0.1871
   10CHTO   H89 4053   4.721   8.589   1.892  0.8208 -0.9475 -0.4787
   10CHTO   O33 4054   4.756   8.478   2.062  0.8499  0.1846  0.1881
   10CHTO   H70 4055   4.784   8.561   2.096  1.2219  0.8354 -1.6394
   10CHTO   C45 4056   4.528   8.533   1.966  0.1168 -0.0564  0.1142
   10CHTO   H87 4057   4.480   8.439   1.996 -2.2271  0.6096 -1.3356
   10CHTO    N8 4058   4.494   8.634   2.068  0.6087 -0.1092 -0.6957
   10CHTO   H75 4059   4.556   8.722   2.061  2.9848 -1.7212 -0.2915
   10CHTO   H76 4060   4.502   8.596   2.168 -2.1748 -1.0098 -0.7524
   10CHTO   C43 4061   4.471   8.576   1.826 -0.6915 -0.0086  0.0871
   10CHTO   H85 4062   4.364   8.599   1.830 -0.2741  1.9649 -0.0155
   10CHTO   O29 4063   4.494   8.460   1.736  0.0038 -0.1820 -0.2775
   10CHTO   C50 4064   4.623   8.403   1.716 -0.2996 -0.0605  0.2988
   10CHTO   H92 4065   4.602   8.306   1.669 -1.4042  0.2034  0.2208
   10CHTO   C54 4066   4.703   8.486   1.612  0.0510 -1.0718 -0.0509
   10CHTO   O36 4067   4.635   8.460   1.491 -0.6473 -0.3294 -0.0818
   10CHTO   H72 4068   4.680   8.397   1.439 -0.6666 -0.5829  0.2115
   10CHTO   O27 4069   4.533   8.689   1.767 -0.5338 -0.3838 -0.2080
   10CHTO   C37 4070   4.510   8.815   1.708 -0.3143  0.4743 -0.0639
   10CHTO   H79 4071   4.583   8.824   1.627 -0.2842  0.3576 -0.0493
   10CHTO   C38 4072   4.367   8.819   1.650 -0.1003  0.7050  0.0288
   10CHTO   H80 4073   4.302   8.794   1.734 -0.6307 -1.7117 -1.0435
   10CHTO   O31 4074   4.348   8.718   1.549  0.2525 -0.1254 -0.2638
   10CHTO   H68 4075   4.314   8.641   1.591 -1.9309  1.2467  0.5206
   10CHTO   C39 4076   4.347   8.968   1.588 -0.3990 -0.2986 -0.0338
   10CHTO   H81 4077   4.410   8.980   1.501 -0.5859 -0.7204 -0.2270
   10CHTO    N7 4078   4.208   8.993   1.532  0.5243  0.1130 -0.2132
   10CHTO   H73 4079   4.139   8.994   1.615 -1.2412  0.2956 -1.6574
   10CHTO   H74 4080   4.182   8.918   1.458 -0.2465 -0.8736  1.0399
   10CHTO   C40 4081   4.387   9.080   1.681 -0.4420  0.2647  0.2478
   10CHTO   H82 4082   4.318   9.092   1.765  0.0314  1.3194  0.5013
   10CHTO   O26 4083   4.524   9.055   1.726 -0.0419 -0.5348 -0.4976
   10CHTO   C41 4084   4.538   8.935   1.808 -0.3398 -0.0391  0.1192
   10CHTO   H83 4085   4.467   8.937   1.891  0.3468  2.5780  0.7056
   10CHTO   C52 4086   4.678   8.934   1.858 -0.2924 -0.1047  0.0139
   10CHTO   O35 4087   4.713   9.040   1.955  0.1192 -0.2750 -0.7409
   10CHTO   H71 4088   4.716   9.007   2.043 -0.4149 -1.1850 -1.0522
   10CHTO   O28 4089   4.405   9.211   1.626  0.0498 -0.0231 -0.1716
   10CHTO   C42 4090   4.368   9.339   1.685 -0.8716 -0.4306 -0.2850
   10CHTO   H84 4091   4.332   9.320   1.786  3.2792 -3.6042  0.7563
   10CHTO   C44 4092   4.251   9.422   1.611  0.4220 -0.3321  0.9887
   10CHTO   H86 4093   4.293   9.462   1.519 -3.7051  0.9189 -0.4728
   10CHTO   O32 4094   4.138   9.337   1.589  0.2659  0.4355 -0.3176
   10CHTO   H69 4095   4.091   9.329   1.670  2.4914  1.3017  1.1294
   10CHTO   C48 4096   4.212   9.555   1.686  0.0669 -1.2224 -0.5088
   10CHTO   H90 4097   4.163   9.532   1.781  1.3400  0.5952  0.6164
   10CHTO    N9 4098   4.099   9.641   1.619 -0.3808  0.9896  0.1431
   10CHTO   H77 4099   4.047   9.581   1.545  1.7719 -1.0393  0.2057
   10CHTO   H78 4100   4.117   9.739   1.577  1.5628  0.1971 -0.9214
   10CHTO   C51 4101   4.336   9.650   1.708 -0.2191  0.1380 -0.1343
   10CHTO   H93 4102   4.374   9.685   1.612 -0.2756 -0.1468 -0.2606
   10CHTO   O30 4103   4.428   9.569   1.776  0.4471 -0.0149 -0.0334
   10CHTO   C46 4104   4.485   9.438   1.704 -0.5025 -0.3811 -0.2616
   10CHTO   H88 4105   4.528   9.456   1.606  0.1753  0.2461  0.1488
   10CHTO   C53 4106   4.588   9.380   1.802  0.3951 -0.0890 -0.3440
   10CHTO   O72 4107   4.704   9.463   1.821 -0.1460 -0.3871  0.7002
   10CHTO  H199 4108   4.739   9.463   1.908  0.5433  0.9887  0.4357
   10CHTO   O22 4109   4.304   9.762   1.790 -0.1415  0.1433  0.4085
   10CHTO   C31 4110   4.381   9.886   1.793  0.5332 -0.1093  0.0974
   10CHTO   H59 4111   4.323   9.957   1.857  0.7088  1.1148 -1.0753
   10CHTO   C29 4112   4.522   9.871   1.857  0.6832  0.6529 -0.4651
   10CHTO   H57 4113   4.579   9.797   1.799 -0.8968 -1.4513  0.5515
   10CHTO   O21 4114   4.504   9.804   1.986  0.0713  0.1983 -0.3541
   10CHTO   H37 4115   4.585   9.762   2.010  0.2215  1.2214  0.9972
   10CHTO   C27 4116   4.603  10.008   1.865  0.5341  0.7775  0.7696
   10CHTO   H55 4117   4.552  10.073   1.937 -1.4900  0.3912 -0.2767
   10CHTO    N5 4118   4.739   9.979   1.923  0.2934  0.1450  0.4637
   10CHTO   H43 4119   4.777   9.898   1.862  0.3245  0.3760  0.1729
   10CHTO   H44 4120   4.798  10.069   1.917  0.9882 -0.3430 -0.2670
   10CHTO   C25 4121   4.607  10.076   1.721  0.1162 -0.3400  0.1425
   10CHTO   H53 4122   4.684  10.016   1.670 -1.8178 -2.1340 -0.6875
   10CHTO   O17 4123   4.479  10.082   1.651  0.0571 -0.4027  0.0394
   10CHTO   C32 4124   4.398   9.963   1.655 -0.2001 -0.1378  0.5821
   10CHTO   H60 4125   4.452   9.893   1.592 -1.8162 -0.9965  0.1367
   10CHTO   C36 4126   4.256   9.987   1.591 -0.5610  0.1715  0.5476
   10CHTO   O25 4127   4.277  10.040   1.454  0.2811  0.1443 -0.9216
   10CHTO   H40 4128   4.293   9.971   1.393 -1.2396 -0.2783 -0.8761
   10CHTO   O15 4129   4.661  10.238   1.724 -0.1310 -0.1548  0.2021
   10CHTO   C19 4130   4.707  10.310   1.603  0.3438 -0.0613 -0.3720
   10CHTO   H47 4131   4.660  10.257   1.520 -0.7263  1.1283 -0.5385
   10CHTO   C20 4132   4.667  10.458   1.611  0.3175  0.3699  0.1340
   10CHTO   H48 4133   4.688  10.503   1.709  0.7970 -0.5332  0.4527
   10CHTO   O19 4134   4.524  10.460   1.603 -0.1672 -0.0656  0.0889
   10CHTO   H35 4135   4.478  10.542   1.604 -0.8586 -0.4406  2.7934
   10CHTO   C21 4136   4.718  10.553   1.490 -0.5162 -0.6081  0.6347
   10CHTO   H49 4137   4.659  10.544   1.399  0.0924  0.2695  0.1557
   10CHTO    N4 4138   4.708  10.702   1.513  0.1787 -0.0662 -0.3775
   10CHTO   H41 4139   4.763  10.750   1.433  0.4506  1.2389  0.5620
   10CHTO   H42 4140   4.752  10.734   1.607 -0.0926  1.3382 -0.7188
   10CHTO   C22 4141   4.866  10.506   1.453 -0.2981  0.7034 -0.0746
   10CHTO   H50 4142   4.936  10.567   1.510 -0.4057  2.8196 -2.1293
   10CHTO   O14 4143   4.893  10.363   1.463  0.2244  0.1426 -0.5710
   10CHTO   C23 4144   4.859  10.298   1.582  0.2064  0.0117  0.6745
   10CHTO   H51 4145   4.918  10.342   1.664  0.3456  1.0478  0.0206
   10CHTO   C34 4146   4.903  10.154   1.568 -0.0230  0.4217  0.0028
   10CHTO   O23 4147   5.042  10.152   1.532  0.3654  0.2150  0.3130
   10CHTO   H38 4148   5.077  10.065   1.540  1.9017  0.8240  0.4076
   10CHTO   O16 4149   4.881  10.533   1.310 -0.0898 -0.1111 -0.2995
   10CHTO   C24 4150   5.045  10.587   1.283  0.7453 -0.4828 -0.4115
   10CHTO   H52 4151   5.101  10.600   1.376  0.4944  0.1990 -0.3533
   10CHTO   C26 4152   5.046  10.720   1.226 -0.1687 -0.2777 -0.8129
   10CHTO   H54 4153   4.987  10.720   1.132 -0.2716  0.5667 -0.7515
   10CHTO   O20 4154   4.977  10.807   1.320  0.0633  0.0593 -0.2205
   10CHTO   H36 4155   4.885  10.807   1.301 -0.2972  0.3037  1.4235
   10CHTO   C30 4156   5.188  10.782   1.200  0.9965  0.2661 -0.4320
   10CHTO   H58 4157   5.244  10.802   1.293  0.4952  1.0404 -0.3007
   10CHTO    N6 4158   5.177  10.913   1.125  0.1518 -0.4621 -0.1913
   10CHTO   H45 4159   5.254  10.983   1.153  0.8001 -0.6992 -1.3366
   10CHTO   H46 4160   5.186  10.891   1.020  1.8540 -2.6632  0.3806
   10CHTO   C33 4161   5.264  10.670   1.124 -0.3894  0.4664 -0.0874
   10CHTO   H61 4162   5.224  10.660   1.022 -0.2409  0.8875 -0.1884
   10CHTO   O18 4163   5.260  10.542   1.191  0.2798  0.4202  0.1328
   10CHTO   C28 4164   5.127  10.489   1.200  0.3846 -0.2485  0.0508
   10CHTO   H56 4165   5.083  10.477   1.101  0.7332 -0.8571 -0.0386
   10CHTO   C35 4166   5.130  10.349   1.258 -0.3519 -0.2712  0.0077
   10CHTO   O24 4167   5.256  10.284   1.233 -0.0900  0.1324  0.4888
   10CHTO   H39 4168   5.319  10.350   1.254 -0.7481  0.7147  0.6611
   10CHTO    O9 4169   5.398  10.712   1.112  0.2388 -0.0136 -0.4629
   10CHTO   C13 4170   5.447  10.725   0.960  0.5991 -0.3675 -0.3831
   10CHTO   H26 4171   5.375  10.789   0.905  1.1613 -0.9038 -1.7808
   10CHTO   C11 4172   5.456  10.579   0.893  0.4800 -0.2476 -0.0970
   10CHTO   H24 4173   5.352  10.546   0.883  0.2863  0.4858 -0.5567
   10CHTO    O8 4174   5.515  10.481   0.982 -0.0991 -0.1110 -0.2067
   10CHTO    H3 4175   5.603  10.509   0.995 -1.2588  3.7063 -0.1093
   10CHTO    C9 4176   5.537  10.601   0.763 -0.0648 -0.0485  0.0370
   10CHTO   H22 4177   5.496  10.695   0.722 -2.9846 -0.6632  1.3636
   10CHTO    N2 4178   5.527  10.499   0.655  0.0097 -0.2123  0.1847
   10CHTO   H10 4179   5.581  10.526   0.565 -0.0675 -0.6708  0.0010
   10CHTO   H11 4180   5.430  10.455   0.643  0.7429 -1.3483 -1.8913
   10CHTO    C7 4181   5.684  10.633   0.809  0.7535  0.0022  0.1592
   10CHTO   H20 4182   5.727  10.675   0.715  0.5458 -0.1762 -0.0142
   10CHTO    O4 4183   5.698  10.719   0.921 -0.5477 -0.2297  0.1563
   10CHTO   C14 4184   5.585  10.805   0.948  0.2999  0.2409  0.3052
   10CHTO   H27 4185   5.573  10.872   0.860 -0.6541  0.0311  0.2711
   10CHTO   C18 4186   5.623  10.895   1.070 -0.6386 -0.3776  0.4879
   10CHTO   O13 4187   5.553  11.022   1.060  0.1543 -0.5809  0.1026
   10CHTO    H7 4188   5.581  11.078   0.990 -0.2644 -0.1512  0.2748
   10CHTO    O2 4189   5.759  10.504   0.830 -0.4526  0.7663  0.2193
   10CHTO    C1 4190   5.899  10.502   0.865 -0.8198 -0.4399 -0.2504
   10CHTO   H14 4191   5.929  10.581   0.937  0.3123 -0.5340 -0.6166
   10CHTO    C2 4192   5.982  10.524   0.739 -0.0383  1.3901  0.1837
   10CHTO   H15 4193   5.931  10.461   0.664  1.5259  0.8834 -0.4871
   10CHTO    O6 4194   5.976  10.663   0.713 -0.0775 -0.0637  0.5587
   10CHTO    H1 4195   6.055  10.711   0.727  0.6220 -1.2724  0.9066
   10CHTO    C3 4196   6.127  10.468   0.760  0.3700  0.1432 -0.3600
   10CHTO   H16 4197   6.173  10.538   0.830 -3.0984  2.8446 -0.6322
   10CHTO    N1 4198   6.211  10.488   0.636  0.1463  0.3176 -0.1383
   10CHTO    H8 4199   6.236  10.391   0.597 -0.1736 -0.3848  1.3575
   10CHTO    H9 4200   6.173  10.553   0.559  1.2972  1.6757  0.4155
   10CHTO    C4 4201   6.131  10.331   0.825 -0.8593  0.2690 -0.2435
   10CHTO   H17 4202   6.091  10.253   0.759 -0.9509  0.2418 -0.1565
   10CHTO    O1 4203   6.052  10.332   0.947 -0.3670 -0.6536 -0.5021
   10CHTO    C5 4204   5.915  10.360   0.931  0.0359 -0.1059 -0.1508
   10CHTO   H18 4205   5.866  10.287   0.866  0.5649  0.8911 -1.6947
   10CHTO   C16 4206   5.851  10.355   1.068  0.2911 -0.1228 -0.1485
   10CHTO   O11 4207   5.866  10.226   1.130  0.0125  0.0586  0.5755
   10CHTO    H5 4208   5.787  10.178   1.111 -0.2004  0.4789  0.4123
   10CHTO    O3 4209   6.264  10.307   0.876 -0.3672 -0.3314  0.9292
   10CHTO    C6 4210   6.295  10.168   0.867  0.4272 -0.1634  0.3539
   10CHTO   H19 4211   6.202  10.112   0.860  0.4035 -0.1662  0.7222
   10CHTO    C8 4212   6.386  10.151   0.739  0.4925 -1.3674  0.0695
   10CHTO   H21 4213   6.463  10.228   0.740 -0.1574 -0.7170 -0.5453
   10CHTO    O7 4214   6.316  10.177   0.619  0.3338 -0.2528 -0.8490
   10CHTO    H2 4215   6.250  10.115   0.595  0.2930 -0.0364 -1.3111
   10CHTO   C12 4216   6.455  10.008   0.733 -0.4223  0.0130 -0.3682
   10CHTO   H25 4217   6.370   9.939   0.719 -0.9595  0.6214 -0.1147
   10CHTO    N3 4218   6.559   9.997   0.614 -0.8358  0.3496 -0.3653
   10CHTO   H12 4219   6.652  10.042   0.646 -1.1861  1.1945 -0.5430
   10CHTO   H13 4220   6.514  10.034   0.524 -0.1207  2.5384  0.1459
   10CHTO   C15 4221   6.513   9.973   0.871  0.2270  0.0082  0.1504
   10CHTO   H28 4222   6.596  10.037   0.902  0.5136 -0.0267 -0.5440
   10CHTO   O10 4223   6.553   9.825   0.891 -0.4814 -0.0709  0.3904
   10CHTO    H4 4224   6.634   9.799   0.851  0.7696 -0.1296  2.8926
   10CHTO    O5 4225   6.411   9.982   0.973  0.0106 -0.0387  0.1147
   10CHTO   C10 4226   6.359  10.118   0.992  0.0462  0.1720 -0.0422
   10CHTO   H23 4227   6.440  10.187   1.013  0.6255 -0.5256  0.0109
   10CHTO   C17 4228   6.262  10.122   1.119  1.0464 -0.0507 -0.6175
   10CHTO   O12 4229   6.327  10.100   1.247 -0.1000 -0.4813  0.0703
   10CHTO    H6 4230   6.268  10.115   1.318  1.9630 -0.4967  1.8330
   11CHTO  H203 4231   7.677   4.908  -0.116 -0.4127 -0.6425 -1.5891
   11CHTO   O82 4232   7.594   4.930  -0.078  0.5931 -0.1381  0.3512
   11CHTO  C123 4233   7.601   5.064  -0.027  0.0459  0.2945 -0.4810
   11CHTO  H227 4234   7.687   5.113  -0.074  2.0683 -3.5391 -0.9012
   11CHTO   O77 4235   7.471   5.124  -0.072  0.0302 -0.0571 -0.3004
   11CHTO  C118 4236   7.453   5.262  -0.031 -0.1460 -0.1705 -0.6685
   11CHTO  H222 4237   7.524   5.322  -0.091 -0.7324 -1.4958 -2.7505
   11CHTO  C125 4238   7.306   5.292  -0.086 -0.5691 -0.2294  0.0497
   11CHTO   O84 4239   7.306   5.305  -0.233  0.2053 -0.1759  0.2010
   11CHTO  H205 4240   7.238   5.366  -0.257 -0.5436 -0.8410  0.6076
   11CHTO  C114 4241   7.477   5.285   0.121 -0.2423  0.2523 -0.5135
   11CHTO  H218 4242   7.396   5.242   0.179  1.6050 -0.9101  1.2532
   11CHTO  C116 4243   7.610   5.214   0.175 -0.2552  0.6620  0.0274
   11CHTO  H220 4244   7.699   5.263   0.131 -0.2487  0.2684 -0.4003
   11CHTO   O79 4245   7.608   5.228   0.316  0.1072  0.1973 -0.5755
   11CHTO  H201 4246   7.575   5.150   0.357  0.3044  1.1920  1.5038
   11CHTO  C120 4247   7.608   5.066   0.127  0.0408  0.0872 -1.0115
   11CHTO  H224 4248   7.519   5.019   0.173  0.3012  0.4516 -0.1192
   11CHTO   N21 4249   7.736   4.998   0.170  0.5004 -0.2269  0.2367
   11CHTO  H211 4250   7.733   4.891   0.186  1.0454 -0.4771 -1.2386
   11CHTO  H212 4251   7.794   5.052   0.243 -3.9408  1.6416  2.5587
   11CHTO   O75 4252   7.481   5.428   0.128  0.1957  0.4438 -0.4491
   11CHTO  C112 4253   7.381   5.498   0.240 -0.5892  0.2162  0.5572
   11CHTO  H216 4254   7.418   5.470   0.340 -0.3894 -0.4640  0.2951
   11CHTO   O73 4255   7.245   5.461   0.214 -0.3618  0.1511  0.1498
   11CHTO  C113 4256   7.131   5.509   0.287 -0.5357 -0.0745 -0.4328
   11CHTO  H217 4257   7.133   5.467   0.390 -0.8774  1.3982  0.1844
   11CHTO  C124 4258   7.002   5.444   0.224 -0.4165 -0.6296  0.5907
   11CHTO   O83 4259   6.986   5.473   0.080  0.1666  0.5404 -0.1778
   11CHTO  H204 4260   7.026   5.556   0.061 -1.2782  0.8684 -1.9533
   11CHTO  C109 4261   7.134   5.665   0.283 -0.4755 -0.1030 -0.2353
   11CHTO  H213 4262   7.114   5.689   0.178 -0.8519 -2.3546 -0.7027
   11CHTO  C110 4263   7.275   5.721   0.320 -0.2415  0.0384 -0.0727
   11CHTO  H214 4264   7.293   5.695   0.424  1.5735  1.9185  0.1240
   11CHTO   O78 4265   7.269   5.859   0.310 -0.3285 -0.2454  0.3284
   11CHTO  H200 4266   7.244   5.904   0.389  2.1569  2.0931 -0.1078
   11CHTO  C111 4267   7.382   5.658   0.224  0.3612  1.0519  0.1172
   11CHTO  H215 4268   7.362   5.687   0.120 -0.5965  0.6985  0.1960
   11CHTO   N19 4269   7.518   5.710   0.257  0.7906  0.5935  0.7890
   11CHTO  H207 4270   7.560   5.682   0.353  0.6301 -0.1510  0.6441
   11CHTO  H208 4271   7.594   5.668   0.193 -0.4574 -1.6361  0.7219
   11CHTO   O74 4272   7.027   5.712   0.372 -0.1842 -0.5497 -0.9693
   11CHTO  C115 4273   6.943   5.829   0.267  0.4674  0.0405 -0.1426
   11CHTO  H219 4274   6.999   5.847   0.176  1.4779 -1.4557  0.1564
   11CHTO   O76 4275   6.815   5.771   0.214 -0.1706 -0.1968 -0.8658
   11CHTO  C122 4276   6.727   5.741   0.326  0.1102  0.9329  0.4598
   11CHTO  H226 4277   6.765   5.657   0.384 -0.8658 -0.7016 -1.2161
   11CHTO  C126 4278   6.593   5.682   0.269 -1.1443  1.0177 -0.3724
   11CHTO   O85 4279   6.519   5.773   0.187 -0.3999  0.3613  0.2566
   11CHTO  H206 4280   6.451   5.817   0.234 -0.3035  2.5223 -1.5145
   11CHTO  C121 4281   6.691   5.864   0.426  0.5497 -0.6864 -0.8479
   11CHTO  H225 4282   6.581   5.872   0.423  0.4957 -0.6219  0.7456
   11CHTO   O81 4283   6.741   5.840   0.560 -0.0525 -0.1076 -0.2915
   11CHTO  H202 4284   6.757   5.920   0.607 -1.0902 -0.0666  0.0239
   11CHTO  C119 4285   6.758   5.988   0.365 -0.3876  0.4908  0.3864
   11CHTO  H223 4286   6.712   6.003   0.267 -0.6554 -1.3642  0.2120
   11CHTO  C117 4287   6.916   5.959   0.350  0.7053  0.2392 -0.1842
   11CHTO  H221 4288   6.979   5.956   0.439 -0.2139  1.7682  0.5520
   11CHTO   N20 4289   6.973   6.073   0.265 -0.5696  0.0342  0.0400
   11CHTO  H209 4290   6.928   6.080   0.167  1.1295  0.1583 -0.7499
   11CHTO  H210 4291   7.074   6.050   0.233  0.0218 -0.8757  2.4726
   11CHTO   O80 4292   6.706   6.121   0.446 -0.4003 -0.2432  0.2911
   11CHTO  C103 4293   6.761   6.150   0.595 -0.2307 -0.2661 -0.3432
   11CHTO  H190 4294   6.776   6.056   0.649 -2.0184  0.2285  1.0900
   11CHTO  C101 4295   6.895   6.242   0.609 -0.1153 -0.0833 -0.3515
   11CHTO  H188 4296   6.881   6.312   0.527  1.2682 -2.7845 -2.9735
   11CHTO   O68 4297   7.005   6.154   0.600  0.1601  0.2835  0.3107
   11CHTO  H168 4298   6.987   6.083   0.542  0.2759  0.1447  0.4452
   11CHTO   C99 4299   6.899   6.327   0.754 -0.0747 -1.1717 -0.4738
   11CHTO  H186 4300   6.917   6.240   0.822 -0.0131 -0.8512 -0.0764
   11CHTO   N17 4301   7.010   6.424   0.768  0.0733  0.7041  0.6112
   11CHTO  H174 4302   7.092   6.364   0.731  0.4998  2.0750 -0.6866
   11CHTO  H175 4303   6.996   6.502   0.695  0.0379 -2.1073 -2.5423
   11CHTO   C97 4304   6.760   6.381   0.781  0.1176  0.0408 -0.6088
   11CHTO  H184 4305   6.726   6.456   0.708  3.3839  1.2832 -0.9381
   11CHTO   O64 4306   6.673   6.272   0.784  0.0086  0.3071 -0.1936
   11CHTO  C104 4307   6.637   6.218   0.653 -0.5739  0.6442 -0.3069
   11CHTO  H191 4308   6.602   6.295   0.583 -2.5897  0.1297  0.1125
   11CHTO  C108 4309   6.521   6.122   0.677  0.3920 -0.0022  0.0057
   11CHTO   O71 4310   6.447   6.091   0.563 -0.0405 -0.7627 -0.0491
   11CHTO  H171 4311   6.402   6.013   0.591  1.1125 -0.3083  3.2294
   11CHTO   O62 4312   6.757   6.442   0.912  0.2664  0.2885 -0.2854
   11CHTO   C91 4313   6.649   6.534   0.932  0.4180 -0.0622  0.1804
   11CHTO  H178 4314   6.572   6.508   0.859  0.4777  0.7482 -0.1768
   11CHTO   C92 4315   6.701   6.674   0.907 -0.2487 -0.1454  0.1090
   11CHTO  H179 4316   6.797   6.681   0.961 -0.8710  3.4569  0.8947
   11CHTO   O66 4317   6.730   6.691   0.768  0.6909 -0.0222  0.1440
   11CHTO  H166 4318   6.675   6.629   0.725 -1.5792  1.3095  1.0704
   11CHTO   C93 4319   6.598   6.780   0.966  0.1202  0.5013  0.2389
   11CHTO  H180 4320   6.508   6.757   0.906 -0.4927 -1.6670  1.9150
   11CHTO   N16 4321   6.627   6.925   0.939 -0.2685  0.0118  0.5765
   11CHTO  H172 4322   6.729   6.953   0.960  0.2305 -2.2056  1.2595
   11CHTO  H173 4323   6.566   6.989   1.001 -1.6408  2.5287 -3.2245
   11CHTO   C94 4324   6.568   6.739   1.117 -0.4808 -0.7390  0.0548
   11CHTO  H181 4325   6.659   6.717   1.173 -1.4636 -0.4572  1.8125
   11CHTO   O61 4326   6.501   6.613   1.118  0.3700  0.5346 -0.1495
   11CHTO   C95 4327   6.587   6.507   1.078  0.1486 -0.8787 -0.4551
   11CHTO  H182 4328   6.666   6.499   1.153 -0.4002 -0.8729  0.1303
   11CHTO  C106 4329   6.501   6.376   1.096 -0.0083  0.0863  0.3584
   11CHTO   O69 4330   6.586   6.260   1.071 -0.2495  0.1729 -0.2076
   11CHTO  H169 4331   6.616   6.272   0.983  0.1092  3.2530  0.2944
   11CHTO   O63 4332   6.479   6.853   1.198  0.2818 -0.3816  0.0233
   11CHTO   C96 4333   6.490   6.843   1.339 -0.7297  0.2796  0.2409
   11CHTO  H183 4334   6.588   6.802   1.362 -0.4244  0.6120 -0.4540
   11CHTO   C98 4335   6.390   6.746   1.417  0.3231  0.1960 -0.1293
   11CHTO  H185 4336   6.288   6.783   1.404  0.4774  0.6256 -0.1184
   11CHTO   O67 4337   6.392   6.612   1.362  0.3606 -0.0954 -0.4760
   11CHTO  H167 4338   6.472   6.568   1.343 -0.5273 -0.8014 -2.7762
   11CHTO  C102 4339   6.430   6.747   1.579  0.0480 -0.7282  0.2561
   11CHTO  H189 4340   6.522   6.686   1.588  1.3323  1.1994  0.3764
   11CHTO   N18 4341   6.326   6.689   1.676 -0.1000  0.1254 -0.2288
   11CHTO  H176 4342   6.290   6.744   1.762  1.2193 -2.4919  2.0724
   11CHTO  H177 4343   6.351   6.591   1.712 -1.6085 -0.6688 -1.2988
   11CHTO  C105 4344   6.477   6.889   1.618 -0.3663  0.1181 -0.0344
   11CHTO  H192 4345   6.435   6.922   1.713  0.0451  1.3327 -0.2659
   11CHTO   O65 4346   6.445   6.996   1.532 -0.4435 -0.7323  0.0651
   11CHTO  C100 4347   6.484   6.992   1.394 -0.0196  0.1616 -0.0227
   11CHTO  H187 4348   6.403   7.052   1.349  0.0906  0.1219 -0.2711
   11CHTO  C107 4349   6.619   7.066   1.364 -0.9521 -0.5111  0.2219
   11CHTO   O70 4350   6.616   7.209   1.397 -0.2394  0.1170 -0.2226
   11CHTO  H170 4351   6.539   7.226   1.448 -0.1361 -3.0553  1.1211
   11CHTO   O57 4352   6.637   6.867   1.651  0.5658  0.3686 -0.2572
   11CHTO   C85 4353   6.690   6.926   1.775 -0.3982  0.5311 -1.0028
   11CHTO  H157 4354   6.602   6.937   1.841  0.5696 -1.8568  0.7776
   11CHTO   C83 4355   6.751   7.072   1.742  0.2758 -0.3898  0.0555
   11CHTO  H155 4356   6.664   7.127   1.708  0.1753 -2.1240 -2.7266
   11CHTO   O56 4357   6.840   7.068   1.622 -0.3287 -0.6334  0.3594
   11CHTO  H135 4358   6.926   7.045   1.651 -1.2744 -3.5043  1.1076
   11CHTO   C81 4359   6.798   7.134   1.877  0.3528  0.2010 -0.4167
   11CHTO  H153 4360   6.714   7.129   1.946 -0.0400  0.3195 -0.8790
   11CHTO   N14 4361   6.822   7.279   1.867  0.0764  0.0358  0.2339
   11CHTO  H141 4362   6.747   7.326   1.928  1.8256  1.2164  1.5361
   11CHTO  H142 4363   6.816   7.308   1.765 -2.1630 -0.7106  0.1237
   11CHTO   C79 4364   6.917   7.050   1.936  0.2550  0.0942 -0.1319
   11CHTO  H151 4365   6.931   7.087   2.038 -0.7308 -2.4207  0.9501
   11CHTO   O52 4366   6.880   6.903   1.946 -0.1933 -0.2353 -0.0812
   11CHTO   C86 4367   6.801   6.843   1.844 -0.6366 -0.1188  1.1146
   11CHTO  H158 4368   6.880   6.829   1.767 -2.5731  2.2885 -1.4236
   11CHTO   C90 4369   6.752   6.703   1.881  0.2709  0.1784  0.3371
   11CHTO   O60 4370   6.868   6.620   1.896  0.1284  0.2947  0.0356
   11CHTO  H138 4371   6.935   6.661   1.949  1.2074  0.7989 -1.6579
   11CHTO   O50 4372   7.036   7.071   1.859  0.7998 -0.5515 -0.2251
   11CHTO   C73 4373   7.174   7.038   1.889 -0.0600 -0.1891  0.6910
   11CHTO  H145 4374   7.174   6.947   1.951  2.2902  2.0346  4.0942
   11CHTO   C74 4375   7.255   7.153   1.967 -0.6454  0.3401  0.5364
   11CHTO  H146 4376   7.202   7.177   2.060  1.2553  1.8676  1.2710
   11CHTO   O54 4377   7.373   7.088   2.014 -0.2253  0.0643 -0.1683
   11CHTO  H133 4378   7.348   7.007   2.055  0.4639 -1.0327 -1.8776
   11CHTO   C75 4379   7.271   7.277   1.873 -0.2840  0.2832  0.5100
   11CHTO  H147 4380   7.175   7.329   1.867  0.4937  1.6828  0.1385
   11CHTO   N13 4381   7.370   7.380   1.917  0.6739 -0.6817  0.0360
   11CHTO  H139 4382   7.323   7.471   1.952  0.7020 -0.8332  0.4656
   11CHTO  H140 4383   7.418   7.338   2.004  1.4102 -1.4486 -0.7295
   11CHTO   C76 4384   7.297   7.241   1.721  0.5470  0.2200 -0.8328
   11CHTO  H148 4385   7.404   7.229   1.707  0.2361 -1.7226 -1.7246
   11CHTO   O49 4386   7.223   7.124   1.676  0.4629 -0.4153  0.6555
   11CHTO   C77 4387   7.247   7.010   1.757  0.0108 -0.2104  0.1329
   11CHTO  H149 4388   7.346   6.971   1.783 -0.6391 -2.0253 -0.0408
   11CHTO   C88 4389   7.189   6.889   1.678  0.1410  0.1399 -0.2531
   11CHTO   O58 4390   7.259   6.878   1.531 -0.3167  0.2372  0.0518
   11CHTO  H136 4391   7.259   6.788   1.505 -0.7437  0.1910  0.2115
   11CHTO   O51 4392   7.230   7.354   1.624 -0.3018 -0.3628 -0.3446
   11CHTO   C78 4393   7.354   7.460   1.546 -0.6269 -0.1510 -0.1485
   11CHTO  H150 4394   7.451   7.437   1.594 -1.1622 -0.7598  0.6479
   11CHTO   C80 4395   7.325   7.608   1.574 -0.2195  0.0837 -0.4105
   11CHTO  H152 4396   7.230   7.634   1.524  1.3106  1.0654 -2.9495
   11CHTO   O55 4397   7.325   7.643   1.716  0.1175 -0.0782  0.1484
   11CHTO  H134 4398   7.243   7.630   1.759  0.6724 -0.6858  1.0227
   11CHTO   C84 4399   7.436   7.698   1.498  0.1613  0.0954 -0.0006
   11CHTO  H156 4400   7.532   7.671   1.541  0.3584  2.4524  1.1143
   11CHTO   N15 4401   7.411   7.849   1.512  0.3094 -0.3108  0.7037
   11CHTO  H143 4402   7.340   7.867   1.589  1.2397 -1.2603  1.7988
   11CHTO  H144 4403   7.371   7.887   1.419  1.2952  1.7012  1.0588
   11CHTO   C87 4404   7.448   7.649   1.350 -0.5182  0.5174  0.0023
   11CHTO  H159 4405   7.353   7.673   1.304 -0.3375  2.1855  0.4610
   11CHTO   O53 4406   7.472   7.502   1.347 -0.2727  0.1552 -0.0046
   11CHTO   C82 4407   7.361   7.428   1.397  0.6862 -0.1492 -0.4336
   11CHTO  H154 4408   7.268   7.462   1.352  0.7274  1.9664  1.0000
   11CHTO   C89 4409   7.382   7.279   1.358 -0.0773 -0.5311  0.3809
   11CHTO   O59 4410   7.269   7.200   1.398  0.9699  0.3059 -0.1319
   11CHTO  H137 4411   7.290   7.115   1.432 -0.1449  0.5234  1.1751
   11CHTO   O45 4412   7.574   7.723   1.261 -0.0364 -0.6770 -0.0634
   11CHTO   C67 4413   7.545   7.716   1.122 -0.2513 -0.4902  0.3340
   11CHTO  H124 4414   7.481   7.629   1.104 -0.9396 -0.2368  1.4485
   11CHTO   C65 4415   7.476   7.845   1.058 -0.0180  0.5488 -0.5694
   11CHTO  H122 4416   7.514   7.924   1.123  1.1763  0.7769 -1.5223
   11CHTO   O44 4417   7.335   7.850   1.067  0.2891  0.8839 -0.0492
   11CHTO  H102 4418   7.290   7.883   0.991 -1.6360  0.6276  0.9412
   11CHTO   C63 4419   7.531   7.875   0.903  0.2739  0.0303  0.8206
   11CHTO  H120 4420   7.630   7.920   0.904  1.5692 -2.7604  3.2287
   11CHTO   N11 4421   7.459   7.985   0.835 -0.0261 -0.1193  0.1996
   11CHTO  H108 4422   7.355   7.964   0.826 -0.1714  1.6298 -2.8919
   11CHTO  H109 4423   7.494   8.085   0.850 -1.4495  0.8585 -2.6400
   11CHTO   C61 4424   7.553   7.748   0.824 -0.0581  0.4851  0.3002
   11CHTO  H118 4425   7.612   7.768   0.734  2.2623 -0.2965  1.6192
   11CHTO   O40 4426   7.632   7.658   0.906  0.1698  0.1515 -0.0981
   11CHTO   C68 4427   7.672   7.689   1.042  0.2480 -0.3634 -0.4103
   11CHTO  H125 4428   7.733   7.782   1.044 -0.9371  0.4195  0.8618
   11CHTO   C72 4429   7.750   7.572   1.103  0.8449 -0.2937 -0.0184
   11CHTO   O48 4430   7.666   7.456   1.121  0.7864  0.3677  0.2479
   11CHTO  H105 4431   7.725   7.384   1.129 -1.0777 -1.0534  1.5185
   11CHTO   O38 4432   7.434   7.673   0.809 -0.3573 -0.2167 -0.4871
   11CHTO   C55 4433   7.411   7.601   0.690 -0.4738 -1.4671  0.4723
   11CHTO  H112 4434   7.512   7.599   0.645 -0.4059  1.8177  0.3841
   11CHTO   C56 4435   7.303   7.678   0.594  0.1392 -0.9862 -0.2523
   11CHTO  H113 4436   7.216   7.692   0.660  0.7584 -0.3515  0.4389
   11CHTO   O42 4437   7.352   7.808   0.553 -0.7806 -0.2018  0.1922
   11CHTO  H100 4438   7.300   7.875   0.593  1.3626  1.0238  1.0129
   11CHTO   C57 4439   7.278   7.597   0.462 -0.4949 -0.2444 -0.0288
   11CHTO  H114 4440   7.371   7.606   0.406 -0.6943  0.3404 -0.2748
   11CHTO   N10 4441   7.163   7.649   0.384 -0.4066 -0.9835 -0.2734
   11CHTO  H106 4442   7.190   7.736   0.325  0.4535 -1.3252 -0.3855
   11CHTO  H107 4443   7.085   7.682   0.451  2.3643  2.0969  1.5997
   11CHTO   C58 4444   7.253   7.447   0.498 -0.2369  0.1744 -0.1974
   11CHTO  H115 4445   7.159   7.432   0.555 -1.4150  2.7868 -1.3825
   11CHTO   O37 4446   7.359   7.400   0.579 -0.5196  0.6723  0.6355
   11CHTO   C59 4447   7.381   7.455   0.708  0.0038 -0.4412  0.3618
   11CHTO  H116 4448   7.289   7.442   0.764 -1.0593  2.1731 -0.6660
   11CHTO   C70 4449   7.487   7.384   0.799 -0.1142 -0.4217  1.0793
   11CHTO   O46 4450   7.451   7.252   0.847 -0.3699  0.0430  0.3276
   11CHTO  H103 4451   7.531   7.210   0.872 -0.2357  0.2094  0.1755
   11CHTO   O39 4452   7.261   7.356   0.380 -0.2706 -0.2487  0.0778
   11CHTO   C60 4453   7.147   7.283   0.346  0.4808  0.1960  0.0815
   11CHTO  H117 4454   7.069   7.303   0.419 -0.8284 -0.3765 -1.1405
   11CHTO   C62 4455   7.090   7.338   0.210  0.2331 -0.8019  0.7639
   11CHTO  H119 4456   7.081   7.446   0.234  1.5570 -0.7833  1.1698
   11CHTO   O43 4457   7.195   7.327   0.107  0.1024  0.3094  0.3866
   11CHTO  H101 4458   7.176   7.244   0.070  2.2773 -0.2630  0.4560
   11CHTO   C66 4459   6.950   7.275   0.173 -0.8581  0.1083 -0.0404
   11CHTO  H123 4460   6.882   7.272   0.258 -1.1575 -0.9380 -0.3059
   11CHTO   N12 4461   6.881   7.350   0.067  0.3872  0.5464  0.1321
   11CHTO  H110 4462   6.774   7.333   0.075  0.3945  0.5882  0.3214
   11CHTO  H111 4463   6.923   7.309  -0.023  0.1346  0.4492  0.0572
   11CHTO   C69 4464   6.976   7.123   0.160 -0.3046 -0.4358  0.1233
   11CHTO  H126 4465   7.036   7.110   0.068  1.9174 -0.4098  1.5503
   11CHTO   O41 4466   7.050   7.059   0.294  0.6796 -0.2313 -0.0600
   11CHTO   C64 4467   7.173   7.130   0.342  0.0431  0.3274  0.9173
   11CHTO  H121 4468   7.254   7.112   0.268 -0.4141  0.9373  0.2601
   11CHTO   C71 4469   7.208   7.064   0.474 -0.5726  0.3894 -0.2360
   11CHTO   O47 4470   7.332   7.114   0.525  0.2114 -0.0230  0.4361
   11CHTO  H104 4471   7.375   7.165   0.459 -1.3311 -2.2121 -2.3835
   11CHTO   O34 4472   6.849   7.043   0.130 -0.0372  0.4688  0.4111
   11CHTO   C49 4473   6.692   7.006   0.165  0.4874  0.3711 -0.5105
   11CHTO   H91 4474   6.633   7.098   0.176 -0.4768 -0.2038 -0.8085
   11CHTO   C47 4475   6.696   6.918   0.289  0.3558  0.9740  0.3833
   11CHTO   H89 4476   6.590   6.896   0.313 -0.0818  0.9857 -1.4867
   11CHTO   O33 4477   6.743   7.001   0.395  0.2661 -0.1978 -0.6795
   11CHTO   H70 4478   6.825   6.976   0.434 -0.3181 -1.4487 -0.2066
   11CHTO   C45 4479   6.769   6.782   0.254 -0.3537  0.4757 -0.2838
   11CHTO   H87 4480   6.866   6.798   0.206  0.5788 -0.2985  1.3137
   11CHTO    N8 4481   6.789   6.696   0.375 -0.1081 -0.2633  0.7854
   11CHTO   H75 4482   6.746   6.600   0.348  2.3236 -1.9054  2.4929
   11CHTO   H76 4483   6.894   6.694   0.399  0.0759  4.5835  0.7708
   11CHTO   C43 4484   6.698   6.697   0.142  0.6931 -0.1149  0.2013
   11CHTO   H85 4485   6.762   6.612   0.118  0.4025 -0.3669  0.3178
   11CHTO   O29 4486   6.689   6.782   0.028  0.8440 -0.0674 -0.1319
   11CHTO   C50 4487   6.634   6.919   0.057  0.4136 -0.2062  0.3373
   11CHTO   H92 4488   6.659   6.977  -0.033  0.2647  2.9771  2.2564
   11CHTO   C54 4489   6.479   6.929   0.047  0.4598  0.0608  0.6057
   11CHTO   O36 4490   6.434   6.914  -0.086  0.0463 -0.3573  0.4071
   11CHTO   H72 4491   6.345   6.933  -0.105  1.3621  2.1795 -3.9855
   11CHTO   O27 4492   6.564   6.650   0.174 -0.1039  0.1436  0.5920
   11CHTO   C37 4493   6.523   6.544   0.262  0.6947  0.8668  0.4008
   11CHTO   H79 4494   6.591   6.504   0.338  0.3479 -0.9812 -0.2317
   11CHTO   C38 4495   6.402   6.603   0.343 -0.1516 -0.2970  0.0774
   11CHTO   H80 4496   6.334   6.654   0.273  1.5834 -0.2607 -1.5928
   11CHTO   O31 4497   6.448   6.697   0.443  0.1100  0.6374 -0.1716
   11CHTO   H68 4498   6.370   6.741   0.473 -0.2528 -0.3422  0.3592
   11CHTO   C39 4499   6.329   6.477   0.404 -0.8806 -0.2667 -0.5482
   11CHTO   H81 4500   6.394   6.424   0.473 -1.5422 -0.8326 -0.3532
   11CHTO    N7 4501   6.203   6.520   0.490  0.1732 -0.2762 -1.1554
   11CHTO   H73 4502   6.117   6.563   0.441 -0.3357 -0.6360 -0.5863
   11CHTO   H74 4503   6.168   6.444   0.558 -1.6026  2.4862  1.1084
   11CHTO   C40 4504   6.303   6.365   0.306  0.2609  0.2917 -0.5652
   11CHTO   H82 4505   6.234   6.398   0.228  0.0142 -1.2913 -1.0323
   11CHTO   O26 4506   6.428   6.322   0.251 -0.4331  0.1883 -0.0286
   11CHTO   C41 4507   6.490   6.424   0.172  0.7832 -0.0961 -0.1232
   11CHTO   H83 4508   6.422   6.453   0.091 -0.1429 -0.0633  0.6635
   11CHTO   C52 4509   6.609   6.367   0.097 -0.3724 -0.1399 -0.1291
   11CHTO   O35 4510   6.729   6.319   0.194 -0.8869 -0.0765 -0.4269
   11CHTO   H71 4511   6.795   6.287   0.136  0.4369 -0.3295  1.1774
   11CHTO   O28 4512   6.269   6.237   0.356  0.4839  0.5820 -0.4315
   11CHTO   C42 4513   6.135   6.178   0.337  0.4912  0.1828  0.1268
   11CHTO   H84 4514   6.111   6.187   0.231  0.1979 -2.1973 -0.0461
   11CHTO   C44 4515   6.001   6.227   0.408 -0.5205 -0.3369 -0.1653
   11CHTO   H86 4516   6.014   6.224   0.516  1.0443 -0.3144 -0.3497
   11CHTO   O32 4517   5.986   6.362   0.372 -0.2050 -0.2253  0.3407
   11CHTO   H69 4518   5.916   6.403   0.418 -0.5819 -0.7113  0.2052
   11CHTO   C48 4519   5.871   6.143   0.363 -0.1637 -0.8741  0.4471
   11CHTO   H90 4520   5.862   6.142   0.254  0.8371 -1.0432  0.3658
   11CHTO    N9 4521   5.741   6.204   0.409 -0.1256 -0.1298  0.3252
   11CHTO   H77 4522   5.740   6.202   0.517 -1.6947 -3.2264  0.3085
   11CHTO   H78 4523   5.725   6.301   0.365 -0.9769  0.9543  2.9023
   11CHTO   C51 4524   5.902   6.000   0.406  0.1050  0.0060 -0.2228
   11CHTO   H93 4525   5.915   6.003   0.514 -1.2823  2.5257 -0.0869
   11CHTO   O30 4526   6.021   5.953   0.331  0.7838 -0.2845 -0.0922
   11CHTO   C46 4527   6.144   6.023   0.368  0.5219 -0.3660  0.1284
   11CHTO   H88 4528   6.175   6.016   0.472 -1.3858  1.8774  0.8818
   11CHTO   C53 4529   6.256   5.952   0.286 -0.0549  0.1665 -0.2196
   11CHTO   O72 4530   6.249   5.811   0.292  0.1216 -0.2179  0.0347
   11CHTO  H199 4531   6.334   5.770   0.292  0.5144  0.5362  1.7560
   11CHTO   O22 4532   5.797   5.909   0.361  0.2450  0.0736 -0.3581
   11CHTO   C31 4533   5.757   5.798   0.450  1.0233  0.2265  0.4667
   11CHTO   H59 4534   5.803   5.815   0.549 -0.2255  2.6318  0.6881
   11CHTO   C29 4535   5.607   5.800   0.480  0.4891 -0.1218 -0.3583
   11CHTO   H57 4536   5.551   5.776   0.388  0.6717  0.1481 -0.5423
   11CHTO   O21 4537   5.563   5.937   0.507 -0.4729 -0.4104  0.1121
   11CHTO   H37 4538   5.491   5.950   0.448  0.3344  0.6338 -0.6709
   11CHTO   C27 4539   5.581   5.698   0.596 -0.3945  0.6244 -0.0073
   11CHTO   H55 4540   5.629   5.735   0.689 -1.7618  0.3630  0.8174
   11CHTO    N5 4541   5.433   5.680   0.620  0.4934 -0.8012  0.1553
   11CHTO   H43 4542   5.401   5.780   0.646  1.6241 -0.6649  1.0573
   11CHTO   H44 4543   5.384   5.658   0.526 -1.5601  0.6886  0.8383
   11CHTO   C25 4544   5.647   5.555   0.571 -0.3014  0.4114 -0.5743
   11CHTO   H53 4545   5.593   5.504   0.489  0.0153  2.2286 -1.9479
   11CHTO   O17 4546   5.782   5.562   0.517  0.6117 -0.0221  0.2441
   11CHTO   C32 4547   5.792   5.653   0.405 -0.4650 -0.0556  0.2097
   11CHTO   H60 4548   5.723   5.625   0.326 -1.4773  1.2257  0.6227
   11CHTO   C36 4549   5.929   5.645   0.349 -0.8996  0.3622 -0.3284
   11CHTO   O25 4550   6.031   5.668   0.441 -0.2048  0.3717 -0.3162
   11CHTO   H40 4551   6.041   5.599   0.504 -0.1825 -0.0496 -0.7809
   11CHTO   O15 4552   5.648   5.467   0.696 -0.5578  0.5219 -0.0022
   11CHTO   C19 4553   5.635   5.322   0.705  0.4974 -0.0326 -0.3819
   11CHTO   H47 4554   5.733   5.279   0.730  0.2316 -0.4112  0.0168
   11CHTO   C20 4555   5.533   5.292   0.821 -0.5275  0.5087  0.9477
   11CHTO   H48 4556   5.438   5.347   0.810  0.2379  1.8022  0.7349
   11CHTO   O19 4557   5.595   5.337   0.945  0.2106 -0.4763  0.0210
   11CHTO   H35 4558   5.631   5.277   1.007  1.8123  1.4644  1.0343
   11CHTO   C21 4559   5.495   5.138   0.830 -0.3139  0.5094 -0.0290
   11CHTO   H49 4560   5.586   5.082   0.854  1.0322  1.7478 -2.0070
   11CHTO    N4 4561   5.397   5.095   0.938 -0.2191  0.4218  0.4800
   11CHTO   H41 4562   5.327   5.175   0.957 -1.8814 -0.9767  0.2692
   11CHTO   H42 4563   5.342   5.010   0.902  0.9661  1.0323 -2.9531
   11CHTO   C22 4564   5.447   5.089   0.686  0.5626 -0.3186  0.0630
   11CHTO   H50 4565   5.355   5.145   0.667  1.3484  0.3598 -1.8621
   11CHTO   O14 4566   5.547   5.119   0.579 -0.1693  0.4348 -0.2688
   11CHTO   C23 4567   5.591   5.255   0.567 -0.0787 -0.6143  0.6095
   11CHTO   H51 4568   5.512   5.312   0.515 -0.7049 -1.0489  1.0907
   11CHTO   C34 4569   5.714   5.248   0.469 -0.4659 -0.5565 -0.4329
   11CHTO   O23 4570   5.705   5.176   0.350  0.4911 -0.3056 -0.0117
   11CHTO   H38 4571   5.684   5.086   0.366 -1.7170  0.1859 -0.1108
   11CHTO   O16 4572   5.418   4.945   0.677  0.3207  0.1131  0.3894
   11CHTO   C24 4573   5.321   4.905   0.563 -0.4470  0.7261  0.0951
   11CHTO   H52 4574   5.321   4.968   0.474  2.8229 -0.9539 -1.1914
   11CHTO   C26 4575   5.182   4.891   0.623 -0.3004 -0.0415 -0.5164
   11CHTO   H54 4576   5.183   4.812   0.702 -0.4610  0.5366  0.0739
   11CHTO   O20 4577   5.157   5.010   0.701  0.4015 -0.2263  0.0208
   11CHTO   H36 4578   5.069   5.037   0.680  1.1905  0.0805 -3.1064
   11CHTO   C30 4579   5.085   4.857   0.508 -0.5635 -0.7764 -0.6880
   11CHTO   H58 4580   5.077   4.950   0.449 -1.7742 -0.4615 -0.0530
   11CHTO    N6 4581   4.944   4.829   0.545 -0.6554 -0.1853  0.5636
   11CHTO   H45 4582   4.936   4.730   0.587  3.8932 -2.1593 -2.8989
   11CHTO   H46 4583   4.925   4.908   0.618  0.6025  2.7154 -2.1416
   11CHTO   C33 4584   5.129   4.737   0.413 -0.7433  0.2533  0.2620
   11CHTO   H61 4585   5.103   4.641   0.461 -2.1074 -0.3471 -1.6391
   11CHTO   O18 4586   5.276   4.735   0.398  0.4232  0.5252 -0.2059
   11CHTO   C28 4587   5.367   4.764   0.509 -0.0171 -0.2564 -0.8907
   11CHTO   H56 4588   5.365   4.694   0.593 -0.3034  1.7638  0.8247
   11CHTO   C35 4589   5.507   4.768   0.457  0.4193  0.0939  0.0895
   11CHTO   O24 4590   5.559   4.637   0.430 -0.4765  0.2344 -0.0308
   11CHTO   H39 4591   5.519   4.594   0.357 -2.1821  1.7225 -0.0242
   11CHTO    O9 4592   5.069   4.728   0.286 -0.5379  0.2119 -0.0321
   11CHTO   C13 4593   5.113   4.843   0.180 -0.4464 -0.3896 -0.1693
   11CHTO   H26 4594   5.168   4.922   0.235  0.3415 -1.8543  1.1770
   11CHTO   C11 4595   4.997   4.898   0.094 -0.2210  0.0906 -0.4539
   11CHTO   H24 4596   4.931   4.957   0.160  2.3440  1.3134  1.1093
   11CHTO    O8 4597   4.922   4.788   0.041 -0.9623  0.2974 -0.7396
   11CHTO    H3 4598   4.966   4.733  -0.020  0.8419 -0.6949  1.3628
   11CHTO    C9 4599   5.044   5.009  -0.009  0.9227  0.1379 -0.2998
   11CHTO   H22 4600   5.036   5.103   0.048 -0.9334 -1.0048  1.3798
   11CHTO    N2 4601   4.943   5.042  -0.112 -0.4888 -0.6024 -0.0372
   11CHTO   H10 4602   4.925   5.148  -0.104  0.1026 -0.6069  1.5890
   11CHTO   H11 4603   4.851   4.986  -0.108 -0.9306  0.1240 -0.0081
   11CHTO    C7 4604   5.190   4.989  -0.056 -0.3839 -0.3894  0.4368
   11CHTO   H20 4605   5.259   5.041   0.013  0.5545 -1.6574  0.4840
   11CHTO    O4 4606   5.219   4.845  -0.048  0.8552  0.1453  0.3202
   11CHTO   C14 4607   5.225   4.785   0.082  0.3645  0.0277  0.4296
   11CHTO   H27 4608   5.321   4.817   0.127  0.1106 -0.6657  1.4664
   11CHTO   C18 4609   5.229   4.631   0.076 -0.2464 -0.4759 -0.0635
   11CHTO   O13 4610   5.351   4.580   0.028  0.2992 -0.0039  0.3531
   11CHTO    H7 4611   5.372   4.510   0.086  1.3327 -0.8305 -0.9699
   11CHTO    O2 4612   5.228   5.033  -0.218 -0.2755  0.4155 -0.3751
   11CHTO    C1 4613   5.327   5.141  -0.236 -0.1041  0.4481  0.9904
   11CHTO   H14 4614   5.414   5.139  -0.167  2.1856 -1.0093 -1.8193
   11CHTO    C2 4615   5.272   5.288  -0.231  0.1129  0.0818 -0.7419
   11CHTO   H15 4616   5.186   5.306  -0.297 -1.0710  1.9201  1.2349
   11CHTO    O6 4617   5.227   5.309  -0.097  0.4382 -0.2047 -0.1342
   11CHTO    H1 4618   5.194   5.394  -0.075  1.6185  0.4767 -1.0070
   11CHTO    C3 4619   5.390   5.392  -0.253 -0.3342  0.7669 -0.2154
   11CHTO   H16 4620   5.473   5.368  -0.184 -1.4602 -1.0632  0.5192
   11CHTO    N1 4621   5.360   5.538  -0.230  0.2871 -0.1247  0.8266
   11CHTO    H8 4622   5.277   5.551  -0.161 -1.6145 -0.9498 -1.2278
   11CHTO    H9 4623   5.455   5.587  -0.216  0.8459 -0.9034 -0.1404
   11CHTO    C4 4624   5.452   5.366  -0.397 -0.4736  0.0018  0.4341
   11CHTO   H17 4625   5.381   5.398  -0.473  0.4516  0.1496 -0.3592
   11CHTO    O1 4626   5.492   5.226  -0.404  0.3410  0.3366  0.0309
   11CHTO    C5 4627   5.386   5.131  -0.381  0.0184 -0.0378 -0.2817
   11CHTO   H18 4628   5.310   5.142  -0.458 -0.9388  1.3232  0.8446
   11CHTO   C16 4629   5.451   4.990  -0.395 -0.3809  0.1401  0.3666
   11CHTO   O11 4630   5.570   4.966  -0.312 -0.0131 -0.1510 -0.2374
   11CHTO    H5 4631   5.579   5.042  -0.258  0.2003 -0.1389 -0.2907
   11CHTO    O3 4632   5.574   5.443  -0.402 -0.6040 -0.0761  0.0105
   11CHTO    C6 4633   5.643   5.439  -0.523  0.0704  0.5336 -0.2945
   11CHTO   H19 4634   5.598   5.368  -0.592 -0.4622  1.5134 -0.9542
   11CHTO    C8 4635   5.643   5.575  -0.598 -0.0615  0.0904  0.7951
   11CHTO   H21 4636   5.671   5.652  -0.527  2.7871 -0.6632  0.5587
   11CHTO    O7 4637   5.503   5.595  -0.633  0.2258  0.7787 -0.3848
   11CHTO    H2 4638   5.477   5.685  -0.628 -2.8733 -0.1110  0.4271
   11CHTO   C12 4639   5.730   5.551  -0.732  0.1849  0.5345  0.2971
   11CHTO   H25 4640   5.674   5.477  -0.793 -0.0889 -2.0674  3.5531
   11CHTO    N3 4641   5.736   5.678  -0.814  0.0854 -0.3169 -0.5362
   11CHTO   H12 4642   5.677   5.762  -0.781  0.6496 -0.8902  2.0370
   11CHTO   H13 4643   5.839   5.709  -0.824  0.0453 -0.5750 -1.8759
   11CHTO   C15 4644   5.869   5.497  -0.693 -0.2304 -0.0258  0.2270
   11CHTO   H28 4645   5.928   5.573  -0.642 -1.7387  0.9562  0.5381
   11CHTO   O10 4646   5.954   5.440  -0.834  0.2767 -0.1706 -0.6762
   11CHTO    H4 4647   6.027   5.383  -0.822  1.1708  0.4918 -2.7838
   11CHTO    O5 4648   5.857   5.369  -0.623  0.2527 -0.2701 -0.4340
   11CHTO   C10 4649   5.789   5.387  -0.501  0.4183 -0.3009 -0.0139
   11CHTO   H23 4650   5.835   5.464  -0.438 -0.4237 -0.7982  1.2440
   11CHTO   C17 4651   5.795   5.245  -0.436 -0.6479  0.3927 -0.7587
   11CHTO   O12 4652   5.908   5.220  -0.357 -0.0047 -0.3840  0.7336
   11CHTO    H6 4653   5.978   5.178  -0.403  1.0259  0.0938  1.8249
   12CHTO  H203 4654   5.560  11.981   1.917  0.1731  1.3237 -0.2075
   12CHTO   O82 4655   5.518  12.028   1.986 -0.2751 -0.0934  0.4963
   12CHTO  C123 4656   5.505  11.941   2.102 -0.1979  0.4478  0.1012
   12CHTO  H227 4657   5.522  12.003   2.191  1.6251  0.3604 -0.1708
   12CHTO   O77 4658   5.366  11.913   2.102  0.3767 -0.4383  0.0726
   12CHTO  C118 4659   5.320  11.830   2.209 -0.3627 -0.0178 -1.0107
   12CHTO  H222 4660   5.346  11.879   2.304 -0.6659 -1.6014 -0.1094
   12CHTO  C125 4661   5.168  11.815   2.198 -0.4319  0.1193 -0.2478
   12CHTO   O84 4662   5.135  11.761   2.070  0.1848 -0.1471 -0.1271
   12CHTO  H205 4663   5.048  11.783   2.042 -0.8622 -3.0070  0.6807
   12CHTO  C114 4664   5.396  11.691   2.196  0.3378 -0.1396  0.0084
   12CHTO  H218 4665   5.366  11.641   2.104 -0.9191 -2.8655  1.8229
   12CHTO  C116 4666   5.543  11.713   2.195 -0.3982  0.3456  0.0267
   12CHTO  H220 4667   5.563  11.739   2.301 -0.4983  2.3885 -0.4516
   12CHTO   O79 4668   5.610  11.591   2.175  0.3897  0.4463  0.2297
   12CHTO  H201 4669   5.702  11.589   2.192  0.6132 -0.2348 -0.9747
   12CHTO  C120 4670   5.598  11.817   2.095 -0.3041 -0.1691  0.4672
   12CHTO  H224 4671   5.602  11.776   1.992  1.5277  1.8543 -0.2903
   12CHTO   N21 4672   5.739  11.856   2.124  0.8306  0.1856  0.1795
   12CHTO  H211 4673   5.804  11.781   2.168  0.1396 -1.0346 -0.8520
   12CHTO  H212 4674   5.785  11.893   2.034 -0.4373  0.0800 -0.5116
   12CHTO   O75 4675   5.355  11.619   2.312  0.3288  0.9099  0.1797
   12CHTO  C112 4676   5.314  11.466   2.281  0.1503  0.0300  0.2019
   12CHTO  H216 4677   5.368  11.434   2.191  0.6148  5.7597 -1.7491
   12CHTO   O73 4678   5.169  11.462   2.259  0.4212 -0.1829 -0.2150
   12CHTO  C113 4679   5.130  11.327   2.231 -0.2702 -0.4116  0.0471
   12CHTO  H217 4680   5.199  11.278   2.159 -0.4479 -0.4129 -0.1217
   12CHTO  C124 4681   4.994  11.321   2.163  0.2389 -0.0298 -0.2907
   12CHTO   O83 4682   4.896  11.387   2.234  0.0395  0.1701 -0.7813
   12CHTO  H204 4683   4.878  11.468   2.190  0.2754  0.0788 -1.0446
   12CHTO  C109 4684   5.133  11.241   2.357 -0.8382  0.1725  0.9113
   12CHTO  H213 4685   5.062  11.289   2.427 -0.6935  0.8192  0.6202
   12CHTO  C110 4686   5.282  11.242   2.413  0.6516  0.2594  0.3471
   12CHTO  H214 4687   5.336  11.171   2.351 -1.7635 -0.4776 -0.9737
   12CHTO   O78 4688   5.269  11.184   2.546  0.1332  0.4238 -0.0960
   12CHTO  H200 4689   5.225  11.243   2.604 -1.4095 -0.2383 -0.5704
   12CHTO  C111 4690   5.350  11.382   2.409 -0.8957  0.3631  0.3022
   12CHTO  H215 4691   5.315  11.441   2.494 -0.5303  1.3694 -0.2444
   12CHTO   N19 4692   5.498  11.376   2.434  0.2457  0.5150  0.5255
   12CHTO  H207 4693   5.521  11.286   2.490 -0.5520 -0.8098 -1.2207
   12CHTO  H208 4694   5.534  11.458   2.494  0.5926  1.1479 -0.5389
   12CHTO   O74 4695   5.077  11.109   2.325  0.3336  0.1021  0.0859
   12CHTO  C115 4696   4.980  11.047   2.438 -0.1163 -0.8350  0.0435
   12CHTO  H219 4697   5.026  11.044   2.537 -0.2266  2.2062  0.2371
   12CHTO   O76 4698   4.850  11.126   2.452  0.3460  0.6288 -0.5690
   12CHTO  C122 4699   4.763  11.068   2.555 -0.8288 -0.3985  0.1166
   12CHTO  H226 4700   4.660  11.101   2.541 -0.6508 -0.0644 -0.4107
   12CHTO  C126 4701   4.806  11.116   2.711 -0.4574 -0.3072 -0.2360
   12CHTO   O85 4702   4.780  11.254   2.720  0.0259 -0.0423 -0.2069
   12CHTO  H206 4703   4.780  11.274   2.812  1.4447  2.2027 -0.6569
   12CHTO  C121 4704   4.731  10.911   2.535 -0.4136  0.2875  0.1619
   12CHTO  H225 4705   4.681  10.880   2.629 -0.8696 -2.4553 -0.9284
   12CHTO   O81 4706   4.648  10.898   2.416 -0.2096 -0.1353  0.0075
   12CHTO  H202 4707   4.700  10.932   2.346  0.5754 -0.7672  0.2753
   12CHTO  C119 4708   4.865  10.832   2.517 -0.1338 -0.5203  0.2743
   12CHTO  H223 4709   4.939  10.846   2.595 -0.8196  0.2317  0.7846
   12CHTO  C117 4710   4.951  10.894   2.401  0.4651  0.2148  0.2703
   12CHTO  H221 4711   4.901  10.914   2.306 -0.9411  1.3053  1.2090
   12CHTO   N20 4712   5.080  10.811   2.375 -0.1567 -0.2598  0.0929
   12CHTO  H209 4713   5.049  10.709   2.362 -0.1116 -0.1195 -1.2395
   12CHTO  H210 4714   5.143  10.849   2.296 -0.4708 -2.5670 -1.3203
   12CHTO   O80 4715   4.844  10.673   2.526  0.9334  0.5714 -0.7958
   12CHTO  C103 4716   4.710  10.593   2.460 -0.2417  0.0745  0.4161
   12CHTO  H190 4717   4.623  10.655   2.440 -0.7956  0.3989  3.5210
   12CHTO  C101 4718   4.743  10.512   2.335  0.4486 -0.0197 -0.3985
   12CHTO  H188 4719   4.837  10.462   2.358  1.4220  1.1016 -1.8522
   12CHTO   O68 4720   4.771  10.603   2.221 -0.1247 -0.2495 -0.3885
   12CHTO  H168 4721   4.766  10.555   2.141 -1.1584 -2.8389  1.1663
   12CHTO   C99 4722   4.624  10.413   2.294 -0.2405 -0.5082  0.5763
   12CHTO  H186 4723   4.528  10.463   2.272 -0.6940 -1.7784 -0.4712
   12CHTO   N17 4724   4.652  10.325   2.179  0.1173  0.0831  0.6549
   12CHTO  H174 4725   4.720  10.372   2.110  0.9402 -1.6550  0.2499
   12CHTO  H175 4726   4.560  10.300   2.128 -0.2554  2.9142 -0.1689
   12CHTO   C97 4727   4.601  10.324   2.415  0.4756 -0.0017 -0.0027
   12CHTO  H184 4728   4.691  10.263   2.432  0.7975  0.8497  1.3894
   12CHTO   O64 4729   4.569  10.404   2.525 -0.1815  0.6425 -0.7424
   12CHTO  C104 4730   4.668  10.492   2.572  0.2880  0.5919 -0.2349
   12CHTO  H191 4731   4.756  10.446   2.616 -0.3346  0.7170  1.1786
   12CHTO  C108 4732   4.598  10.557   2.691 -1.2369  0.3427 -0.0835
   12CHTO   O71 4733   4.597  10.485   2.813 -0.2917  0.0982  0.2378
   12CHTO  H171 4734   4.518  10.435   2.824 -1.5017  2.1199  1.0654
   12CHTO   O62 4735   4.484  10.245   2.403  0.1296 -0.6317  0.0571
   12CHTO   C91 4736   4.475  10.115   2.467  0.5079 -0.3069 -0.6460
   12CHTO  H178 4737   4.572  10.096   2.514  0.4881 -1.0133 -0.8936
   12CHTO   C92 4738   4.449  10.010   2.367 -0.3108  0.1417  0.0260
   12CHTO  H179 4739   4.351  10.038   2.324  0.3945  2.4158 -0.1329
   12CHTO   O66 4740   4.549  10.021   2.264 -0.3682 -0.1720 -0.0116
   12CHTO  H166 4741   4.625   9.973   2.292  0.4823  0.1110 -1.7315
   12CHTO   C93 4742   4.442   9.862   2.433 -0.0150  0.2119  0.2596
   12CHTO  H180 4743   4.539   9.822   2.466  0.1890  1.3724  1.1147
   12CHTO   N16 4744   4.387   9.764   2.337 -0.8531 -0.5701 -0.2664
   12CHTO  H172 4745   4.393   9.794   2.234 -0.1942 -0.1998 -0.1259
   12CHTO  H173 4746   4.427   9.666   2.354  0.9989 -0.1002 -1.7398
   12CHTO   C94 4747   4.340   9.867   2.553  0.2931 -0.7399 -0.6400
   12CHTO  H181 4748   4.238   9.887   2.519  0.2135  0.7257  0.3970
   12CHTO   O61 4749   4.366   9.975   2.644  0.2208 -0.5095  0.2284
   12CHTO   C95 4750   4.373  10.108   2.587  0.1016 -0.6239 -0.2416
   12CHTO  H182 4751   4.273  10.135   2.554 -0.8255 -1.4703  1.8359
   12CHTO  C106 4752   4.418  10.195   2.711 -0.2360 -0.1743 -0.3884
   12CHTO   O69 4753   4.317  10.201   2.820 -0.7534  0.3474  0.0201
   12CHTO  H169 4754   4.244  10.242   2.778  0.3828 -0.0162 -2.3348
   12CHTO   O63 4755   4.342   9.741   2.639  0.2443 -0.0512 -0.6968
   12CHTO   C96 4756   4.458   9.694   2.743  0.3672  0.1544  0.3583
   12CHTO  H183 4757   4.537   9.769   2.741  1.2998 -0.8171  0.3451
   12CHTO   C98 4758   4.521   9.560   2.693 -0.2860  0.2573  0.0962
   12CHTO  H185 4759   4.448   9.478   2.689  0.7263 -0.5986 -1.4824
   12CHTO   O67 4760   4.576   9.581   2.554 -0.0385  0.2182 -0.0360
   12CHTO  H167 4761   4.632   9.656   2.559 -0.2169  0.3459  0.0839
   12CHTO  C102 4762   4.638   9.507   2.800 -0.3226 -0.3496  0.4981
   12CHTO  H189 4763   4.723   9.576   2.787 -0.8736  0.2430  0.0262
   12CHTO   N18 4764   4.680   9.365   2.782  0.2246  0.0730  0.5173
   12CHTO  H176 4765   4.773   9.359   2.836  0.5896 -0.0097 -0.1072
   12CHTO  H177 4766   4.612   9.296   2.829  2.6169 -1.7560  1.4006
   12CHTO  C105 4767   4.563   9.507   2.939  0.2216  0.0216 -0.4964
   12CHTO  H192 4768   4.483   9.433   2.932  1.4419 -1.9479  4.0319
   12CHTO   O65 4769   4.507   9.636   2.969 -0.4196 -0.6598  0.5739
   12CHTO  C100 4770   4.394   9.668   2.885 -0.0974 -0.6241  0.2848
   12CHTO  H187 4771   4.321   9.587   2.894 -1.9644  1.0763  0.7898
   12CHTO  C107 4772   4.326   9.795   2.939  0.0954 -0.7843 -0.3741
   12CHTO   O70 4773   4.414   9.909   2.955 -0.1142 -0.2963  0.3687
   12CHTO  H170 4774   4.390   9.984   3.007 -0.2506 -0.7977  1.0337
   12CHTO   O57 4775   4.675   9.463   3.062  0.2558 -0.0828 -0.1004
   12CHTO   C85 4776   4.636   9.385   3.176  0.4546  0.1093 -0.4068
   12CHTO  H157 4777   4.560   9.313   3.140 -0.0307  0.3348  0.1591
   12CHTO   C83 4778   4.556   9.474   3.281  1.1944 -0.4714 -0.0798
   12CHTO  H155 4779   4.463   9.512   3.239  1.3426 -1.0556 -0.9411
   12CHTO   O56 4780   4.641   9.585   3.321  0.2016 -0.4339  0.2567
   12CHTO  H135 4781   4.626   9.613   3.409  1.1097  0.2035  0.2113
   12CHTO   C81 4782   4.525   9.385   3.402  0.0170 -0.0336 -0.0460
   12CHTO  H153 4783   4.459   9.308   3.361 -2.4556  1.5633  0.7804
   12CHTO   N14 4784   4.443   9.460   3.501  0.1665  0.5826  0.0487
   12CHTO  H141 4785   4.340   9.460   3.473 -0.3316 -1.2560  1.7500
   12CHTO  H142 4786   4.453   9.425   3.602  1.9998  3.5102  0.9404
   12CHTO   C79 4787   4.653   9.318   3.469  0.3128 -0.1749  0.3579
   12CHTO  H151 4788   4.622   9.263   3.558  2.5134  1.5401  2.2516
   12CHTO   O52 4789   4.719   9.234   3.367  0.4606  0.1083  0.6857
   12CHTO   C86 4790   4.756   9.308   3.250 -0.0493 -0.0642 -0.2328
   12CHTO  H158 4791   4.834   9.379   3.284  2.0978 -1.8607 -1.2480
   12CHTO   C90 4792   4.826   9.207   3.168 -0.7043 -0.6677  0.0716
   12CHTO   O60 4793   4.901   9.248   3.057 -0.0037 -0.2136  0.0256
   12CHTO  H138 4794   4.971   9.294   3.101  0.7247 -1.1078 -0.1811
   12CHTO   O50 4795   4.751   9.408   3.515 -0.4179  0.5721  0.8719
   12CHTO   C73 4796   4.841   9.448   3.618 -0.5492 -0.1003  0.2459
   12CHTO  H145 4797   4.797   9.415   3.713  0.2837 -0.2027  0.5952
   12CHTO   C74 4798   4.858   9.599   3.620  0.2610 -0.9619  0.3906
   12CHTO  H146 4799   4.755   9.637   3.615  1.1622  1.2918 -5.7006
   12CHTO   O54 4800   4.913   9.643   3.748  0.2778  0.0377  0.2615
   12CHTO  H133 4801   4.955   9.726   3.737 -0.7176  0.4162 -0.7467
   12CHTO   C75 4802   4.937   9.642   3.490  0.2219 -0.4860  0.5255
   12CHTO  H147 4803   4.879   9.608   3.403  0.7526  0.1580 -0.0824
   12CHTO   N13 4804   4.957   9.790   3.487 -0.0546  0.2085  0.7817
   12CHTO  H139 4805   4.869   9.837   3.446 -0.5344 -1.4472 -0.1744
   12CHTO  H140 4806   5.036   9.809   3.416  0.1778 -0.3982  0.8736
   12CHTO   C76 4807   5.076   9.565   3.481 -0.8693 -0.5220 -0.6072
   12CHTO  H148 4808   5.130   9.589   3.573 -1.2725 -1.9279  0.0038
   12CHTO   O49 4809   5.042   9.426   3.473 -0.2231  0.3066 -0.0608
   12CHTO   C77 4810   4.977   9.378   3.593  0.2559  0.2630  0.8082
   12CHTO  H149 4811   5.044   9.405   3.674  0.6702  0.9486  0.2485
   12CHTO   C88 4812   4.977   9.224   3.583 -0.6048 -0.6442 -0.0029
   12CHTO   O58 4813   5.110   9.174   3.593  0.1253 -0.1989 -0.1134
   12CHTO  H136 4814   5.159   9.199   3.517 -0.1207  0.5598 -0.0200
   12CHTO   O51 4815   5.161   9.589   3.342  0.6784  0.2145  0.2122
   12CHTO   C78 4816   5.292   9.517   3.331 -0.2388  0.0954 -0.0362
   12CHTO  H150 4817   5.299   9.422   3.388  2.3383  1.1869  1.5408
   12CHTO   C80 4818   5.414   9.602   3.365  0.1443 -0.7393 -0.2830
   12CHTO  H152 4819   5.402   9.694   3.304 -1.4517  0.2224  1.4250
   12CHTO   O55 4820   5.395   9.641   3.508  0.7771 -0.2221  0.4178
   12CHTO  H134 4821   5.478   9.614   3.542  1.7412  0.7976 -1.0794
   12CHTO   C84 4822   5.552   9.530   3.333  0.2427 -0.1812 -0.0039
   12CHTO  H156 4823   5.586   9.449   3.397 -2.0226 -0.9946  0.2007
   12CHTO   N15 4824   5.664   9.625   3.344  0.5017  0.1646 -0.0770
   12CHTO  H143 4825   5.658   9.713   3.283  1.0812 -0.0366 -0.4228
   12CHTO  H144 4826   5.662   9.657   3.446 -0.6233  0.3612 -0.1479
   12CHTO   C87 4827   5.548   9.465   3.192  0.3222 -0.2569  0.0437
   12CHTO  H159 4828   5.564   9.529   3.105  1.4174 -0.2123  0.2705
   12CHTO   O53 4829   5.424   9.396   3.175  0.6917 -0.1307  0.6868
   12CHTO   C82 4830   5.310   9.481   3.185 -0.5611 -0.0762  0.4758
   12CHTO  H154 4831   5.326   9.569   3.122  2.0172 -0.6157  0.2955
   12CHTO   C89 4832   5.185   9.413   3.127 -0.8526  0.4935 -0.5049
   12CHTO   O59 4833   5.174   9.278   3.182 -0.0776  0.0165  0.9109
   12CHTO  H137 4834   5.214   9.209   3.132  1.5621 -0.4462  2.7629
   12CHTO   O45 4835   5.658   9.346   3.184  0.5322  0.1005 -0.2199
   12CHTO   C67 4836   5.749   9.341   3.080 -0.1782  0.9557 -0.4763
   12CHTO  H124 4837   5.800   9.246   3.094 -0.4272  1.0990  1.6021
   12CHTO   C65 4838   5.687   9.344   2.936  0.0714 -0.5646  0.9841
   12CHTO  H122 4839   5.580   9.363   2.942  0.2142  0.7740 -0.2970
   12CHTO   O44 4840   5.704   9.221   2.872  0.0355  0.1116  0.0820
   12CHTO  H102 4841   5.794   9.197   2.879  0.2193  1.1613  1.4229
   12CHTO   C63 4842   5.739   9.468   2.861  0.0513 -0.5079 -0.8311
   12CHTO  H120 4843   5.710   9.557   2.917 -0.4086 -0.6240 -0.8847
   12CHTO   N11 4844   5.659   9.498   2.735  0.0282 -0.4900 -0.0434
   12CHTO  H108 4845   5.714   9.555   2.662 -1.2624 -0.3233 -0.8879
   12CHTO  H109 4846   5.642   9.402   2.691 -2.7195 -0.2717  0.4887
   12CHTO   C61 4847   5.894   9.468   2.857 -0.4484 -0.7250  0.2060
   12CHTO  H118 4848   5.926   9.568   2.824 -0.1772 -1.6351 -2.4044
   12CHTO   O40 4849   5.950   9.445   2.989  0.1024  0.2032  0.4492
   12CHTO   C68 4850   5.864   9.442   3.107 -0.2952  0.3425  0.0658
   12CHTO  H125 4851   5.832   9.547   3.121 -0.0991  0.4063  0.0283
   12CHTO   C72 4852   5.966   9.407   3.222  0.0844  1.1165  0.6583
   12CHTO   O48 4853   5.906   9.443   3.350  0.1751  0.1020  0.0540
   12CHTO  H105 4854   5.974   9.449   3.415  1.7150 -2.0141 -1.3020
   12CHTO   O38 4855   5.943   9.365   2.766  0.4402 -0.6133  0.2116
   12CHTO   C55 4856   6.042   9.406   2.666 -0.2389  0.4748 -0.7663
   12CHTO  H112 4857   6.100   9.490   2.706 -0.6562 -0.2042  1.3434
   12CHTO   C56 4858   5.974   9.442   2.524  0.1834 -0.2738  0.3330
   12CHTO  H113 4859   5.901   9.364   2.496  1.4783 -1.2393 -0.3780
   12CHTO   O42 4860   5.897   9.559   2.537  0.4756  0.1143  0.3016
   12CHTO  H100 4861   5.805   9.548   2.523 -0.0398  2.7556  1.2697
   12CHTO   C57 4862   6.088   9.467   2.415  0.1672  0.1215 -0.0817
   12CHTO  H114 4863   6.131   9.566   2.428 -0.0633  0.2050  0.0462
   12CHTO   N10 4864   6.033   9.469   2.280  0.7982 -0.0119 -0.2062
   12CHTO  H106 4865   5.984   9.565   2.272  0.6352  0.1155  1.9987
   12CHTO  H107 4866   5.966   9.386   2.262 -1.7441  1.9233  0.1517
   12CHTO   C58 4867   6.197   9.362   2.420 -0.2363  0.4240  0.4038
   12CHTO  H115 4868   6.160   9.269   2.371  0.4444 -0.7508  2.0810
   12CHTO   O37 4869   6.240   9.331   2.553 -0.6754 -0.0055 -0.1625
   12CHTO   C59 4870   6.150   9.303   2.660 -0.0490  0.3453 -0.2901
   12CHTO  H116 4871   6.121   9.198   2.650  0.5411 -0.1871  3.0311
   12CHTO   C70 4872   6.244   9.310   2.784 -0.9833 -0.5757 -0.1070
   12CHTO   O46 4873   6.183   9.238   2.888 -0.0326 -0.2628 -0.5315
   12CHTO  H103 4874   6.236   9.211   2.961 -0.7285  1.4910  0.6357
   12CHTO   O39 4875   6.318   9.424   2.333 -0.0115  0.0675 -0.3946
   12CHTO   C60 4876   6.436   9.352   2.309  0.1332  0.6480  0.1966
   12CHTO  H117 4877   6.473   9.306   2.401 -2.8941 -2.5263 -0.0553
   12CHTO   C62 4878   6.411   9.224   2.228 -0.5904 -0.4606 -0.3559
   12CHTO  H119 4879   6.341   9.158   2.284 -1.4489 -1.2143 -2.2434
   12CHTO   O43 4880   6.348   9.269   2.101  0.0052  0.1369  0.0762
   12CHTO  H101 4881   6.417   9.301   2.045  1.7142  1.9131  3.0630
   12CHTO   C66 4882   6.547   9.150   2.213  0.2410 -0.3795 -0.1317
   12CHTO  H123 4883   6.597   9.128   2.308  3.1485 -0.2468 -1.5717
   12CHTO   N12 4884   6.530   9.019   2.151  0.0974 -0.2708  0.7139
   12CHTO  H110 4885   6.424   9.002   2.143  0.0235  1.2831 -2.8162
   12CHTO  H111 4886   6.569   8.941   2.214  2.8979  0.4365 -0.0929
   12CHTO   C69 4887   6.659   9.234   2.145  0.0447 -0.1628 -0.3032
   12CHTO  H126 4888   6.637   9.236   2.037  0.9115  4.1727 -0.4753
   12CHTO   O41 4889   6.660   9.378   2.209 -0.4228 -0.3836  0.6418
   12CHTO   C64 4890   6.543   9.451   2.252 -0.6566 -0.2561  0.3043
   12CHTO  H121 4891   6.508   9.504   2.161 -2.1113 -0.7176  0.5781
   12CHTO   C71 4892   6.585   9.557   2.361  0.0996  0.0436  0.3202
   12CHTO   O47 4893   6.574   9.511   2.492  0.7621  0.0589  0.3553
   12CHTO  H104 4894   6.624   9.433   2.501 -2.6871 -2.2847  0.4365
   12CHTO   O34 4895   6.798   9.169   2.168  0.1636  0.1989 -0.0014
   12CHTO   C49 4896   6.917   9.171   2.283 -0.4159  0.1948  0.2871
   12CHTO   H91 4897   6.993   9.236   2.240  1.4058 -1.6157  0.7356
   12CHTO   C47 4898   6.966   9.023   2.295 -0.1017 -0.0193 -0.0488
   12CHTO   H89 4899   7.048   9.030   2.369  2.4070  0.5976 -2.8077
   12CHTO   O33 4900   7.020   8.975   2.177 -0.3750 -0.1985  0.4905
   12CHTO   H70 4901   6.990   9.016   2.098 -0.3901 -0.7463  0.2106
   12CHTO   C45 4902   6.846   8.939   2.354 -0.1179  0.1256  0.1007
   12CHTO   H87 4903   6.760   8.950   2.286  1.0777  0.0512 -1.4602
   12CHTO    N8 4904   6.869   8.796   2.365  1.0458  0.1564 -1.1228
   12CHTO   H75 4905   6.911   8.752   2.276  0.3628 -0.1609 -1.2916
   12CHTO   H76 4906   6.931   8.787   2.453 -1.0579 -0.5824  0.3141
   12CHTO   C43 4907   6.796   9.005   2.498 -0.6650  0.3404 -0.1588
   12CHTO   H85 4908   6.700   8.956   2.517 -1.2743  0.9360 -1.6741
   12CHTO   O29 4909   6.779   9.148   2.488  0.4973  0.4366 -0.0532
   12CHTO   C50 4910   6.871   9.228   2.417 -0.0801  0.3315  0.1926
   12CHTO   H92 4911   6.815   9.321   2.398  1.1461  1.3179  1.2472
   12CHTO   C54 4912   6.987   9.261   2.507 -0.4985  0.4094  0.2333
   12CHTO   O36 4913   6.969   9.379   2.594 -0.4322  0.2309 -0.0932
   12CHTO   H72 4914   7.018   9.456   2.572  0.6674 -0.3224  0.3979
   12CHTO   O27 4915   6.881   8.971   2.614  0.1706 -0.0668 -0.1527
   12CHTO   C37 4916   6.853   8.989   2.756 -0.4344 -0.1383  0.6720
   12CHTO   H79 4917   6.952   8.983   2.804  0.6220  0.4457 -1.3541
   12CHTO   C38 4918   6.781   9.127   2.797  0.0840  0.5110 -0.0833
   12CHTO   H80 4919   6.726   9.162   2.708  0.6582 -0.1296 -0.6942
   12CHTO   O31 4920   6.875   9.232   2.822  0.0408 -0.2413  0.3943
   12CHTO   H68 4921   6.917   9.284   2.757  0.0249 -0.8924 -0.1421
   12CHTO   C39 4922   6.674   9.118   2.910  0.5043 -0.0618  0.1155
   12CHTO   H81 4923   6.729   9.147   3.000 -2.4513 -0.6430  2.1697
   12CHTO    N7 4924   6.578   9.233   2.911 -0.0726 -0.2875  0.0421
   12CHTO   H73 4925   6.630   9.328   2.907  2.5236 -1.6606  0.1957
   12CHTO   H74 4926   6.513   9.230   2.996 -0.2517 -0.4024 -0.0994
   12CHTO   C40 4927   6.606   8.977   2.916 -0.4381  0.7383  0.3368
   12CHTO   H82 4928   6.548   8.959   2.825  0.6115 -2.2607  0.2049
   12CHTO   O26 4929   6.708   8.879   2.935 -0.6104  0.0956  0.0843
   12CHTO   C41 4930   6.776   8.857   2.795  0.2490  1.2044  0.3008
   12CHTO   H83 4931   6.694   8.837   2.724  1.1281 -2.3267  0.1596
   12CHTO   C52 4932   6.873   8.737   2.799  0.0644 -0.2328 -0.3706
   12CHTO   O35 4933   6.802   8.611   2.854 -0.5465 -0.0538  0.5897
   12CHTO   H71 4934   6.769   8.621   2.941  0.2016 -1.9035  1.1037
   12CHTO   O28 4935   6.530   8.955   3.031  0.0155  0.5663  0.0494
   12CHTO   C42 4936   6.401   8.895   3.049 -0.1496  0.1101  0.4552
   12CHTO   H84 4937   6.422   8.824   3.129  0.5363 -0.6976 -0.4350
   12CHTO   C44 4938   6.356   8.800   2.927  0.0057 -0.6643 -0.1303
   12CHTO   H86 4939   6.359   8.862   2.838 -0.4802  2.2502  1.8225
   12CHTO   O32 4940   6.449   8.689   2.924  0.0320  0.0862 -1.0296
   12CHTO   H69 4941   6.438   8.631   2.850 -0.8421 -1.3327  0.1863
   12CHTO   C48 4942   6.209   8.740   2.952 -0.4603  0.2044  0.0332
   12CHTO   H90 4943   6.213   8.655   3.020 -1.3946  0.5410  0.5119
   12CHTO    N9 4944   6.151   8.677   2.822 -0.0046  0.4670 -0.0892
   12CHTO   H77 4945   6.208   8.727   2.744 -2.6641 -0.2685 -2.5751
   12CHTO   H78 4946   6.048   8.705   2.810 -0.1018  0.8157  1.4521
   12CHTO   C51 4947   6.106   8.844   3.002  0.3604 -0.1379 -0.1630
   12CHTO   H93 4948   6.087   8.919   2.925  1.6229 -0.0383 -0.3825
   12CHTO   O30 4949   6.160   8.905   3.125 -0.2264 -0.1416  0.2389
   12CHTO   C46 4950   6.291   8.986   3.104  0.2303 -0.2812 -0.5919
   12CHTO   H88 4951   6.277   9.056   3.021  0.0067 -1.0663 -1.2285
   12CHTO   C53 4952   6.323   9.058   3.242 -0.2500  0.0486 -0.5054
   12CHTO   O72 4953   6.355   8.977   3.356 -0.0534  0.3223 -0.0709
   12CHTO  H199 4954   6.424   8.915   3.349 -0.9346 -0.7165  0.3850
   12CHTO   O22 4955   5.983   8.767   3.045 -0.2532  0.6770 -0.6661
   12CHTO   C31 4956   5.848   8.811   3.096 -0.4801 -0.2635  0.8840
   12CHTO   H59 4957   5.805   8.720   3.142 -2.8689 -0.8095 -2.2967
   12CHTO   C29 4958   5.841   8.928   3.197 -0.2923 -0.2915 -0.0926
   12CHTO   H57 4959   5.888   9.021   3.162 -1.3946 -0.0420 -0.9045
   12CHTO   O21 4960   5.933   8.882   3.296 -0.1470  0.0950  0.2315
   12CHTO   H37 4961   5.926   8.927   3.378 -0.9049  2.1446 -0.9193
   12CHTO   C27 4962   5.697   8.950   3.250 -0.0041  0.4565 -0.7856
   12CHTO   H55 4963   5.667   8.859   3.303 -0.0147 -0.0855 -1.7076
   12CHTO    N5 4964   5.699   9.066   3.345 -0.0037 -0.2278  0.0919
   12CHTO   H43 4965   5.722   9.149   3.281  1.5961 -1.4931 -1.0141
   12CHTO   H44 4966   5.600   9.071   3.389  0.0544  0.7014  0.1232
   12CHTO   C25 4967   5.604   8.975   3.129  0.0142 -0.5728 -0.9528
   12CHTO   H53 4968   5.640   9.064   3.075  0.4669 -1.3964 -2.0607
   12CHTO   O17 4969   5.617   8.860   3.039  0.6829 -0.5363  0.4206
   12CHTO   C32 4970   5.749   8.838   2.981  0.2230 -0.0963 -0.5990
   12CHTO   H60 4971   5.780   8.925   2.923  2.9764 -2.9475 -3.5489
   12CHTO   C36 4972   5.734   8.720   2.890  0.3268 -0.5826  0.1287
   12CHTO   O25 4973   5.842   8.717   2.796 -0.2461  0.3489  0.2464
   12CHTO   H40 4974   5.910   8.657   2.818  0.0826  0.2831 -0.8833
   12CHTO   O15 4975   5.445   9.003   3.169 -0.1396  0.4388 -0.5877
   12CHTO   C19 4976   5.329   9.006   3.081  0.8270  0.1451  0.4407
   12CHTO   H47 4977   5.264   9.073   3.140  0.5545 -0.5802  0.9644
   12CHTO   C20 4978   5.346   9.056   2.931 -0.3002  0.6575 -0.4283
   12CHTO   H48 4979   5.413   8.994   2.871 -0.9649 -1.1541  0.6768
   12CHTO   O19 4980   5.400   9.184   2.948 -0.6515 -0.2027  0.5815
   12CHTO   H35 4981   5.407   9.227   2.865  2.0580 -1.5579  0.0359
   12CHTO   C21 4982   5.212   9.067   2.847  0.4555 -0.6510  0.2238
   12CHTO   H49 4983   5.147   9.145   2.888  0.3731  0.0071 -1.1299
   12CHTO    N4 4984   5.236   9.106   2.705  0.3992  1.1172  0.3912
   12CHTO   H41 4985   5.245   9.214   2.707  3.1643  0.9108  1.0876
   12CHTO   H42 4986   5.161   9.077   2.633  0.1908 -0.1353  1.1081
   12CHTO   C22 4987   5.137   8.932   2.870 -0.4751 -0.4689  0.3741
   12CHTO   H50 4988   5.190   8.853   2.817  1.6700  1.2208 -0.0758
   12CHTO   O14 4989   5.128   8.888   3.008 -0.1051 -0.2519  0.6807
   12CHTO   C23 4990   5.255   8.873   3.074 -0.1528 -0.1379  0.0883
   12CHTO   H51 4991   5.315   8.795   3.026  0.4950 -0.8192  1.9525
   12CHTO   C34 4992   5.230   8.822   3.216 -0.0938  0.2972 -0.0369
   12CHTO   O23 4993   5.348   8.803   3.304  0.0863 -0.4165  0.5370
   12CHTO   H38 4994   5.331   8.742   3.374  2.8103  0.1847  1.7742
   12CHTO   O16 4995   5.001   8.946   2.836 -0.1511 -0.7637 -0.2185
   12CHTO   C24 4996   4.935   8.815   2.765 -0.1046  0.3574 -0.0182
   12CHTO   H52 4997   5.000   8.728   2.767  0.5319  0.8541  0.7135
   12CHTO   C26 4998   4.902   8.855   2.618  0.1481 -0.0645  0.3533
   12CHTO   H54 4999   4.850   8.953   2.618  2.0311  0.9568 -0.5251
   12CHTO   O20 5000   5.027   8.865   2.540  0.7717 -0.0603  0.5646
   12CHTO   H36 5001   5.070   8.946   2.562  1.6712  0.0963 -1.6005
   12CHTO   C30 5002   4.815   8.750   2.547 -0.3459  0.1366 -0.4081
   12CHTO   H58 5003   4.876   8.661   2.527  1.7873  1.0662  1.7963
   12CHTO    N6 5004   4.763   8.798   2.411  0.2636 -0.2997  0.1480
   12CHTO   H45 5005   4.703   8.719   2.368  1.8879 -1.5903  0.2180
   12CHTO   H46 5006   4.844   8.828   2.347 -0.0142  0.5383  0.1854
   12CHTO   C33 5007   4.692   8.704   2.638  0.0704  0.1340 -0.5065
   12CHTO   H61 5008   4.632   8.795   2.654  1.0907  1.1363 -2.2053
   12CHTO   O18 5009   4.750   8.657   2.767 -0.0125 -0.7995 -0.8012
   12CHTO   C28 5010   4.805   8.768   2.838  0.1068 -0.2990 -0.0217
   12CHTO   H56 5011   4.735   8.851   2.845  0.8224  0.4425 -1.3991
   12CHTO   C35 5012   4.835   8.704   2.977  0.0312 -0.1584 -0.2173
   12CHTO   O24 5013   4.807   8.790   3.083  0.2450  0.1006 -0.4962
   12CHTO   H39 5014   4.825   8.744   3.162  2.1727  0.7435 -0.5327
   12CHTO    O9 5015   4.604   8.605   2.577  0.2245  0.1875  0.0608
   12CHTO   C13 5016   4.655   8.459   2.577  0.5637 -0.3494  0.8742
   12CHTO   H26 5017   4.747   8.454   2.639  0.3390  0.0973  1.2485
   12CHTO   C11 5018   4.677   8.409   2.425 -0.3276 -0.3615  0.0970
   12CHTO   H24 5019   4.758   8.472   2.385 -0.2617  0.7126  1.8598
   12CHTO    O8 5020   4.551   8.428   2.352 -0.3825 -1.1226  0.7203
   12CHTO    H3 5021   4.503   8.348   2.342 -0.7072 -0.7175 -1.1900
   12CHTO    C9 5022   4.733   8.264   2.430  0.1566 -0.1506 -0.4723
   12CHTO   H22 5023   4.829   8.265   2.483 -0.3721  1.2459  0.4918
   12CHTO    N2 5024   4.773   8.215   2.299  0.3893  0.2270 -0.2752
   12CHTO   H10 5025   4.694   8.217   2.226  0.2529  2.2994 -0.0974
   12CHTO   H11 5026   4.868   8.253   2.263  0.8291 -0.1022  0.5212
   12CHTO    C7 5027   4.633   8.167   2.503  0.0053 -0.5288 -0.7255
   12CHTO   H20 5028   4.691   8.077   2.530  1.1811  0.2139 -0.7327
   12CHTO    O4 5029   4.581   8.227   2.633 -0.3344  0.3048  0.2378
   12CHTO   C14 5030   4.550   8.367   2.655 -0.5241 -0.2681  0.9357
   12CHTO   H27 5031   4.565   8.400   2.760 -0.9661  2.0405  0.3050
   12CHTO   C18 5032   4.399   8.390   2.624 -0.3673 -0.6965  0.6203
   12CHTO   O13 5033   4.326   8.303   2.712 -0.2178 -0.4566  0.1653
   12CHTO    H7 5034   4.306   8.222   2.669 -0.7161 -0.0257 -0.4240
   12CHTO    O2 5035   4.490   8.113   2.400  0.2550  0.4743 -0.9317
   12CHTO    C1 5036   4.475   7.974   2.432 -0.3263  0.0426  0.4800
   12CHTO   H14 5037   4.519   7.959   2.533  0.1275 -0.1502  0.2526
   12CHTO    C2 5038   4.548   7.884   2.337 -0.1120  0.6065  0.2213
   12CHTO   H15 5039   4.515   7.910   2.235  0.6833 -0.0168 -0.2035
   12CHTO    O6 5040   4.688   7.909   2.348 -0.4422  0.1721 -0.6785
   12CHTO    H1 5041   4.736   7.861   2.284 -1.9009 -3.0541  0.5297
   12CHTO    C3 5042   4.520   7.730   2.361  0.3954 -0.4590 -0.3932
   12CHTO   H16 5043   4.571   7.711   2.457 -1.1728  2.3951  1.0761
   12CHTO    N1 5044   4.576   7.644   2.245 -0.1134  0.0348 -0.9041
   12CHTO    H8 5045   4.537   7.687   2.153  0.7316 -0.8300 -1.6759
   12CHTO    H9 5046   4.540   7.544   2.262  0.9491  0.2157  2.8876
   12CHTO    C4 5047   4.365   7.694   2.390 -0.0666 -0.3746  0.6489
   12CHTO   H17 5048   4.317   7.695   2.292  1.8951 -1.5643 -0.3614
   12CHTO    O1 5049   4.316   7.790   2.486 -0.8678 -0.2722 -0.2795
   12CHTO    C5 5050   4.330   7.927   2.438  0.3456 -1.0584 -0.0787
   12CHTO   H18 5051   4.292   7.931   2.336  0.6452  1.5747 -0.1167
   12CHTO   C16 5052   4.231   8.006   2.540 -0.0079 -0.4042  0.3335
   12CHTO   O11 5053   4.196   8.142   2.510 -0.6329  0.2006  0.0255
   12CHTO    H5 5054   4.156   8.180   2.586  0.6356  0.4680  0.5598
   12CHTO    O3 5055   4.346   7.563   2.457  0.4661  0.2365 -0.2188
   12CHTO    C6 5056   4.206   7.518   2.478 -0.0226 -0.1604  0.1488
   12CHTO   H19 5057   4.141   7.605   2.470  0.2179  0.0666  0.6347
   12CHTO    C8 5058   4.174   7.418   2.364 -0.0505 -0.3781  0.2219
   12CHTO   H21 5059   4.241   7.332   2.366  1.3614  0.6066 -2.3909
   12CHTO    O7 5060   4.186   7.501   2.248 -0.3386 -0.5320 -0.2646
   12CHTO    H2 5061   4.277   7.511   2.228  0.0329 -0.3930  1.4015
   12CHTO   C12 5062   4.031   7.356   2.370 -0.3563 -0.1722  0.0328
   12CHTO   H25 5063   3.958   7.439   2.362 -1.6568 -1.2956  0.1025
   12CHTO    N3 5064   4.004   7.262   2.266  0.3572 -0.4770  0.3783
   12CHTO   H12 5065   3.899   7.239   2.265 -0.0827  1.5051  0.1374
   12CHTO   H13 5066   4.037   7.302   2.171  1.5185 -2.9797 -0.3220
   12CHTO   C15 5067   4.015   7.293   2.511 -0.2350 -0.1439 -0.3897
   12CHTO   H28 5068   4.096   7.221   2.523  1.1189  1.2320 -1.0920
   12CHTO   O10 5069   3.866   7.236   2.540  0.2147 -0.7045  0.2831
   12CHTO    H4 5070   3.841   7.178   2.470 -1.4694  1.8105 -1.2493
   12CHTO    O5 5071   4.036   7.399   2.606  0.0491 -0.4821  0.0077
   12CHTO   C10 5072   4.175   7.445   2.614 -0.9192 -0.5119 -1.1072
   12CHTO   H23 5073   4.252   7.369   2.631 -3.0441 -2.4868 -0.1122
   12CHTO   C17 5074   4.183   7.543   2.734 -0.3297 -0.4953 -1.1384
   12CHTO   O12 5075   4.081   7.642   2.728 -0.0790  0.4726 -0.2100
   12CHTO    H6 5076   4.107   7.700   2.659 -0.4157  0.0701 -0.6787
   13CHTO  H203 5077   8.704   4.567   1.443  0.0744 -1.7640  0.3469
   13CHTO   O82 5078   8.622   4.582   1.487  0.1409  0.5978 -0.2533
   13CHTO  C123 5079   8.531   4.624   1.384  0.8253  0.1790 -0.5683
   13CHTO  H227 5080   8.532   4.556   1.297 -0.7422  1.5039 -1.6465
   13CHTO   O77 5081   8.405   4.605   1.451 -0.1166 -0.1857  0.3371
   13CHTO  C118 5082   8.283   4.631   1.396  0.9877 -0.2027 -0.2725
   13CHTO  H222 5083   8.265   4.563   1.312 -1.3781 -1.8808  1.5360
   13CHTO  C125 5084   8.168   4.616   1.503  0.0552  0.3322 -0.1012
   13CHTO   O84 5085   8.163   4.480   1.553 -0.5756 -0.7905  0.3770
   13CHTO  H205 5086   8.094   4.475   1.617  0.0282 -1.0023  1.0090
   13CHTO  C114 5087   8.277   4.777   1.348 -0.2984 -0.0195 -0.5171
   13CHTO  H218 5088   8.267   4.840   1.436 -1.4860 -2.0065  0.8127
   13CHTO  C116 5089   8.406   4.817   1.270 -0.2409 -0.2157 -0.4912
   13CHTO  H220 5090   8.408   4.785   1.164  2.1681 -0.1864 -0.4806
   13CHTO   O79 5091   8.409   4.961   1.257 -0.1726 -0.1577 -0.6822
   13CHTO  H201 5092   8.348   4.989   1.192 -2.1531 -0.1097  1.1545
   13CHTO  C120 5093   8.545   4.768   1.333  0.2731  0.5090  0.2710
   13CHTO  H224 5094   8.558   4.833   1.422 -0.2722  1.1439 -0.1078
   13CHTO   N21 5095   8.662   4.783   1.240  0.0971 -0.4978 -0.3797
   13CHTO  H211 5096   8.747   4.818   1.297 -1.4783  0.2593  1.6035
   13CHTO  H212 5097   8.686   4.697   1.179  0.7683  0.0020 -0.8315
   13CHTO   O75 5098   8.159   4.781   1.265  0.1502 -0.0471  0.4100
   13CHTO  C112 5099   8.047   4.914   1.297 -0.1117 -0.3751 -0.0182
   13CHTO  H216 5100   8.105   4.997   1.340  0.8353 -0.3008 -1.4214
   13CHTO   O73 5101   7.951   4.860   1.395  0.8308  0.1075  0.1265
   13CHTO  C113 5102   7.858   4.958   1.442 -0.3765 -0.5488 -0.1415
   13CHTO  H217 5103   7.909   5.042   1.495  0.5504 -0.3635 -1.3094
   13CHTO  C124 5104   7.772   4.893   1.550  0.7141 -0.1981  0.8674
   13CHTO   O83 5105   7.703   4.986   1.636  0.2328  0.0761 -0.5494
   13CHTO  H204 5106   7.643   5.028   1.578 -1.1142 -1.5067 -0.3278
   13CHTO  C109 5107   7.769   5.009   1.322 -0.6321  1.5794  0.2077
   13CHTO  H213 5108   7.722   4.919   1.280  0.7690  1.0989 -0.3629
   13CHTO  C110 5109   7.866   5.065   1.209 -0.0860  1.1852 -0.0874
   13CHTO  H214 5110   7.911   5.157   1.247  0.5862  0.8216  0.0032
   13CHTO   O78 5111   7.776   5.103   1.103  0.1237  0.4744 -0.0624
   13CHTO  H200 5112   7.739   5.188   1.116 -0.8780 -0.2819  2.3711
   13CHTO  C111 5113   7.974   4.960   1.166  0.1068 -0.2370 -0.1723
   13CHTO  H215 5114   7.926   4.867   1.132  0.3813 -0.6682  0.6027
   13CHTO   N19 5115   8.081   4.984   1.066 -0.1032  0.0917 -0.1903
   13CHTO  H207 5116   8.038   5.003   0.968  0.5195  0.0818 -0.4633
   13CHTO  H208 5117   8.142   4.895   1.068  1.1590  0.9710  1.2391
   13CHTO   O74 5118   7.671   5.106   1.364  0.2275  0.4578  0.1342
   13CHTO  C115 5119   7.525   5.091   1.321 -0.6398 -0.0128  0.3643
   13CHTO  H219 5120   7.506   5.126   1.220 -0.6006  0.3165  0.4676
   13CHTO   O76 5121   7.487   4.938   1.314  0.2166 -0.4340 -0.3919
   13CHTO  C122 5122   7.348   4.920   1.276 -0.2737 -0.2726  0.3442
   13CHTO  H226 5123   7.321   4.815   1.280 -2.5355  0.3082  1.0413
   13CHTO  C126 5124   7.313   4.972   1.134  0.0889  0.7932 -0.4045
   13CHTO   O85 5125   7.400   4.935   1.033 -0.0974  0.7801  0.0860
   13CHTO  H206 5126   7.365   4.970   0.953 -2.9043 -4.0480 -1.0094
   13CHTO  C121 5127   7.251   4.987   1.382 -0.0748  0.0567  0.5582
   13CHTO  H225 5128   7.152   4.977   1.334  0.4311  0.6130 -0.6164
   13CHTO   O81 5129   7.253   4.920   1.509  0.1749 -0.0853 -0.3712
   13CHTO  H202 5130   7.336   4.914   1.553  0.4701  2.4473 -0.5401
   13CHTO  C119 5131   7.280   5.138   1.402  0.6410  0.2107 -0.7457
   13CHTO  H223 5132   7.254   5.186   1.308 -0.3497 -0.9472 -1.0860
   13CHTO  C117 5133   7.433   5.167   1.425  0.0919  0.2004  0.1647
   13CHTO  H221 5134   7.482   5.135   1.518 -0.7055  0.1430  0.5669
   13CHTO   N20 5135   7.460   5.315   1.421 -0.1609 -0.0849 -0.1056
   13CHTO  H209 5136   7.462   5.348   1.319 -2.7126  0.4592 -0.0215
   13CHTO  H210 5137   7.553   5.337   1.472 -0.6789 -0.1426  0.8755
   13CHTO   O80 5138   7.164   5.205   1.507  0.2458 -0.1914 -0.1293
   13CHTO  C103 5139   7.039   5.259   1.445 -0.0380 -0.4734 -0.5060
   13CHTO  H190 5140   6.991   5.314   1.526 -1.3075 -0.7936 -1.0312
   13CHTO  C101 5141   7.046   5.354   1.322  0.3617 -0.4630  0.0807
   13CHTO  H188 5142   7.112   5.311   1.247  1.8986  1.7746  0.1291
   13CHTO   O68 5143   7.121   5.495   1.383  0.0035  0.1168  0.4517
   13CHTO  H168 5144   7.208   5.465   1.404  0.0342  0.1075  0.3144
   13CHTO   C99 5145   6.900   5.392   1.262  0.2737 -0.0091  0.1514
   13CHTO  H186 5146   6.848   5.440   1.348  0.3777  0.2741  0.0593
   13CHTO   N17 5147   6.907   5.487   1.147  0.2313  0.0197 -0.4515
   13CHTO  H174 5148   6.873   5.586   1.174  0.8246  0.1633 -0.2287
   13CHTO  H175 5149   7.006   5.492   1.105  0.5835 -0.2327  0.3569
   13CHTO   C97 5150   6.816   5.263   1.241 -0.6356  0.1871 -0.5445
   13CHTO  H184 5151   6.856   5.205   1.157 -0.5090 -1.5728  0.7051
   13CHTO   O64 5152   6.815   5.188   1.366 -0.0855 -0.1509 -0.3507
   13CHTO  C104 5153   6.940   5.142   1.412 -0.1225  0.1305  0.9846
   13CHTO  H191 5154   6.976   5.085   1.327 -0.1935  0.3225  0.8256
   13CHTO  C108 5155   6.926   5.037   1.520 -0.1878 -0.3005  0.0882
   13CHTO   O71 5156   6.828   4.935   1.487  0.0846 -0.6606  0.4394
   13CHTO  H171 5157   6.835   4.910   1.396 -0.8398 -0.7158  0.3856
   13CHTO   O62 5158   6.681   5.295   1.207 -0.0140 -0.6067 -0.3030
   13CHTO   C91 5159   6.596   5.187   1.179  0.1085  0.0617  0.1163
   13CHTO  H178 5160   6.642   5.094   1.210 -1.6321 -0.5902  0.7666
   13CHTO   C92 5161   6.588   5.185   1.026  0.2760 -0.6579  0.1586
   13CHTO  H179 5162   6.575   5.289   0.993 -3.3508 -0.4701  1.9168
   13CHTO   O66 5163   6.723   5.156   0.978 -0.3219  0.5059  0.2983
   13CHTO  H166 5164   6.721   5.123   0.890 -0.9855  1.5548 -0.0933
   13CHTO   C93 5165   6.484   5.086   0.965 -0.5917  0.0441  0.6603
   13CHTO  H180 5166   6.543   4.993   0.973  1.0340  1.0373  0.5371
   13CHTO   N16 5167   6.449   5.110   0.823 -0.1535 -0.6687  0.0496
   13CHTO  H172 5168   6.527   5.157   0.764 -1.1447  0.2424 -0.5707
   13CHTO  H173 5169   6.402   5.032   0.764  0.3518 -0.1300 -1.0865
   13CHTO   C94 5170   6.350   5.072   1.048 -0.2329  0.3662 -0.5033
   13CHTO  H181 5171   6.284   5.157   1.033  0.6588  1.1635  0.0933
   13CHTO   O61 5172   6.377   5.072   1.188 -0.2741 -0.2002 -0.1738
   13CHTO   C95 5173   6.449   5.188   1.242  0.6548 -0.5345 -0.0310
   13CHTO  H182 5174   6.389   5.277   1.222  1.7007  0.7519  2.3175
   13CHTO  C106 5175   6.465   5.172   1.399 -0.5885  0.1793 -0.3028
   13CHTO   O69 5176   6.505   5.301   1.452  0.2804  0.2971  0.5726
   13CHTO  H169 5177   6.457   5.310   1.532  0.5091  1.7895  0.5636
   13CHTO   O63 5178   6.252   4.934   0.994  0.3810 -0.1783  0.0639
   13CHTO   C96 5179   6.108   4.912   1.059 -0.5833 -0.1667  0.1696
   13CHTO  H183 5180   6.053   4.829   1.014 -1.0842 -0.3800  1.1437
   13CHTO   C98 5181   6.021   5.035   1.050 -0.3767 -0.7125  0.1381
   13CHTO  H185 5182   6.075   5.124   1.086 -0.6771 -0.5613  0.2168
   13CHTO   O67 5183   6.001   5.056   0.909 -0.0862  0.6648  0.4323
   13CHTO  H167 5184   5.923   5.106   0.896 -2.6360 -3.5170 -1.3785
   13CHTO  C102 5185   5.879   5.010   1.129 -0.6793  0.6261 -0.4071
   13CHTO  H189 5186   5.828   4.932   1.070  0.1850  0.3313 -0.7678
   13CHTO   N18 5187   5.783   5.125   1.125  0.1289  0.1008  0.1821
   13CHTO  H176 5188   5.802   5.197   1.203  1.2436  0.9868 -0.8896
   13CHTO  H177 5189   5.777   5.169   1.027 -1.6323 -0.0825  0.2002
   13CHTO  C105 5190   5.916   4.969   1.275 -0.4994 -0.0677  0.3505
   13CHTO  H192 5191   5.971   5.050   1.323  1.0763 -0.8451 -0.1036
   13CHTO   O65 5192   6.010   4.859   1.290 -0.3010  0.8207  0.0218
   13CHTO  C100 5193   6.131   4.871   1.211 -0.1259  0.3975  0.5352
   13CHTO  H187 5194   6.190   4.947   1.265 -0.8145  0.9567  0.5114
   13CHTO  C107 5195   6.200   4.739   1.234 -0.5021 -0.2001  0.7055
   13CHTO   O70 5196   6.342   4.736   1.211 -0.1133 -0.0463 -0.5945
   13CHTO  H170 5197   6.358   4.737   1.119 -0.5890  1.7998 -0.6778
   13CHTO   O57 5198   5.772   4.932   1.354 -0.5793  0.1030  0.0780
   13CHTO   C85 5199   5.694   4.805   1.356 -0.3196  0.4239  0.1336
   13CHTO  H157 5200   5.753   4.719   1.318  0.6867  0.8571  0.6693
   13CHTO   C83 5201   5.576   4.805   1.253  0.0476 -0.0315 -0.6507
   13CHTO  H155 5202   5.631   4.804   1.159  0.8897  1.8346 -0.2037
   13CHTO   O56 5203   5.497   4.924   1.248 -0.8576  0.7368  0.5068
   13CHTO  H135 5204   5.544   5.004   1.232 -0.8789  0.8436  0.9629
   13CHTO   C81 5205   5.499   4.673   1.274  0.3804  0.1678  0.4900
   13CHTO  H153 5206   5.568   4.589   1.264 -0.4696 -0.5911  0.8626
   13CHTO   N14 5207   5.396   4.644   1.167 -0.0385  0.5476  0.7514
   13CHTO  H141 5208   5.322   4.721   1.170 -0.0093  0.6112  0.0292
   13CHTO  H142 5209   5.444   4.640   1.071  0.9445 -1.1071  1.2914
   13CHTO   C79 5210   5.436   4.665   1.419 -0.2628 -0.2238 -0.5222
   13CHTO  H151 5211   5.376   4.574   1.420 -0.0814 -0.3414 -0.2732
   13CHTO   O52 5212   5.556   4.656   1.516  0.0035  0.5418  0.3244
   13CHTO   C86 5213   5.641   4.780   1.502  0.1177  0.3997  0.2820
   13CHTO  H158 5214   5.577   4.866   1.529 -1.1200 -0.3329 -0.2941
   13CHTO   C90 5215   5.762   4.788   1.595 -0.2846  0.5130  0.6494
   13CHTO   O60 5216   5.737   4.803   1.735 -0.6184  0.2664  0.0951
   13CHTO  H138 5217   5.654   4.765   1.756 -1.0136 -0.7004 -2.8942
   13CHTO   O50 5218   5.355   4.774   1.455  0.0203 -0.2919  0.6271
   13CHTO   C73 5219   5.221   4.812   1.496 -0.5030 -0.1566  0.0563
   13CHTO  H145 5220   5.150   4.733   1.468  0.4096 -0.8459 -0.3680
   13CHTO   C74 5221   5.181   4.942   1.421 -0.1947  0.0800 -0.4461
   13CHTO  H146 5222   5.185   4.929   1.312 -1.0526  1.8570 -0.7079
   13CHTO   O54 5223   5.045   4.969   1.462 -0.7620  0.3475  0.0237
   13CHTO  H133 5224   5.038   5.001   1.550 -2.2489  2.2725 -0.7614
   13CHTO   C75 5225   5.288   5.053   1.474 -0.1221 -0.1234 -0.0264
   13CHTO  H147 5226   5.390   5.016   1.464  1.0442  2.3085  2.2046
   13CHTO   N13 5227   5.289   5.172   1.385 -0.2417  0.1023  0.1284
   13CHTO  H139 5228   5.345   5.158   1.293  0.9313 -1.0878  1.0085
   13CHTO  H140 5229   5.193   5.220   1.376  0.0081  0.7003  0.6262
   13CHTO   C76 5230   5.265   5.070   1.631  0.7729 -0.1643  0.3410
   13CHTO  H148 5231   5.159   5.092   1.643  0.5712 -0.5034 -0.8008
   13CHTO   O49 5232   5.308   4.945   1.695 -0.5728  0.1185 -0.1166
   13CHTO   C77 5233   5.220   4.840   1.648 -0.8156 -0.2305  0.5894
   13CHTO  H149 5234   5.118   4.861   1.680 -1.0222  1.6468 -1.2040
   13CHTO   C88 5235   5.263   4.728   1.741 -0.0483 -0.3828 -1.0406
   13CHTO   O58 5236   5.206   4.591   1.696 -0.1827 -0.0358 -0.7272
   13CHTO  H136 5237   5.129   4.569   1.744  1.6841 -1.3476  1.8078
   13CHTO   O51 5238   5.337   5.202   1.690  0.3879 -0.0602 -0.2176
   13CHTO   C78 5239   5.501   5.216   1.711 -0.6177  0.8675 -0.4204
   13CHTO  H150 5240   5.515   5.305   1.777  0.5631 -0.2381  0.8451
   13CHTO   C80 5241   5.566   5.245   1.573 -0.0938 -0.5419  0.5603
   13CHTO  H152 5242   5.549   5.161   1.502  3.8314 -0.7377 -0.2172
   13CHTO   O55 5243   5.500   5.358   1.515 -0.6859  0.3046 -0.6041
   13CHTO  H134 5244   5.411   5.342   1.492 -0.2556 -0.9225 -1.4493
   13CHTO   C84 5245   5.722   5.268   1.603  0.1043 -0.7408  0.4628
   13CHTO  H156 5246   5.734   5.341   1.684 -1.0106 -0.1998  0.1537
   13CHTO   N15 5247   5.800   5.317   1.482 -0.7160 -0.1996  0.7636
   13CHTO  H143 5248   5.852   5.401   1.523  3.0364 -1.0368 -2.1218
   13CHTO  H144 5249   5.734   5.352   1.405  0.0818 -1.7944 -0.6709
   13CHTO   C87 5250   5.788   5.146   1.667  0.5930  0.4625 -0.3918
   13CHTO  H159 5251   5.775   5.064   1.596 -0.9699  1.0534 -0.8079
   13CHTO   O53 5252   5.707   5.122   1.804 -0.4279  0.3713  0.6241
   13CHTO   C82 5253   5.570   5.094   1.778  0.5448  0.3135  0.2554
   13CHTO  H154 5254   5.567   5.002   1.720  0.8861 -0.2747  1.1541
   13CHTO   C89 5255   5.502   5.072   1.913 -0.2305  0.4455 -0.3046
   13CHTO   O59 5256   5.368   5.026   1.936 -0.3253  0.5066  0.1519
   13CHTO  H137 5257   5.354   4.950   1.884 -1.6455  1.0671 -0.3392
   13CHTO   O45 5258   5.941   5.163   1.717  0.4700  0.0060  0.4138
   13CHTO   C67 5259   6.001   5.045   1.775  0.5876 -0.1026  0.0882
   13CHTO  H124 5260   5.957   4.952   1.738 -1.2556  1.5913 -2.1092
   13CHTO   C65 5261   6.150   5.054   1.739  0.0815 -0.1958 -0.2358
   13CHTO  H122 5262   6.153   5.083   1.634  0.6139  0.5912 -0.0103
   13CHTO   O44 5263   6.220   4.936   1.766  0.3547 -0.2178  0.2149
   13CHTO  H102 5264   6.232   4.912   1.856  1.8479 -0.7319 -0.1029
   13CHTO   C63 5265   6.210   5.179   1.812  0.0783  0.0728 -0.5708
   13CHTO  H120 5266   6.151   5.266   1.781 -0.5068 -0.4048 -0.8032
   13CHTO   N11 5267   6.345   5.228   1.755  0.1766 -0.4732 -0.1945
   13CHTO  H108 5268   6.416   5.148   1.758  2.4324  1.5332  2.3557
   13CHTO  H109 5269   6.332   5.259   1.653 -0.3013  1.1881  0.3496
   13CHTO   C61 5270   6.204   5.153   1.972  0.2124 -0.4518 -0.0366
   13CHTO  H118 5271   6.242   5.242   2.024  1.4016 -1.4138  0.7522
   13CHTO   O40 5272   6.056   5.147   2.005 -0.5779  0.3233  0.0949
   13CHTO   C68 5273   5.969   5.057   1.933  0.1118  0.2725 -0.3044
   13CHTO  H125 5274   5.868   5.100   1.950  0.2833  0.5599 -0.0101
   13CHTO   C72 5275   5.972   4.911   1.991  0.4645 -0.3759  0.0513
   13CHTO   O48 5276   5.952   4.919   2.129  0.2021  0.0064 -0.4015
   13CHTO  H105 5277   6.022   4.967   2.169 -0.5749  1.0361 -0.2440
   13CHTO   O38 5278   6.274   5.038   2.013  0.2674  0.5689 -0.5329
   13CHTO   C55 5279   6.365   5.039   2.117  0.1978 -0.1976 -0.1573
   13CHTO  H112 5280   6.398   4.936   2.138  0.8926 -0.2688 -1.5263
   13CHTO   C56 5281   6.310   5.120   2.245 -1.1728 -0.4282  0.2316
   13CHTO  H113 5282   6.272   5.217   2.209  0.5134  0.5930  1.1402
   13CHTO   O42 5283   6.201   5.041   2.291  0.2082 -0.1175 -0.1578
   13CHTO  H100 5284   6.228   4.954   2.313 -0.8226 -0.4366 -0.1391
   13CHTO   C57 5285   6.427   5.149   2.350  0.1004  0.0364 -0.1867
   13CHTO  H114 5286   6.456   5.050   2.387 -0.0464 -0.3355 -1.0629
   13CHTO   N10 5287   6.378   5.236   2.459 -0.2224  0.0975  0.4409
   13CHTO  H106 5288   6.271   5.236   2.450 -0.3479  2.5807  1.5995
   13CHTO  H107 5289   6.403   5.195   2.556  2.0303  1.1866  0.3693
   13CHTO   C58 5290   6.548   5.207   2.275  0.2452  1.4187 -0.3836
   13CHTO  H115 5291   6.519   5.303   2.228 -1.2294  0.5251 -1.3551
   13CHTO   O37 5292   6.597   5.125   2.166  0.1421 -0.4419  0.6088
   13CHTO   C59 5293   6.498   5.104   2.065  0.1803 -0.7675  0.0556
   13CHTO  H116 5294   6.468   5.202   2.027  2.2776 -0.6151 -1.3377
   13CHTO   C70 5295   6.569   5.013   1.955  0.8849 -0.5241  0.8524
   13CHTO   O46 5296   6.623   4.888   1.997  0.2661 -0.0560  0.4540
   13CHTO  H103 5297   6.715   4.903   2.009  0.3843 -0.9344  0.7221
   13CHTO   O39 5298   6.681   5.223   2.378 -0.1388  0.2239 -0.2336
   13CHTO   C60 5299   6.752   5.346   2.350 -0.2463  0.4970  0.0355
   13CHTO  H117 5300   6.727   5.377   2.248  1.0018 -0.4049 -0.5560
   13CHTO   C62 5301   6.707   5.461   2.450 -0.0596  0.3224  0.4640
   13CHTO  H119 5302   6.601   5.478   2.422 -0.4728 -2.6590  0.0072
   13CHTO   O43 5303   6.708   5.420   2.587 -0.2373 -0.1876  0.8104
   13CHTO  H101 5304   6.665   5.491   2.630  1.1067  0.0546  1.7607
   13CHTO   C66 5305   6.795   5.602   2.407 -0.8970 -0.3594 -0.0937
   13CHTO  H123 5306   6.762   5.636   2.309  0.0315  0.1950 -0.2307
   13CHTO   N12 5307   6.759   5.707   2.508  0.2495  0.4217  0.2898
   13CHTO  H110 5308   6.663   5.740   2.471  1.6566  1.3050 -2.6977
   13CHTO  H111 5309   6.831   5.786   2.526 -0.0544  1.1029 -1.4116
   13CHTO   C69 5310   6.952   5.576   2.404 -0.2772  0.5266  0.4766
   13CHTO  H126 5311   6.971   5.548   2.509  1.0788  1.9375  0.6341
   13CHTO   O41 5312   6.986   5.468   2.316 -0.8904  0.5493 -0.8725
   13CHTO   C64 5313   6.912   5.324   2.352 -0.1950  0.1701  0.7713
   13CHTO  H121 5314   6.947   5.300   2.454  0.9468 -0.0783  0.3293
   13CHTO   C71 5315   6.950   5.217   2.242 -0.4357 -0.1202 -0.5916
   13CHTO   O47 5316   7.083   5.171   2.268  0.2430 -0.1648 -0.1819
   13CHTO  H104 5317   7.139   5.223   2.214  0.2811 -0.9436 -0.9157
   13CHTO   O34 5318   7.039   5.697   2.362 -0.1712  0.0548  0.6303
   13CHTO   C49 5319   7.200   5.696   2.350  0.1570 -0.7548 -1.1891
   13CHTO   H91 5320   7.231   5.593   2.328  1.4694 -0.0077 -3.0131
   13CHTO   C47 5321   7.268   5.741   2.485 -0.2079 -0.0800 -0.0823
   13CHTO   H89 5322   7.377   5.721   2.486  0.2708  2.3785  1.3922
   13CHTO   O33 5323   7.206   5.658   2.589  0.5274  0.0138 -0.0292
   13CHTO   H70 5324   7.199   5.707   2.668  1.5052 -2.4916  1.6914
   13CHTO   C45 5325   7.250   5.902   2.504  0.2631 -0.9716  0.5159
   13CHTO   H87 5326   7.175   5.910   2.584 -1.0743 -0.8939 -0.7257
   13CHTO    N8 5327   7.381   5.954   2.549  0.7452 -0.1829 -0.2136
   13CHTO   H75 5328   7.468   5.890   2.555  1.3881  0.9158  2.7910
   13CHTO   H76 5329   7.376   6.023   2.632  1.6723 -0.1879 -0.1474
   13CHTO   C43 5330   7.188   5.972   2.368 -0.3543 -0.3010 -0.5025
   13CHTO   H85 5331   7.086   5.934   2.366 -0.0132 -1.4290  1.5818
   13CHTO   O29 5332   7.272   5.930   2.261  0.0868 -0.7663 -0.6393
   13CHTO   C50 5333   7.255   5.787   2.233  0.5124 -0.0911 -0.3567
   13CHTO   H92 5334   7.190   5.777   2.145 -0.6141 -0.9904  0.5607
   13CHTO   C54 5335   7.392   5.744   2.177 -0.1283  0.8264  0.8221
   13CHTO   O36 5336   7.489   5.746   2.280  0.1978 -0.2043  0.0774
   13CHTO   H72 5337   7.490   5.836   2.308 -1.8671 -0.3493  0.7321
   13CHTO   O27 5338   7.186   6.117   2.360 -0.0440 -0.1518 -0.5334
   13CHTO   C37 5339   7.124   6.244   2.389  0.1831  0.1476  0.9602
   13CHTO   H79 5340   7.185   6.299   2.462  1.6661 -0.9205  0.5316
   13CHTO   C38 5341   7.136   6.318   2.261  0.4631  0.1373 -0.1464
   13CHTO   H80 5342   7.088   6.262   2.180  0.6808 -0.5717  0.2153
   13CHTO   O31 5343   7.277   6.324   2.227 -0.4721 -0.8113  0.0859
   13CHTO   H68 5344   7.294   6.401   2.177  1.0997 -1.6391 -0.7064
   13CHTO   C39 5345   7.070   6.463   2.264 -0.4990  0.0109 -0.1409
   13CHTO   H81 5346   7.128   6.520   2.336 -0.8812  1.5791 -1.0643
   13CHTO    N7 5347   7.064   6.539   2.139  0.8136  0.1401  0.0395
   13CHTO   H73 5348   7.154   6.523   2.081  0.6298  1.2602 -0.5856
   13CHTO   H74 5349   7.040   6.642   2.161 -0.2215  0.2785 -1.6248
   13CHTO   C40 5350   6.918   6.453   2.328 -0.2610  0.6029 -0.0688
   13CHTO   H82 5351   6.842   6.435   2.252  0.5389  1.0658 -1.0016
   13CHTO   O26 5352   6.911   6.365   2.444 -0.1029 -0.3588 -0.5792
   13CHTO   C41 5353   6.973   6.231   2.427  0.7440  0.1928 -0.2262
   13CHTO   H83 5354   6.914   6.176   2.352 -0.3480  1.1792 -0.1104
   13CHTO   C52 5355   6.958   6.145   2.556 -0.5121  0.5283  0.2405
   13CHTO   O35 5356   6.805   6.135   2.585  0.3724  0.7853  0.1269
   13CHTO   H71 5357   6.770   6.212   2.624  0.0783  0.5090  0.4116
   13CHTO   O28 5358   6.904   6.579   2.395 -0.3582 -0.0469 -0.2687
   13CHTO   C42 5359   6.836   6.704   2.346  0.0641  0.2605  0.0076
   13CHTO   H84 5360   6.859   6.709   2.239 -1.6070  1.0452 -0.3307
   13CHTO   C44 5361   6.900   6.825   2.407  0.5110 -0.1740 -0.0384
   13CHTO   H86 5362   6.878   6.824   2.513 -1.4224  1.5887 -0.3996
   13CHTO   O32 5363   7.044   6.818   2.385 -0.3561 -0.0767 -0.1189
   13CHTO   H69 5364   7.081   6.737   2.416 -0.1827  0.1637  0.3134
   13CHTO   C48 5365   6.846   6.955   2.333 -0.1866  0.0568  0.5464
   13CHTO   H90 5366   6.866   6.946   2.226 -1.1905 -1.2295  0.4532
   13CHTO    N9 5367   6.910   7.084   2.370  0.1718  0.0120 -0.0037
   13CHTO   H77 5368   6.977   7.121   2.295  0.5580  0.1307  0.3953
   13CHTO   H78 5369   6.951   7.059   2.467  0.4755  0.2918 -0.0592
   13CHTO   C51 5370   6.691   6.956   2.333 -0.0310 -0.1341 -0.1442
   13CHTO   H93 5371   6.655   6.994   2.428 -1.6686  0.7666 -1.1064
   13CHTO   O30 5372   6.631   6.836   2.292 -0.2114 -0.0862 -0.5978
   13CHTO   C46 5373   6.683   6.710   2.356 -0.9327  0.5510 -0.9399
   13CHTO   H88 5374   6.660   6.725   2.461  1.5170  2.3865 -0.6063
   13CHTO   C53 5375   6.597   6.599   2.289 -0.1782 -0.0833  0.2715
   13CHTO   O72 5376   6.628   6.586   2.148  0.8921  0.1851  0.2014
   13CHTO  H199 5377   6.573   6.654   2.112  1.1585  0.4025  0.1976
   13CHTO   O22 5378   6.651   7.058   2.237 -0.4220  0.4782  0.0964
   13CHTO   C31 5379   6.517   7.121   2.250 -0.2200 -0.5634 -0.1633
   13CHTO   H59 5380   6.507   7.181   2.157  0.9795  0.6398  0.4614
   13CHTO   C29 5381   6.398   7.025   2.257 -0.3533  1.0057 -0.0421
   13CHTO   H57 5382   6.411   6.962   2.346 -0.0814  1.0459 -0.0513
   13CHTO   O21 5383   6.408   6.948   2.139 -0.6099  0.8090  0.0999
   13CHTO   H37 5384   6.378   6.861   2.157 -0.8355  1.1038  1.2055
   13CHTO   C27 5385   6.263   7.097   2.260  0.5468  0.4643  0.3397
   13CHTO   H55 5386   6.239   7.133   2.159 -0.2027  1.9354  1.0360
   13CHTO    N5 5387   6.147   7.002   2.296 -0.3476 -0.3214  0.5693
   13CHTO   H43 5388   6.097   6.988   2.202  0.9311 -1.6626  0.0564
   13CHTO   H44 5389   6.077   7.049   2.364 -0.9829 -0.3242 -0.0806
   13CHTO   C25 5390   6.271   7.218   2.363  0.2274  0.2071 -0.4369
   13CHTO   H53 5391   6.270   7.175   2.465  0.4024 -4.5206 -2.3118
   13CHTO   O17 5392   6.383   7.301   2.342  0.6328 -0.2319  0.0062
   13CHTO   C32 5393   6.504   7.223   2.363  0.3673  0.0597 -0.0226
   13CHTO   H60 5394   6.497   7.173   2.460 -0.0043 -1.6149 -0.8969
   13CHTO   C36 5395   6.609   7.323   2.383 -0.3570  0.0441 -0.0838
   13CHTO   O25 5396   6.591   7.397   2.504 -0.0194 -0.0628  0.4743
   13CHTO   H40 5397   6.627   7.483   2.489  1.3608 -0.7439 -0.1734
   13CHTO   O15 5398   6.160   7.317   2.372 -0.7361 -0.2466 -0.3147
   13CHTO   C19 5399   6.027   7.365   2.329 -0.4088  0.1983 -0.9391
   13CHTO   H47 5400   6.024   7.465   2.375  1.7312 -1.0048  2.0339
   13CHTO   C20 5401   6.014   7.392   2.176  0.0886 -0.2607 -0.5422
   13CHTO   H48 5402   6.030   7.300   2.117 -0.6748 -0.4660 -0.4373
   13CHTO   O19 5403   6.121   7.484   2.138  0.3564  0.3443  0.1860
   13CHTO   H35 5404   6.137   7.557   2.194 -4.2674  3.0094 -1.6849
   13CHTO   C21 5405   5.872   7.443   2.127 -0.2874 -0.5505  0.6208
   13CHTO   H49 5406   5.857   7.546   2.160 -1.3416 -0.1304 -1.0996
   13CHTO    N4 5407   5.865   7.445   1.979  0.5400 -0.2173 -0.1543
   13CHTO   H41 5408   5.861   7.346   1.935 -0.7987  0.5151 -1.7201
   13CHTO   H42 5409   5.949   7.501   1.940  0.5481  0.2409  0.5179
   13CHTO   C22 5410   5.767   7.353   2.194  0.5319  0.2490 -0.9313
   13CHTO   H50 5411   5.781   7.251   2.159 -2.0967 -1.4309  2.6046
   13CHTO   O14 5412   5.786   7.362   2.336  0.7602  0.2288 -0.1321
   13CHTO   C23 5413   5.900   7.292   2.383 -0.6252  0.3353  0.5267
   13CHTO   H51 5414   5.892   7.190   2.343  0.1237 -0.4634  2.3478
   13CHTO   C34 5415   5.878   7.296   2.534 -0.1852  0.1924  0.5328
   13CHTO   O23 5416   5.983   7.235   2.607 -0.3769 -0.2334 -0.4647
   13CHTO   H38 5417   5.960   7.220   2.696  1.9775  0.7384  0.3393
   13CHTO   O16 5418   5.627   7.398   2.166 -0.0340  0.1140 -0.6547
   13CHTO   C24 5419   5.514   7.322   2.245 -0.5784 -0.0396  0.3944
   13CHTO   H52 5420   5.547   7.294   2.344  1.0130  2.3472  0.5866
   13CHTO   C26 5421   5.481   7.195   2.163  0.0839 -0.3396  0.3939
   13CHTO   H54 5422   5.468   7.230   2.059 -0.8360 -0.3079  0.5134
   13CHTO   O20 5423   5.595   7.110   2.155  0.2888  0.1373  0.1223
   13CHTO   H36 5424   5.665   7.115   2.216  0.7384  2.2917 -0.4956
   13CHTO   C30 5425   5.351   7.127   2.207 -0.6286 -0.2509  0.0833
   13CHTO   H58 5426   5.355   7.093   2.311 -0.7787 -2.8145 -0.7114
   13CHTO    N6 5427   5.323   7.008   2.122  0.2539  0.8395 -0.0689
   13CHTO   H45 5428   5.399   6.994   2.047  0.5023 -0.9767  0.4872
   13CHTO   H46 5429   5.227   7.016   2.074 -0.5120  0.1483  1.3148
   13CHTO   C33 5430   5.242   7.244   2.210 -0.2282  0.5123  0.2924
   13CHTO   H61 5431   5.239   7.282   2.107  1.3335 -0.3501 -0.1021
   13CHTO   O18 5432   5.277   7.348   2.300  0.6042 -0.3024  0.2430
   13CHTO   C28 5433   5.391   7.416   2.262  0.6486 -0.2811 -0.6797
   13CHTO   H56 5434   5.358   7.456   2.166 -0.0746 -0.5440 -0.5420
   13CHTO   C35 5435   5.422   7.524   2.363  0.0893 -0.0588 -0.0389
   13CHTO   O24 5436   5.313   7.618   2.381  0.2213 -0.0821 -0.4866
   13CHTO   H39 5437   5.342   7.702   2.412 -0.3973  0.9922 -2.6894
   13CHTO    O9 5438   5.109   7.190   2.242  0.2269 -0.1546  0.0406
   13CHTO   C13 5439   5.088   7.149   2.382 -0.5611  0.4429 -0.1284
   13CHTO   H26 5440   5.187   7.153   2.432  0.3329  0.4525 -1.8664
   13CHTO   C11 5441   5.030   7.000   2.373  0.1008  0.8817  0.6734
   13CHTO   H24 5442   5.109   6.936   2.330 -1.9908 -0.4545 -1.3139
   13CHTO    O8 5443   4.915   6.992   2.284  0.3338  0.2622 -0.3126
   13CHTO    H3 5444   4.855   7.061   2.303 -0.2918 -0.5874  0.9500
   13CHTO    C9 5445   5.013   6.950   2.515  0.1293  0.0985  0.9379
   13CHTO   H22 5446   5.102   6.981   2.571 -0.8431  1.6411  1.6826
   13CHTO    N2 5447   5.013   6.804   2.535 -0.1185 -0.0914  0.3421
   13CHTO   H10 5448   4.993   6.759   2.438 -0.3050 -1.7902  1.1386
   13CHTO   H11 5449   4.940   6.767   2.605  1.2935  0.5985  2.2185
   13CHTO    C7 5450   4.897   7.038   2.582  0.3182  0.2012  0.8030
   13CHTO   H20 5451   4.934   7.054   2.685  0.1294  2.9761  0.4737
   13CHTO    O4 5452   4.881   7.168   2.520 -0.5186 -0.0831  0.2787
   13CHTO   C14 5453   4.990   7.246   2.471  0.5372  0.2943 -0.3495
   13CHTO   H27 5454   5.036   7.283   2.565  1.2160 -0.3264 -0.4342
   13CHTO   C18 5455   4.919   7.362   2.404  0.0788  0.1718  0.1285
   13CHTO   O13 5456   4.861   7.444   2.511 -0.0670  0.2209 -0.4078
   13CHTO    H7 5457   4.810   7.391   2.569  2.8445 -1.7501  0.4637
   13CHTO    O2 5458   4.743   6.950   2.572  0.0527  0.2254 -1.2442
   13CHTO    C1 5459   4.646   6.993   2.674 -0.3405  0.9334  0.0362
   13CHTO   H14 5460   4.551   6.947   2.639  0.1198 -2.4507  2.9955
   13CHTO    C2 5461   4.624   7.155   2.691 -0.3424  0.8485 -1.6811
   13CHTO   H15 5462   4.727   7.185   2.715 -0.8816 -0.3650  2.7089
   13CHTO    O6 5463   4.578   7.214   2.573  0.4837  0.2599  0.0257
   13CHTO    H1 5464   4.631   7.212   2.496 -0.6739 -1.1268 -0.7741
   13CHTO    C3 5465   4.524   7.186   2.821  0.4928 -0.3381 -0.2137
   13CHTO   H16 5466   4.420   7.161   2.797  1.1550 -0.9874 -2.6000
   13CHTO    N1 5467   4.522   7.330   2.858 -0.4992 -0.5987 -0.8121
   13CHTO    H8 5468   4.592   7.394   2.807 -0.2399 -1.0314 -1.0061
   13CHTO    H9 5469   4.499   7.348   2.962 -0.9840  1.0324 -1.1889
   13CHTO    C4 5470   4.566   7.091   2.945 -0.0022  0.4458  0.3175
   13CHTO   H17 5471   4.658   7.131   2.989  0.1848 -0.7943  1.0786
   13CHTO    O1 5472   4.586   6.951   2.908  0.3540  0.3043  0.5224
   13CHTO    C5 5473   4.681   6.932   2.811 -0.6845  0.0289 -0.7171
   13CHTO   H18 5474   4.767   6.986   2.851 -1.1231  0.8453 -0.8654
   13CHTO   C16 5475   4.719   6.782   2.793 -0.1620  0.1253  0.4803
   13CHTO   O11 5476   4.722   6.717   2.923  0.9482 -0.7282  0.1480
   13CHTO    H5 5477   4.809   6.725   2.957  0.9090 -1.1303  0.3478
   13CHTO    O3 5478   4.473   7.083   3.059 -0.2605  0.2907 -0.2833
   13CHTO    C6 5479   4.361   6.988   3.052 -0.8790 -0.4647  0.1924
   13CHTO   H19 5480   4.347   6.950   2.951  0.3379  2.6067 -1.1987
   13CHTO    C8 5481   4.400   6.877   3.155  0.2118 -0.5869  0.4716
   13CHTO   H21 5482   4.398   6.927   3.252  1.2737 -0.1468  0.2799
   13CHTO    O7 5483   4.533   6.821   3.135 -0.2609 -0.3704 -0.3841
   13CHTO    H2 5484   4.602   6.884   3.141 -0.3490 -0.3225  0.1865
   13CHTO   C12 5485   4.287   6.764   3.150 -1.1545 -0.5848  0.4001
   13CHTO   H25 5486   4.271   6.728   3.046 -0.0992 -0.0856  0.0612
   13CHTO    N3 5487   4.321   6.645   3.240  0.1690 -0.3680  1.0917
   13CHTO   H12 5488   4.417   6.657   3.286  0.6258 -0.2270  0.1173
   13CHTO   H13 5489   4.254   6.636   3.324  0.9849  3.0394  2.1469
   13CHTO   C15 5490   4.160   6.847   3.195  0.4790 -0.2729 -0.3720
   13CHTO   H28 5491   4.186   6.885   3.294  0.2367  1.2202 -0.8575
   13CHTO   O10 5492   4.029   6.763   3.209 -0.0231 -0.0551  0.0073
   13CHTO    H4 5493   3.972   6.786   3.280 -0.6153  0.7047 -0.6979
   13CHTO    O5 5494   4.126   6.945   3.097 -0.0711  0.3135  0.2240
   13CHTO   C10 5495   4.224   7.052   3.094 -0.0723 -0.0275 -0.4503
   13CHTO   H23 5496   4.224   7.090   3.196  0.4100 -1.9285  0.2804
   13CHTO   C17 5497   4.170   7.162   3.000 -0.8264 -0.0627  0.0224
   13CHTO   O12 5498   4.228   7.289   3.028 -0.2861 -0.0821  0.1074
   13CHTO    H6 5499   4.163   7.348   3.062  0.6065  1.5551 -0.9585
   14CHTO  H203 5500   7.279   4.474   1.967 -0.6731  0.2249 -1.4326
   14CHTO   O82 5501   7.193   4.499   1.993 -0.4147 -0.3069  0.0092
   14CHTO  C123 5502   7.131   4.563   1.876  0.0855  0.4010  0.2826
   14CHTO  H227 5503   7.207   4.600   1.806 -0.1770 -1.8147 -1.2241
   14CHTO   O77 5504   7.053   4.451   1.821 -0.7229 -0.4388  0.0704
   14CHTO  C118 5505   6.982   4.477   1.706 -0.3516  0.2826  0.0574
   14CHTO  H222 5506   7.050   4.531   1.639 -0.4625  0.1896 -0.1274
   14CHTO  C125 5507   6.944   4.351   1.623  0.2433 -0.0240  0.2249
   14CHTO   O84 5508   6.837   4.270   1.685 -0.0625  0.4096 -0.3558
   14CHTO  H205 5509   6.842   4.240   1.773  1.5261 -0.9382 -0.8608
   14CHTO  C114 5510   6.863   4.565   1.749 -0.2607 -0.3722  0.6418
   14CHTO  H218 5511   6.811   4.517   1.832 -1.4100 -2.1172 -1.0305
   14CHTO  C116 5512   6.928   4.700   1.789 -0.5148 -0.0283  0.5287
   14CHTO  H220 5513   6.983   4.734   1.698  0.7466  0.6585  1.5173
   14CHTO   O79 5514   6.832   4.802   1.821  0.1273 -0.3167  0.3058
   14CHTO  H201 5515   6.764   4.778   1.882 -0.5073  1.1620  0.1918
   14CHTO  C120 5516   7.030   4.685   1.906  0.5519  0.6563  0.6162
   14CHTO  H224 5517   6.969   4.666   1.997  0.4401 -1.4714  0.1160
   14CHTO   N21 5518   7.109   4.807   1.944 -0.8703  0.0618 -0.0945
   14CHTO  H211 5519   7.204   4.808   1.893 -0.6598 -2.2165  0.1829
   14CHTO  H212 5520   7.119   4.808   2.052  1.3491 -1.0933 -0.2566
   14CHTO   O75 5521   6.778   4.575   1.635 -0.1858 -0.1234  0.2128
   14CHTO  C112 5522   6.608   4.553   1.698 -0.1479 -0.3744  0.3921
   14CHTO  H216 5523   6.595   4.618   1.785  0.1137 -1.6132  1.3631
   14CHTO   O73 5524   6.595   4.416   1.729  0.2189  0.2889 -0.1453
   14CHTO  C113 5525   6.469   4.367   1.779 -0.3390 -0.3960 -0.6078
   14CHTO  H217 5526   6.424   4.426   1.862  0.5729 -1.9943  1.0683
   14CHTO  C124 5527   6.489   4.220   1.817  0.2248  0.1116  0.4010
   14CHTO   O83 5528   6.405   4.175   1.925 -0.6025 -1.0165  1.1310
   14CHTO  H204 5529   6.334   4.232   1.947 -0.1235 -0.2522  0.7405
   14CHTO  C109 5530   6.360   4.394   1.671 -0.1974 -0.2580  0.3300
   14CHTO  H213 5531   6.381   4.322   1.591  1.6565  0.1549  0.4303
   14CHTO  C110 5532   6.360   4.545   1.625  0.1338 -0.1403  0.0310
   14CHTO  H214 5533   6.323   4.607   1.707 -0.9605 -0.3777 -0.2704
   14CHTO   O78 5534   6.261   4.555   1.516  0.4093 -0.0257 -0.2996
   14CHTO  H200 5535   6.279   4.631   1.464 -4.0880  1.7744  0.5990
   14CHTO  C111 5536   6.505   4.587   1.578 -0.0047 -0.5027 -0.2351
   14CHTO  H215 5537   6.536   4.529   1.490  1.4697 -0.5392  0.2952
   14CHTO   N19 5538   6.525   4.727   1.538 -0.0166 -0.1159  0.4852
   14CHTO  H207 5539   6.514   4.791   1.624 -0.6309 -2.5266  2.2487
   14CHTO  H208 5540   6.629   4.738   1.511 -0.1009  0.8879  0.5503
   14CHTO   O74 5541   6.227   4.371   1.728 -0.1239 -0.5503  0.2866
   14CHTO  C115 5542   6.143   4.272   1.640 -0.0478  0.1384 -0.2789
   14CHTO  H219 5543   6.146   4.296   1.533 -2.7354 -2.9954 -1.1252
   14CHTO   O76 5544   6.206   4.110   1.652 -0.0185 -0.1031 -0.3746
   14CHTO  C122 5545   6.128   4.014   1.583  1.1513 -0.0563 -0.5362
   14CHTO  H226 5546   6.182   3.921   1.600  1.1456 -0.1072 -0.7911
   14CHTO  C126 5547   6.129   4.040   1.428 -0.6352 -0.4508  0.3360
   14CHTO   O85 5548   6.072   3.932   1.350  0.0319  0.1080 -0.0766
   14CHTO  H206 5549   6.068   3.952   1.259 -0.6957  1.3414  0.2135
   14CHTO  C121 5550   5.974   4.017   1.641  0.8868  0.0580  0.3913
   14CHTO  H225 5551   5.921   3.940   1.581  0.5221 -0.3373  1.2048
   14CHTO   O81 5552   5.966   3.988   1.781  0.2159 -0.1298 -0.2348
   14CHTO  H202 5553   6.007   4.051   1.837  0.1321 -1.7856  1.7426
   14CHTO  C119 5554   5.907   4.163   1.615 -0.5054  0.2192  0.1482
   14CHTO  H223 5555   5.923   4.182   1.509 -1.8517  2.2295  0.2859
   14CHTO  C117 5556   5.985   4.285   1.684 -0.7002 -0.3438  0.3348
   14CHTO  H221 5557   5.991   4.288   1.792 -0.2258  0.2893  0.2916
   14CHTO   N20 5558   5.930   4.417   1.638 -0.1365 -0.2111  0.0142
   14CHTO  H209 5559   5.863   4.454   1.714  0.0176 -2.1041  1.0944
   14CHTO  H210 5560   5.866   4.410   1.551  1.1279  0.8897 -1.0426
   14CHTO   O80 5561   5.761   4.153   1.627 -0.3527  0.0557  0.6243
   14CHTO  C103 5562   5.676   4.163   1.506  0.4414  0.4438  0.0287
   14CHTO  H190 5563   5.712   4.243   1.442  0.9265  0.9347  0.9070
   14CHTO  C101 5564   5.652   4.032   1.415 -0.1792 -0.2654  0.2032
   14CHTO  H188 5565   5.615   3.945   1.469 -0.6961  0.7368  1.5059
   14CHTO   O68 5566   5.790   3.973   1.343  0.9541 -0.0574 -0.1945
   14CHTO  H168 5567   5.839   3.919   1.402 -1.8843 -1.1200  1.2866
   14CHTO   C99 5568   5.541   4.070   1.306 -0.4465 -0.6139 -0.6438
   14CHTO  H186 5569   5.581   4.147   1.238 -0.7672 -0.2009 -0.3685
   14CHTO   N17 5570   5.492   3.952   1.222  0.9197  0.0015  0.1975
   14CHTO  H174 5571   5.443   3.877   1.281 -0.6340 -0.9463 -2.2112
   14CHTO  H175 5572   5.426   3.985   1.143  0.2598  1.0692  1.1772
   14CHTO   C97 5573   5.425   4.138   1.371 -0.3059 -0.2174 -0.2301
   14CHTO  H184 5574   5.374   4.063   1.433  0.5591  0.4226  1.3100
   14CHTO   O64 5575   5.460   4.251   1.445  0.4089 -0.7961 -0.2479
   14CHTO  C104 5576   5.538   4.214   1.563  0.5593  0.0994 -0.0374
   14CHTO  H191 5577   5.487   4.137   1.621 -0.6974  0.5752 -0.4791
   14CHTO  C108 5578   5.549   4.333   1.654 -0.3565  0.0088  1.2593
   14CHTO   O71 5579   5.415   4.369   1.702  0.1152  0.2106  0.0655
   14CHTO  H171 5580   5.388   4.304   1.763  1.7279  0.7024  1.3489
   14CHTO   O62 5581   5.335   4.203   1.279 -0.3726  0.2587  0.2672
   14CHTO   C91 5582   5.193   4.171   1.309 -0.4155  0.1266  0.3927
   14CHTO  H178 5583   5.188   4.075   1.359  0.5984 -0.2011 -0.1427
   14CHTO   C92 5584   5.111   4.140   1.184  0.2637  0.7242 -0.6854
   14CHTO  H179 5585   5.158   4.064   1.121  0.4582  0.1932  0.0951
   14CHTO   O66 5586   4.982   4.085   1.236  0.1942  0.0361 -0.3526
   14CHTO  H166 5587   4.924   4.156   1.254  0.5490  0.2643 -0.0899
   14CHTO   C93 5588   5.070   4.278   1.109 -0.4556  0.2858 -0.3571
   14CHTO  H180 5589   4.976   4.264   1.055  0.0119  1.1634 -1.4189
   14CHTO   N16 5590   5.172   4.311   1.010 -0.2387 -0.4043  0.5162
   14CHTO  H172 5591   5.159   4.415   0.988 -0.7305 -0.7119 -0.7014
   14CHTO  H173 5592   5.165   4.253   0.919 -1.0184 -1.9516  1.5371
   14CHTO   C94 5593   5.055   4.400   1.212  0.0064  0.6707  0.1303
   14CHTO  H181 5594   5.147   4.457   1.221 -0.4251  1.3203  0.4818
   14CHTO   O61 5595   5.022   4.351   1.344  0.5959  0.4867 -0.1199
   14CHTO   C95 5596   5.133   4.283   1.407  1.1842 -0.6594  0.0558
   14CHTO  H182 5597   5.207   4.354   1.443 -1.1949  0.4256  2.9829
   14CHTO  C106 5598   5.078   4.222   1.538 -0.1922  0.4927 -0.5474
   14CHTO   O69 5599   5.161   4.125   1.603  0.1065  0.0042 -0.2635
   14CHTO  H169 5600   5.125   4.041   1.583 -0.7438  0.3867 -0.3316
   14CHTO   O63 5601   4.943   4.499   1.165  0.4093  0.0162  1.0029
   14CHTO   C96 5602   4.932   4.635   1.241 -0.6218  0.1677  0.7056
   14CHTO  H183 5603   5.025   4.651   1.294 -0.8102  1.3204  0.6994
   14CHTO   C98 5604   4.817   4.644   1.342 -0.0656  0.0824 -1.4014
   14CHTO  H185 5605   4.735   4.585   1.300 -0.7712  0.1913 -0.1834
   14CHTO   O67 5606   4.857   4.581   1.462  0.7706 -0.0502 -0.6992
   14CHTO  H167 5607   4.847   4.488   1.456 -0.8215 -0.1150  2.0276
   14CHTO  C102 5608   4.776   4.793   1.381 -0.1833  0.1056 -0.1733
   14CHTO  H189 5609   4.853   4.833   1.449 -2.6210 -0.2866  2.9088
   14CHTO   N18 5610   4.649   4.802   1.459 -0.6776  0.0916  0.3440
   14CHTO  H176 5611   4.564   4.754   1.412 -1.1008  0.2244  0.9671
   14CHTO  H177 5612   4.629   4.902   1.493 -0.0909 -0.1669  1.5092
   14CHTO  C105 5613   4.766   4.887   1.256 -0.3479  0.1558  0.1996
   14CHTO  H192 5614   4.676   4.868   1.198 -1.0625  1.8317  0.7353
   14CHTO   O65 5615   4.880   4.881   1.177  0.3146  0.3006  0.0501
   14CHTO  C100 5616   4.910   4.750   1.133  0.1704  0.5260  0.2294
   14CHTO  H187 5617   4.842   4.708   1.057 -1.2847  1.4843  0.9878
   14CHTO  C107 5618   5.042   4.764   1.059 -0.1380  0.7656 -0.1565
   14CHTO   O70 5619   5.063   4.873   0.966  0.6999  0.2057  0.7855
   14CHTO  H170 5620   4.986   4.895   0.917  0.9225  1.1674  0.8540
   14CHTO   O57 5621   4.762   5.058   1.332  0.1022  0.2599  0.6852
   14CHTO   C85 5622   4.736   5.177   1.247  0.4847  0.6639  0.0345
   14CHTO  H157 5623   4.664   5.143   1.170  1.6603 -0.8694 -0.4218
   14CHTO   C83 5624   4.862   5.233   1.168  0.2471  0.0168 -0.4250
   14CHTO  H155 5625   4.907   5.160   1.101  1.9665  1.3507 -0.7542
   14CHTO   O56 5626   4.969   5.259   1.262 -0.1553  0.1917  0.1660
   14CHTO  H135 5627   4.935   5.323   1.322 -2.0658 -0.0179 -0.6537
   14CHTO   C81 5628   4.823   5.355   1.082 -0.4428  0.1474  0.5029
   14CHTO  H153 5629   4.734   5.327   1.026 -0.0071  0.1817 -0.2114
   14CHTO   N14 5630   4.926   5.382   0.977  0.3322  0.8809 -0.1118
   14CHTO  H141 5631   4.951   5.482   0.951  1.8211  0.2138 -1.3501
   14CHTO  H142 5632   4.903   5.329   0.887 -0.9827  3.0480 -1.0711
   14CHTO   C79 5633   4.782   5.476   1.170 -0.6739  0.2735  0.5384
   14CHTO  H151 5634   4.745   5.553   1.103 -1.0891 -1.4848 -1.2925
   14CHTO   O52 5635   4.661   5.436   1.256 -0.4887 -0.3144 -0.3488
   14CHTO   C86 5636   4.679   5.308   1.323  0.0644 -0.4649 -0.3546
   14CHTO  H158 5637   4.745   5.341   1.405 -0.5534  0.0087 -0.0392
   14CHTO   C90 5638   4.549   5.282   1.387  0.6691 -0.0204 -0.2306
   14CHTO   O60 5639   4.436   5.274   1.297 -0.0888  0.3927  0.4845
   14CHTO  H138 5640   4.457   5.225   1.219  0.6485  0.0478  0.8988
   14CHTO   O50 5641   4.886   5.539   1.249  0.4249  1.0456 -0.3120
   14CHTO   C73 5642   4.925   5.654   1.329 -0.4715  0.3388 -0.1026
   14CHTO  H145 5643   4.851   5.658   1.410  3.5444  1.5702  3.6715
   14CHTO   C74 5644   4.909   5.792   1.253  0.0595 -0.0626 -0.5178
   14CHTO  H146 5645   4.808   5.791   1.209  0.7381 -0.6355 -2.1344
   14CHTO   O54 5646   4.917   5.899   1.354  0.8028  0.0635 -0.0805
   14CHTO  H133 5647   4.896   5.981   1.316  0.3389 -0.5204 -1.1013
   14CHTO   C75 5648   5.015   5.799   1.139  0.4403  0.1937 -0.8221
   14CHTO  H147 5649   5.002   5.714   1.070  0.7823  1.3407 -2.3330
   14CHTO   N13 5650   5.010   5.937   1.079  0.1510 -0.2552  0.4962
   14CHTO  H139 5651   5.017   5.939   0.971 -0.6919 -0.5048  0.4336
   14CHTO  H140 5652   5.094   5.990   1.120 -1.0138  0.1041  2.4763
   14CHTO   C76 5653   5.158   5.760   1.207  0.0827  0.1563 -0.8573
   14CHTO  H148 5654   5.186   5.845   1.269 -0.5888 -1.9280  2.4240
   14CHTO   O49 5655   5.155   5.632   1.283 -0.2114  0.0274 -0.1271
   14CHTO   C77 5656   5.064   5.634   1.388  0.3176 -0.3987  0.1546
   14CHTO  H149 5657   5.083   5.714   1.460  0.3574 -1.4419  1.3328
   14CHTO   C88 5658   5.073   5.498   1.462  0.4714 -0.4113 -0.0823
   14CHTO   O58 5659   5.174   5.481   1.547  0.4553 -0.0851 -0.6887
   14CHTO  H136 5660   5.143   5.490   1.635  0.9748 -2.4411 -0.2432
   14CHTO   O51 5661   5.261   5.718   1.082  0.4725 -0.1438  0.2534
   14CHTO   C78 5662   5.395   5.749   1.110  0.0838  0.0585  0.2659
   14CHTO  H150 5663   5.400   5.795   1.211 -0.0272  2.9112 -0.9749
   14CHTO   C80 5664   5.438   5.862   1.017  0.2259  0.2071 -0.7427
   14CHTO  H152 5665   5.399   5.846   0.915 -0.4215 -4.0303  0.0778
   14CHTO   O55 5666   5.369   5.982   1.062 -0.5213  0.4242 -0.0522
   14CHTO  H134 5667   5.426   6.035   1.114  1.4360 -1.0394 -0.6257
   14CHTO   C84 5668   5.589   5.876   1.010 -0.1690 -1.1141 -0.1526
   14CHTO  H156 5669   5.626   5.906   1.107 -1.4645  0.6742 -0.1919
   14CHTO   N15 5670   5.631   5.977   0.906  0.7363  0.1246  0.2829
   14CHTO  H143 5671   5.737   5.993   0.905  0.7261  0.1924  0.2235
   14CHTO  H144 5672   5.598   5.930   0.815 -1.2320 -0.2440  1.1793
   14CHTO   C87 5673   5.664   5.743   0.988 -0.4032 -0.2195  0.1125
   14CHTO  H159 5674   5.642   5.694   0.893 -1.5854  0.8129 -0.1521
   14CHTO   O53 5675   5.620   5.648   1.114 -1.3335  0.1846  0.5438
   14CHTO   C82 5676   5.482   5.615   1.103 -0.0274 -0.3287  0.5388
   14CHTO  H154 5677   5.456   5.565   1.010 -0.4412 -2.3587  1.7109
   14CHTO   C89 5678   5.437   5.510   1.212  0.2396  0.3788 -0.1384
   14CHTO   O59 5679   5.433   5.582   1.343 -0.4915 -0.0072 -0.4961
   14CHTO  H137 5680   5.520   5.576   1.378  0.4336 -0.4788 -2.8074
   14CHTO   O45 5681   5.854   5.774   1.001  0.1193 -0.2508  0.3499
   14CHTO   C67 5682   5.927   5.658   0.949  0.2162 -0.2111 -0.5929
   14CHTO  H124 5683   5.855   5.578   0.928 -0.9841  0.5098  0.7572
   14CHTO   C65 5684   5.991   5.707   0.814  0.0599  0.3466 -0.3860
   14CHTO  H122 5685   5.920   5.762   0.753  1.7639  0.3581 -2.4538
   14CHTO   O44 5686   6.029   5.589   0.739  0.0566 -0.1769  0.6021
   14CHTO  H102 5687   5.948   5.557   0.703 -0.2559 -0.0028  1.1385
   14CHTO   C63 5688   6.113   5.805   0.840 -0.7972 -0.0150 -0.2756
   14CHTO  H120 5689   6.080   5.885   0.906  1.3580  0.9609 -0.3254
   14CHTO   N11 5690   6.172   5.882   0.728 -0.5614 -0.0773 -0.2607
   14CHTO  H108 5691   6.206   5.978   0.764  1.9547 -2.6035  4.6289
   14CHTO  H109 5692   6.108   5.898   0.644  1.0857  0.0728 -1.5013
   14CHTO   C61 5693   6.212   5.720   0.926 -0.0123 -0.1861 -0.3441
   14CHTO  H118 5694   6.295   5.788   0.948  0.0901 -0.4807  0.2016
   14CHTO   O40 5695   6.148   5.689   1.055 -0.5123 -0.6825 -0.6333
   14CHTO   C68 5696   6.032   5.603   1.054  0.6095  0.2461  0.0420
   14CHTO  H125 5697   5.984   5.616   1.153  0.5857  3.2163 -0.3184
   14CHTO   C72 5698   6.079   5.453   1.042 -0.2562  0.3208  0.9622
   14CHTO   O48 5699   6.134   5.417   1.167  0.3425  0.0066  0.0397
   14CHTO  H105 5700   6.056   5.384   1.208  1.0381 -1.7705 -0.0230
   14CHTO   O38 5701   6.265   5.601   0.861  0.5892  0.0799 -0.6147
   14CHTO   C55 5702   6.399   5.615   0.806 -0.3278 -0.0244 -0.6557
   14CHTO  H112 5703   6.418   5.721   0.785 -1.2622  0.1186 -0.8165
   14CHTO   C56 5704   6.395   5.530   0.668 -0.3479  0.1107  0.1212
   14CHTO  H113 5705   6.338   5.439   0.691  0.1986  0.0900  1.4334
   14CHTO   O42 5706   6.319   5.607   0.579  0.3517  0.0402  0.1015
   14CHTO  H100 5707   6.231   5.610   0.612  0.6972  0.0734  1.0278
   14CHTO   C57 5708   6.539   5.514   0.608  0.4981 -1.3507 -0.0758
   14CHTO  H114 5709   6.560   5.610   0.560 -0.3577 -1.7818 -1.3393
   14CHTO   N10 5710   6.559   5.408   0.502  0.3368  0.0104  0.5623
   14CHTO  H106 5711   6.475   5.389   0.437 -0.0890 -2.6000  1.7896
   14CHTO  H107 5712   6.649   5.401   0.442 -0.0973  0.8461 -0.1929
   14CHTO   C58 5713   6.647   5.497   0.718 -1.3404  0.3780 -0.3868
   14CHTO  H115 5714   6.646   5.392   0.754  1.3025  0.8428  1.2433
   14CHTO   O37 5715   6.634   5.573   0.839 -0.1596 -0.1357  0.2062
   14CHTO   C59 5716   6.505   5.561   0.899 -0.9232  0.2051  0.0675
   14CHTO  H116 5717   6.488   5.455   0.916  3.4088 -0.5597  0.0588
   14CHTO   C70 5718   6.510   5.641   1.031 -0.1357 -0.1115  0.1076
   14CHTO   O46 5719   6.618   5.625   1.123 -0.5054 -0.1848  0.1480
   14CHTO  H103 5720   6.696   5.660   1.085 -0.9324 -0.9899 -1.4921
   14CHTO   O39 5721   6.790   5.546   0.649 -0.3185 -0.1342 -0.6544
   14CHTO   C60 5722   6.907   5.512   0.724 -0.6301  0.4554  0.3358
   14CHTO  H117 5723   6.877   5.526   0.828 -2.5049  0.7748 -0.2116
   14CHTO   C62 5724   6.936   5.360   0.717  0.3686  0.1906  0.5078
   14CHTO  H119 5725   6.849   5.311   0.765  1.0676 -0.8921  0.7004
   14CHTO   O43 5726   6.934   5.313   0.576 -0.4130 -0.1843 -0.2381
   14CHTO  H101 5727   6.984   5.236   0.559  0.0031 -0.1439  0.7500
   14CHTO   C66 5728   7.070   5.331   0.802  0.2669  0.4821 -0.1913
   14CHTO  H123 5729   7.056   5.375   0.901 -1.7712 -0.6179  0.0384
   14CHTO   N12 5730   7.097   5.190   0.834  0.6965 -0.2494 -0.4017
   14CHTO  H110 5731   7.107   5.163   0.938 -2.7540  1.2140  0.3614
   14CHTO  H111 5732   7.030   5.121   0.784  1.4853 -0.7112 -0.8388
   14CHTO   C69 5733   7.184   5.409   0.734 -0.6288 -0.2827 -0.9513
   14CHTO  H126 5734   7.193   5.379   0.627 -1.8865  0.5066 -1.2914
   14CHTO   O41 5735   7.149   5.572   0.749  0.1032 -0.0320  0.6269
   14CHTO   C64 5736   7.020   5.608   0.685  0.0958 -0.1143  0.2883
   14CHTO  H121 5737   7.038   5.596   0.576  0.9167 -0.9032  0.5032
   14CHTO   C71 5738   6.990   5.756   0.715 -0.1645  0.2422  0.3631
   14CHTO   O47 5739   7.087   5.840   0.644 -0.1170  0.5154 -0.0004
   14CHTO  H104 5740   7.103   5.805   0.558  2.8857  0.6046  0.4901
   14CHTO   O34 5741   7.329   5.369   0.813 -0.0768  0.2212  0.5596
   14CHTO   C49 5742   7.463   5.371   0.780 -0.1814  0.2830 -0.4677
   14CHTO   H91 5743   7.484   5.304   0.697  0.4331 -1.8744  1.4037
   14CHTO   C47 5744   7.539   5.322   0.902 -0.0807  0.1362 -0.2002
   14CHTO   H89 5745   7.642   5.310   0.864 -1.1305 -1.1063 -2.7614
   14CHTO   O33 5746   7.490   5.193   0.953  0.4937 -0.1042  0.0866
   14CHTO   H70 5747   7.564   5.160   1.001  1.6578  1.6678 -0.4680
   14CHTO   C45 5748   7.529   5.436   1.025 -0.1677 -0.7829 -0.3931
   14CHTO   H87 5749   7.435   5.418   1.079  0.0023 -2.0366 -0.5180
   14CHTO    N8 5750   7.646   5.421   1.112 -0.1225  0.5137 -0.4029
   14CHTO   H75 5751   7.682   5.521   1.131 -0.3560  0.1564  2.0717
   14CHTO   H76 5752   7.613   5.376   1.204  1.1268 -0.2025 -0.2878
   14CHTO   C43 5753   7.511   5.580   0.955  0.0401 -0.0543 -0.0684
   14CHTO   H85 5754   7.404   5.575   0.937 -0.3280  1.6853  1.4897
   14CHTO   O29 5755   7.583   5.597   0.831  0.0989  0.3407 -0.2611
   14CHTO   C50 5756   7.520   5.511   0.732 -0.6565 -0.5388  0.1599
   14CHTO   H92 5757   7.441   5.572   0.685  1.1657  2.0654  0.3267
   14CHTO   C54 5758   7.631   5.491   0.615  0.6451 -0.5035  0.3522
   14CHTO   O36 5759   7.699   5.615   0.591 -0.2047 -0.5156 -0.8659
   14CHTO   H72 5760   7.754   5.616   0.515 -1.7669 -1.1784 -2.0188
   14CHTO   O27 5761   7.529   5.689   1.046  0.1737 -0.4608  0.2918
   14CHTO   C37 5762   7.442   5.804   1.083 -0.2145  0.3514 -0.2983
   14CHTO   H79 5763   7.513   5.876   1.126  1.4819 -0.2504 -2.0334
   14CHTO   C38 5764   7.380   5.877   0.956  0.0425  0.5883 -0.2046
   14CHTO   H80 5765   7.317   5.809   0.897  0.8776  0.8278 -1.4129
   14CHTO   O31 5766   7.487   5.924   0.870  0.7649 -0.4293  0.3119
   14CHTO   H68 5767   7.449   5.971   0.799  1.7938  0.4207  0.3114
   14CHTO   C39 5768   7.288   5.991   1.006  0.8138 -0.1007  0.1823
   14CHTO   H81 5769   7.350   6.058   1.066  0.4976 -0.0322  0.4340
   14CHTO    N7 5770   7.230   6.074   0.901  0.0578  0.1186  0.2415
   14CHTO   H73 5771   7.168   6.152   0.942  2.0297  2.2056 -0.6784
   14CHTO   H74 5772   7.174   6.018   0.827 -0.0235  0.2301  0.2189
   14CHTO   C40 5773   7.181   5.933   1.101  0.4230 -0.4457 -0.1850
   14CHTO   H82 5774   7.119   5.857   1.052  0.0791  0.4219 -1.1161
   14CHTO   O26 5775   7.244   5.879   1.220  0.4890  0.1279  0.2887
   14CHTO   C41 5776   7.333   5.771   1.191 -0.2671  0.1935  1.6789
   14CHTO   H83 5777   7.279   5.684   1.152  0.8398  0.4261 -0.4479
   14CHTO   C52 5778   7.398   5.720   1.316  0.5756  0.7258 -0.4028
   14CHTO   O35 5779   7.468   5.833   1.391  0.0933 -0.0879 -0.4942
   14CHTO   H71 5780   7.557   5.812   1.412 -0.0284 -1.5653 -1.3442
   14CHTO   O28 5781   7.092   6.038   1.157 -0.1122 -0.0827  0.3782
   14CHTO   C42 5782   6.964   6.010   1.227  0.2469  0.2232  0.1924
   14CHTO   H84 5783   6.926   6.109   1.253 -1.4037 -0.1148 -0.8497
   14CHTO   C44 5784   6.993   5.939   1.364  0.0527  0.1837 -0.0881
   14CHTO   H86 5785   7.041   5.845   1.337  1.7502  1.5413 -1.9048
   14CHTO   O32 5786   7.078   6.025   1.444  0.1216 -0.1314 -0.7515
   14CHTO   H69 5787   7.160   6.039   1.401  0.8600  0.7274  0.8942
   14CHTO   C48 5788   6.859   5.905   1.444  0.4306 -0.2024  0.0943
   14CHTO   H90 5789   6.808   5.996   1.474  0.6327  0.3811 -1.2954
   14CHTO    N9 5790   6.886   5.831   1.568  0.0187  0.2046  0.4433
   14CHTO   H77 5791   6.921   5.730   1.547 -1.4945 -0.2097 -0.1197
   14CHTO   H78 5792   6.968   5.881   1.617 -0.7072  2.0598 -0.1881
   14CHTO   C51 5793   6.751   5.835   1.361 -0.4614 -0.3711  0.6273
   14CHTO   H93 5794   6.779   5.731   1.342 -0.1586  0.2299 -2.5838
   14CHTO   O30 5795   6.730   5.906   1.236  0.5298 -0.4262  0.1777
   14CHTO   C46 5796   6.854   5.928   1.145  0.4743  0.9677  0.5364
   14CHTO   H88 5797   6.887   5.829   1.113  0.7056  0.6078  1.8616
   14CHTO   C53 5798   6.820   6.001   1.015 -0.7348  0.4591 -0.4620
   14CHTO   O72 5799   6.704   5.950   0.947  1.0575 -0.2259  0.4154
   14CHTO  H199 5800   6.693   5.863   0.980 -0.3139  0.0186  0.6284
   14CHTO   O22 5801   6.621   5.846   1.421 -0.1493  0.3766 -0.3408
   14CHTO   C31 5802   6.484   5.808   1.376  0.1891 -0.0095  0.6228
   14CHTO   H59 5803   6.493   5.791   1.267  0.8013 -1.2993  0.8587
   14CHTO   C29 5804   6.417   5.684   1.442  0.2815  0.2458  0.2681
   14CHTO   H57 5805   6.415   5.701   1.550  2.1565  1.1408  0.1841
   14CHTO   O21 5806   6.512   5.578   1.426 -0.7454  0.0305 -0.0220
   14CHTO   H37 5807   6.496   5.512   1.491 -0.5234  1.0973  1.1329
   14CHTO   C27 5808   6.270   5.652   1.398  0.4418 -0.3045  0.2891
   14CHTO   H55 5809   6.258   5.634   1.290 -0.5289 -1.3603  0.5649
   14CHTO    N5 5810   6.215   5.536   1.477 -0.1843  0.7980  0.3275
   14CHTO   H43 5811   6.118   5.507   1.441 -1.7404  2.7726  2.6845
   14CHTO   H44 5812   6.215   5.562   1.582  0.2592  0.4440  0.4163
   14CHTO   C25 5813   6.190   5.786   1.415  0.0935 -0.6512  0.1308
   14CHTO   H53 5814   6.188   5.814   1.521  1.4359 -1.3646  0.3566
   14CHTO   O17 5815   6.254   5.900   1.351  0.3239  0.0415  0.3320
   14CHTO   C32 5816   6.391   5.932   1.385 -1.0601 -0.1590 -0.4367
   14CHTO   H60 5817   6.387   5.954   1.492 -0.7905 -1.7975 -0.0670
   14CHTO   C36 5818   6.431   6.027   1.274  0.3557 -0.6634  0.3580
   14CHTO   O25 5819   6.403   5.975   1.144 -0.3093 -0.3897 -0.0680
   14CHTO   H40 5820   6.311   5.981   1.127 -0.3232  0.8304  0.4328
   14CHTO   O15 5821   6.038   5.772   1.359  0.4578  0.5628 -0.0933
   14CHTO   C19 5822   5.903   5.830   1.337  0.4568 -1.1161  0.3664
   14CHTO   H47 5823   5.873   5.799   1.236  0.4570 -0.2454  0.0923
   14CHTO   C20 5824   5.785   5.793   1.442 -0.2681 -0.6201  0.0730
   14CHTO   H48 5825   5.812   5.826   1.544  1.3417  0.9689 -0.8370
   14CHTO   O19 5826   5.776   5.650   1.442 -0.3083  0.1026 -0.0744
   14CHTO   H35 5827   5.700   5.624   1.490 -1.0749 -0.0207 -1.3350
   14CHTO   C21 5828   5.644   5.866   1.401  1.2196  0.7857 -0.1780
   14CHTO   H49 5829   5.607   5.824   1.308 -1.1872 -0.9875  1.5481
   14CHTO    N4 5830   5.533   5.839   1.500  0.1510  0.3680  0.6953
   14CHTO   H41 5831   5.510   5.927   1.559  0.5693  0.0223  1.3779
   14CHTO   H42 5832   5.443   5.812   1.448 -0.8490 -1.0525  3.0790
   14CHTO   C22 5833   5.660   6.018   1.380  0.0586 -0.2314 -0.1001
   14CHTO   H50 5834   5.680   6.059   1.479 -1.1749  1.8652 -0.7142
   14CHTO   O14 5835   5.775   6.049   1.299 -0.1433 -0.3155  0.2519
   14CHTO   C23 5836   5.906   5.988   1.338  0.2784 -0.3029 -0.4060
   14CHTO   H51 5837   5.935   6.029   1.436 -1.6848  1.2928 -0.4533
   14CHTO   C34 5838   6.003   6.047   1.236 -0.1698 -0.1940  0.3231
   14CHTO   O23 5839   6.014   6.181   1.281  0.1614 -0.4768 -0.1985
   14CHTO   H38 5840   6.065   6.229   1.219 -1.4266  2.5596  0.7531
   14CHTO   O16 5841   5.550   6.085   1.308  0.6399 -0.1684 -0.2134
   14CHTO   C24 5842   5.532   6.260   1.297  0.0158 -0.2072  0.3591
   14CHTO   H52 5843   5.486   6.294   1.204  2.9937  1.3315 -0.6123
   14CHTO   C26 5844   5.675   6.326   1.309  0.1916  0.0988  0.5300
   14CHTO   H54 5845   5.730   6.283   1.395 -0.3232 -0.9127  0.3725
   14CHTO   O20 5846   5.731   6.295   1.184 -0.2301  0.0073  0.1667
   14CHTO   H36 5847   5.817   6.329   1.170 -1.1011  1.2677 -2.3968
   14CHTO   C30 5848   5.655   6.478   1.334  0.7901 -0.0672  0.3832
   14CHTO   H58 5849   5.610   6.513   1.240  1.3145  2.1826  0.9286
   14CHTO    N6 5850   5.792   6.548   1.347  0.5029 -0.3747  0.0500
   14CHTO   H45 5851   5.787   6.650   1.311 -0.5652 -0.5517 -0.3227
   14CHTO   H46 5852   5.803   6.552   1.454 -1.8978  1.3348  0.2705
   14CHTO   C33 5853   5.545   6.498   1.448 -0.7816  1.2228 -0.1748
   14CHTO   H61 5854   5.584   6.455   1.542 -0.7108 -2.8029 -1.9327
   14CHTO   O18 5855   5.422   6.427   1.409  0.0531  0.4767  0.2131
   14CHTO   C28 5856   5.433   6.289   1.408 -0.4017 -0.1404 -0.3194
   14CHTO   H56 5857   5.476   6.251   1.501  0.4520  0.9036 -0.2753
   14CHTO   C35 5858   5.298   6.217   1.388  0.1662 -0.0892 -0.4662
   14CHTO   O24 5859   5.240   6.263   1.271 -0.1261  0.0711  0.6490
   14CHTO   H39 5860   5.173   6.203   1.246 -0.3740  0.2845  0.8060
   14CHTO    O9 5861   5.523   6.634   1.478  0.3213  0.2172 -0.6458
   14CHTO   C13 5862   5.460   6.676   1.622 -0.9132 -0.5657 -0.1465
   14CHTO   H26 5863   5.487   6.601   1.699 -1.8663  0.3557  1.1045
   14CHTO   C11 5864   5.301   6.685   1.599 -0.3392  0.0798 -0.5611
   14CHTO   H24 5865   5.258   6.585   1.585 -3.4760  1.3737 -0.7142
   14CHTO    O8 5866   5.275   6.750   1.473  0.3441  0.2889  0.0727
   14CHTO    H3 5867   5.290   6.699   1.396  0.8614 -1.0773  1.0479
   14CHTO    C9 5868   5.239   6.757   1.722  0.3036 -0.5642 -0.8589
   14CHTO   H22 5869   5.281   6.710   1.812 -0.0709  1.5011  0.4285
   14CHTO    N2 5870   5.095   6.731   1.742  0.3801  0.4939 -0.3390
   14CHTO   H10 5871   5.047   6.760   1.650 -0.0173 -0.5404 -0.4754
   14CHTO   H11 5872   5.073   6.628   1.767  1.1011  0.8447  1.8630
   14CHTO    C7 5873   5.290   6.905   1.721  0.9755 -0.3156  0.0522
   14CHTO   H20 5874   5.291   6.923   1.831 -0.1139  2.6225 -0.3553
   14CHTO    O4 5875   5.424   6.919   1.668  0.0420 -0.3634 -0.3903
   14CHTO   C14 5876   5.522   6.817   1.669  0.6966  0.6730 -0.3211
   14CHTO   H27 5877   5.548   6.802   1.776 -0.6147  1.6886  0.1496
   14CHTO   C18 5878   5.642   6.865   1.591  0.2738 -0.4350 -0.7123
   14CHTO   O13 5879   5.752   6.784   1.639 -0.2463  0.7295 -0.3887
   14CHTO    H7 5880   5.801   6.747   1.569  0.3532  1.7543 -0.5223
   14CHTO    O2 5881   5.197   7.005   1.635  0.5778 -0.3136 -0.3286
   14CHTO    C1 5882   5.202   7.148   1.668 -0.1969 -0.3271 -0.2866
   14CHTO   H14 5883   5.150   7.199   1.584 -0.9477  0.2863  0.5368
   14CHTO    C2 5884   5.349   7.209   1.678  0.1634 -0.0534 -0.2353
   14CHTO   H15 5885   5.397   7.155   1.761  1.8430  1.8766  0.0876
   14CHTO    O6 5886   5.437   7.194   1.573  0.1178  0.3893  0.2814
   14CHTO    H1 5887   5.429   7.107   1.539  2.2140  0.2425  0.1294
   14CHTO    C3 5888   5.349   7.367   1.719 -0.0112 -0.0687 -0.4613
   14CHTO   H16 5889   5.305   7.414   1.630 -0.3203 -0.7442 -0.6735
   14CHTO    N1 5890   5.487   7.422   1.757  0.1566  0.1534  0.0890
   14CHTO    H8 5891   5.558   7.417   1.676  3.2024 -0.1691  2.6682
   14CHTO    H9 5892   5.519   7.362   1.841 -0.8180  0.7783  0.9103
   14CHTO    C4 5893   5.245   7.400   1.833  0.4692 -0.1830 -0.1089
   14CHTO   H17 5894   5.296   7.394   1.929 -2.1710 -0.0845  1.3403
   14CHTO    O1 5895   5.120   7.318   1.827 -0.3386 -0.3472 -0.1642
   14CHTO    C5 5896   5.127   7.178   1.801 -0.5401  0.0682  0.1096
   14CHTO   H18 5897   5.197   7.131   1.870  0.6503  0.9095 -0.5070
   14CHTO   C16 5898   4.989   7.104   1.808 -0.2431 -0.2660 -0.3840
   14CHTO   O11 5899   4.927   7.123   1.941 -0.0238  0.9755 -0.5997
   14CHTO    H5 5900   4.961   7.059   2.000 -3.4615  0.4748  0.9583
   14CHTO    O3 5901   5.200   7.536   1.821 -0.1005 -0.0634  0.5455
   14CHTO    C6 5902   5.155   7.589   1.949 -0.3394 -0.6273  0.1833
   14CHTO   H19 5903   5.178   7.528   2.036  2.1919 -0.4948 -0.3782
   14CHTO    C8 5904   5.224   7.728   1.982 -0.3198  0.0741  0.0844
   14CHTO   H21 5905   5.193   7.805   1.911  2.9898  1.7744  0.3911
   14CHTO    O7 5906   5.362   7.709   1.989 -0.7045  0.0582 -0.6643
   14CHTO    H2 5907   5.401   7.766   1.926  0.4655 -1.5031 -1.3633
   14CHTO   C12 5908   5.181   7.782   2.123  0.4478 -0.8070 -0.3987
   14CHTO   H25 5909   5.214   7.711   2.202  0.5456  0.0329  0.3230
   14CHTO    N3 5910   5.232   7.925   2.146  0.2728 -0.0384 -0.1526
   14CHTO   H12 5911   5.184   7.986   2.071  0.5850 -0.1534 -0.4449
   14CHTO   H13 5912   5.339   7.927   2.136  0.1985 -2.2232 -1.5322
   14CHTO   C15 5913   5.022   7.792   2.136  0.9226 -0.4304 -0.1551
   14CHTO   H28 5914   4.983   7.871   2.071 -1.6911 -0.7105  0.9974
   14CHTO   O10 5915   4.965   7.791   2.276  0.4761  0.1588  0.1339
   14CHTO    H4 5916   5.037   7.780   2.335  1.9076  0.9877 -1.4439
   14CHTO    O5 5917   4.972   7.664   2.096  0.3620  0.2451 -0.3269
   14CHTO   C10 5918   5.009   7.628   1.958 -0.3059  0.1784  0.4532
   14CHTO   H23 5919   4.983   7.718   1.902  1.9271  0.6606  0.1480
   14CHTO   C17 5920   4.911   7.519   1.901  0.2425  0.3269 -0.3540
   14CHTO   O12 5921   4.896   7.398   1.981  0.0929  0.7369  0.0444
   14CHTO    H6 5922   4.964   7.334   1.976 -0.2852  0.4803 -2.1317
   15CHTO  H203 5923   7.916   4.589   1.478 -0.0686  1.3961  0.9360
   15CHTO   O82 5924   7.841   4.553   1.522  0.0758  0.0554  0.0883
   15CHTO  C123 5925   7.740   4.499   1.433 -0.2432 -1.1460  0.1726
   15CHTO  H227 5926   7.746   4.389   1.440 -1.3023 -1.0401  3.5851
   15CHTO   O77 5927   7.615   4.538   1.489  0.4541 -1.0234  0.5380
   15CHTO  C118 5928   7.491   4.503   1.421 -0.1136 -0.1106 -0.6538
   15CHTO  H222 5929   7.481   4.393   1.421  1.5665 -0.2800  0.3105
   15CHTO  C125 5930   7.379   4.570   1.506  0.0120 -0.3147  0.2635
   15CHTO   O84 5931   7.276   4.480   1.543 -0.5384  0.1726 -0.0756
   15CHTO  H205 5932   7.224   4.457   1.469 -1.4611 -0.6356  0.7922
   15CHTO  C114 5933   7.490   4.548   1.272 -0.6710 -0.6439  0.9888
   15CHTO  H218 5934   7.498   4.657   1.269 -0.2725 -0.7243 -1.2422
   15CHTO  C116 5935   7.626   4.505   1.205  0.2394 -0.4247  0.0332
   15CHTO  H220 5936   7.629   4.394   1.201  1.6551 -0.3275 -1.9412
   15CHTO   O79 5937   7.621   4.549   1.066  0.2702 -0.0610 -0.2485
   15CHTO  H201 5938   7.689   4.512   1.013 -0.3618  0.1587 -1.2342
   15CHTO  C120 5939   7.757   4.549   1.283  0.8444 -0.2143 -0.0173
   15CHTO  H224 5940   7.764   4.659   1.296  2.3784 -0.2930 -0.0671
   15CHTO   N21 5941   7.883   4.498   1.220  0.1960 -0.0053 -0.4397
   15CHTO  H211 5942   7.859   4.396   1.195 -0.4264  0.0455 -0.0631
   15CHTO  H212 5943   7.889   4.559   1.132  2.1358  0.2731 -0.1554
   15CHTO   O75 5944   7.368   4.504   1.196  0.2870  0.0771  0.6993
   15CHTO  C112 5945   7.343   4.327   1.200 -0.6598  0.1829 -0.3480
   15CHTO  H216 5946   7.328   4.299   1.306  1.0324  2.6891  0.6250
   15CHTO   O73 5947   7.462   4.260   1.147  0.2171  0.2190 -0.4973
   15CHTO  C113 5948   7.450   4.116   1.133  0.6761  0.3013 -0.0908
   15CHTO  H217 5949   7.458   4.064   1.231 -1.2707 -0.7555 -0.4621
   15CHTO  C124 5950   7.582   4.078   1.064 -0.1282  0.0482 -0.0010
   15CHTO   O83 5951   7.612   3.944   1.078  0.1954 -0.5427  0.2534
   15CHTO  H204 5952   7.574   3.906   1.155  0.3103  1.0928  1.1419
   15CHTO  C109 5953   7.324   4.070   1.050 -0.5152 -0.1435 -0.4148
   15CHTO  H213 5954   7.342   4.098   0.946  0.5579 -0.5111 -0.3327
   15CHTO  C110 5955   7.196   4.146   1.099 -0.1805  0.0932  0.5797
   15CHTO  H214 5956   7.167   4.108   1.197 -0.6543  0.0122  0.4129
   15CHTO   O78 5957   7.083   4.123   1.005 -0.0304 -0.2443  0.8178
   15CHTO  H200 5958   7.095   4.153   0.917 -0.6315 -0.9534  0.4935
   15CHTO  C111 5959   7.216   4.294   1.115  0.6989 -0.5344  0.0720
   15CHTO  H215 5960   7.230   4.337   1.014 -0.5894  1.0028  0.5188
   15CHTO   N19 5961   7.105   4.365   1.181  0.2250 -0.4085  0.0985
   15CHTO  H207 5962   7.141   4.462   1.211 -0.7754  0.0036 -0.0127
   15CHTO  H208 5963   7.014   4.378   1.123  1.0736 -0.2492 -1.2153
   15CHTO   O74 5964   7.309   3.928   1.061  0.4218 -0.1739 -0.0132
   15CHTO  C115 5965   7.282   3.862   0.911  0.3317  0.2913  0.0767
   15CHTO  H219 5966   7.194   3.904   0.863  0.1934 -1.3902 -1.1511
   15CHTO   O76 5967   7.411   3.896   0.810  0.4300  0.3036  0.3154
   15CHTO  C122 5968   7.498   3.786   0.771 -0.0293 -0.0764  0.1739
   15CHTO  H226 5969   7.551   3.754   0.861 -2.1241 -2.0161  0.7588
   15CHTO  C126 5970   7.608   3.834   0.671 -0.5632  0.0941 -0.0344
   15CHTO   O85 5971   7.713   3.746   0.638  0.7453 -0.4722 -0.1843
   15CHTO  H206 5972   7.686   3.678   0.579  0.2790  0.7478 -1.4202
   15CHTO  C121 5973   7.401   3.663   0.719  0.0596 -0.6849 -1.1035
   15CHTO  H225 5974   7.375   3.693   0.615  1.0845  0.1423 -1.1367
   15CHTO   O81 5975   7.487   3.550   0.709 -0.4561 -0.0272  0.7005
   15CHTO  H202 5976   7.460   3.462   0.690 -0.0812 -0.5511  2.4777
   15CHTO  C119 5977   7.273   3.632   0.797  0.3411  0.1109 -0.5205
   15CHTO  H223 5978   7.201   3.670   0.725 -0.6347  0.3759  0.5977
   15CHTO  C117 5979   7.261   3.707   0.933  0.4152  0.8470  0.5194
   15CHTO  H221 5980   7.333   3.674   1.008 -0.3414  2.3279  1.9230
   15CHTO   N20 5981   7.133   3.689   1.002 -0.2298 -0.2432 -0.1419
   15CHTO  H209 5982   7.045   3.729   0.954 -2.2741 -1.4160  2.5325
   15CHTO  H210 5983   7.148   3.700   1.108  0.3616  0.7603 -0.3244
   15CHTO   O80 5984   7.232   3.478   0.794 -0.5930 -0.0382 -0.0711
   15CHTO  C103 5985   7.065   3.439   0.745 -0.1640  0.1588  0.3574
   15CHTO  H190 5986   6.994   3.500   0.800  0.2101 -1.1991  2.3881
   15CHTO  C101 5987   7.050   3.464   0.583 -0.3755  0.2086  0.1537
   15CHTO  H188 5988   7.130   3.410   0.532  0.6201 -0.6544  2.5562
   15CHTO   O68 5989   7.071   3.593   0.558 -0.5046  0.1516 -0.2138
   15CHTO  H168 5990   7.153   3.626   0.588  0.6958 -2.0063 -0.9568
   15CHTO   C99 5991   6.919   3.416   0.532  0.4770 -0.4115  0.6007
   15CHTO  H186 5992   6.832   3.460   0.583 -0.6004  0.7047 -2.0756
   15CHTO   N17 5993   6.895   3.423   0.382 -0.3407 -0.0360  0.2518
   15CHTO  H174 5994   6.879   3.528   0.361 -0.7915 -0.2952 -0.7143
   15CHTO  H175 5995   6.813   3.361   0.350  1.4176 -1.1850 -2.1847
   15CHTO   C97 5996   6.912   3.263   0.571  0.1002 -0.4878 -0.0876
   15CHTO  H184 5997   6.997   3.216   0.520 -0.9242 -1.4420 -0.9410
   15CHTO   O64 5998   6.915   3.257   0.716  0.0100 -0.0923 -0.1644
   15CHTO  C104 5999   7.040   3.296   0.781 -0.4234 -0.5129 -0.4572
   15CHTO  H191 6000   7.131   3.242   0.755  1.2300  2.8412 -2.0494
   15CHTO  C108 6001   7.020   3.281   0.929 -0.3338  0.3541 -0.0061
   15CHTO   O71 6002   6.963   3.158   0.969  0.1485  0.7964 -0.1975
   15CHTO  H171 6003   6.950   3.095   0.900  0.4664 -0.7904  1.1470
   15CHTO   O62 6004   6.780   3.210   0.546  0.4711 -0.3360 -0.5883
   15CHTO   C91 6005   6.754   3.139   0.421 -0.1215  0.4187  0.3991
   15CHTO  H178 6006   6.750   3.211   0.339 -1.1723 -0.4501 -0.3190
   15CHTO   C92 6007   6.607   3.090   0.435  0.1753  0.3812  0.3320
   15CHTO  H179 6008   6.529   3.155   0.477 -1.0753 -0.8310 -0.0694
   15CHTO   O66 6009   6.557   3.063   0.300 -0.3269  0.2520 -0.5798
   15CHTO  H166 6010   6.464   3.054   0.310 -0.0960 -1.4035  0.1666
   15CHTO   C93 6011   6.600   2.952   0.516  0.9352  0.4522  0.4368
   15CHTO  H180 6012   6.499   2.911   0.503  0.4442  1.6578  0.3900
   15CHTO   N16 6013   6.597   2.986   0.659  0.6135  0.0398 -0.1695
   15CHTO  H172 6014   6.585   2.891   0.709 -2.3569  1.0744  1.2061
   15CHTO  H173 6015   6.509   3.047   0.676  0.6944 -0.2397  1.2862
   15CHTO   C94 6016   6.714   2.839   0.494 -0.2060  0.0367 -0.3275
   15CHTO  H181 6017   6.780   2.825   0.580  0.9378 -2.4408 -1.5737
   15CHTO   O61 6018   6.797   2.887   0.388  0.2024 -0.2177 -0.0719
   15CHTO   C95 6019   6.859   3.013   0.400 -0.1241  0.0132  0.0813
   15CHTO  H182 6020   6.932   3.012   0.481 -0.0214  1.2163  0.0259
   15CHTO  C106 6021   6.944   3.035   0.272  0.2610  0.8229 -0.4511
   15CHTO   O69 6022   6.865   3.012   0.157 -0.0858  0.2877  0.4962
   15CHTO  H169 6023   6.900   2.950   0.096 -2.0531 -1.0022  0.6148
   15CHTO   O63 6024   6.646   2.704   0.447 -0.2653  0.2311  0.2863
   15CHTO   C96 6025   6.682   2.569   0.542  0.4670  0.4994  0.4228
   15CHTO  H183 6026   6.711   2.603   0.642 -0.9254 -0.3541  1.1234
   15CHTO   C98 6027   6.805   2.487   0.485 -0.3584 -0.3412  0.2996
   15CHTO  H185 6028   6.791   2.489   0.376  0.3470  0.9785  0.2234
   15CHTO   O67 6029   6.917   2.567   0.513  0.1439 -0.0154 -0.3781
   15CHTO  H167 6030   6.969   2.552   0.590 -0.4407  4.1011  0.9256
   15CHTO  C102 6031   6.811   2.332   0.531 -0.3623  0.2958 -0.0735
   15CHTO  H189 6032   6.836   2.337   0.638 -0.6572  1.7497 -0.0606
   15CHTO   N18 6033   6.917   2.250   0.470 -0.2230  0.2909  0.2434
   15CHTO  H176 6034   7.008   2.306   0.456 -0.7964  0.7468 -1.7356
   15CHTO  H177 6035   6.898   2.204   0.374  1.1171  0.1704  0.0209
   15CHTO  C105 6036   6.666   2.279   0.516  0.2474  0.3791 -0.4637
   15CHTO  H192 6037   6.637   2.281   0.411 -0.0931  1.0004 -0.3591
   15CHTO   O65 6038   6.571   2.352   0.595  0.9519 -0.3881  0.1863
   15CHTO  C100 6039   6.554   2.487   0.549  0.1768  0.5730  0.1252
   15CHTO  H187 6040   6.518   2.475   0.446  0.1997  1.0083  0.0627
   15CHTO  C107 6041   6.450   2.556   0.642 -0.2509  0.6165 -0.0198
   15CHTO   O70 6042   6.323   2.497   0.625 -0.3747  0.3324  0.7421
   15CHTO  H170 6043   6.281   2.501   0.709  0.7661 -0.7433  1.3781
   15CHTO   O57 6044   6.656   2.118   0.555  0.0074 -0.1718 -0.1432
   15CHTO   C85 6045   6.650   2.069   0.689 -0.3393 -0.7378  0.2124
   15CHTO  H157 6046   6.693   2.138   0.764 -0.5441 -0.5384  0.1475
   15CHTO   C83 6047   6.743   1.945   0.697 -0.2405  0.1925  1.3021
   15CHTO  H155 6048   6.843   1.986   0.685 -0.5240  0.4054 -0.4225
   15CHTO   O56 6049   6.722   1.853   0.586 -0.0255  0.1963 -0.1092
   15CHTO  H135 6050   6.631   1.847   0.563  0.3620 -1.7968 -1.1676
   15CHTO   C81 6051   6.734   1.880   0.840  0.6122  0.0801 -0.4295
   15CHTO  H153 6052   6.762   1.956   0.913 -1.1967  0.9933 -0.6761
   15CHTO   N14 6053   6.843   1.783   0.847 -0.2900 -0.0098  0.0189
   15CHTO  H141 6054   6.861   1.735   0.753  2.4001 -0.1854  0.5658
   15CHTO  H142 6055   6.939   1.819   0.878  1.0119 -1.0629 -2.6120
   15CHTO   C79 6056   6.595   1.823   0.872  0.4183 -0.4181 -0.6733
   15CHTO  H151 6057   6.600   1.790   0.975  0.2357  0.1487 -0.4807
   15CHTO   O52 6058   6.509   1.944   0.863  0.1642 -0.6357 -0.1650
   15CHTO   C86 6059   6.504   2.013   0.734 -0.8392 -0.0094  0.3569
   15CHTO  H158 6060   6.470   1.935   0.664  0.4074 -0.1115 -0.1601
   15CHTO   C90 6061   6.397   2.129   0.736 -0.3778  0.0224  0.2578
   15CHTO   O60 6062   6.379   2.206   0.857 -0.3752  0.0089 -0.4177
   15CHTO  H138 6063   6.460   2.215   0.904 -0.4145  0.1247 -0.3710
   15CHTO   O50 6064   6.554   1.709   0.801 -0.3943  0.0075 -0.1326
   15CHTO   C73 6065   6.449   1.608   0.773 -0.2294 -0.0784  0.1167
   15CHTO  H145 6066   6.360   1.649   0.723  0.2671 -0.0459 -0.7362
   15CHTO   C74 6067   6.416   1.547   0.908 -0.4672  0.1825  0.1360
   15CHTO  H146 6068   6.382   1.634   0.966  4.7945  1.7993  1.0571
   15CHTO   O54 6069   6.297   1.466   0.889  0.1454  0.3981  0.1610
   15CHTO  H133 6070   6.227   1.505   0.841 -0.7038 -0.5908  0.5855
   15CHTO   C75 6071   6.540   1.478   0.978 -0.1289 -0.5257  0.3270
   15CHTO  H147 6072   6.615   1.552   1.007 -0.3665 -0.2039  0.1237
   15CHTO   N13 6073   6.502   1.414   1.103  0.0919  0.1274 -0.5439
   15CHTO  H139 6074   6.536   1.311   1.108  1.6795  0.7559  2.8359
   15CHTO  H140 6075   6.397   1.427   1.126 -0.1884 -2.1352 -0.3772
   15CHTO   C76 6076   6.597   1.370   0.877 -0.0058  0.4883 -0.5094
   15CHTO  H148 6077   6.528   1.287   0.862 -0.0755  0.6663 -1.1990
   15CHTO   O49 6078   6.625   1.437   0.750  0.5593 -0.0436 -0.0093
   15CHTO   C77 6079   6.511   1.499   0.682  0.6348  0.2249  0.5220
   15CHTO  H149 6080   6.434   1.434   0.642  0.3536  1.4908 -1.0523
   15CHTO   C88 6081   6.567   1.566   0.552  0.2421 -0.1027 -0.2196
   15CHTO   O58 6082   6.460   1.647   0.465  0.1931  0.4296  0.5768
   15CHTO  H136 6083   6.495   1.717   0.414  3.0861 -1.5371 -0.2454
   15CHTO   O51 6084   6.743   1.318   0.934  0.1631  0.0427 -0.2012
   15CHTO   C78 6085   6.823   1.222   0.839  0.5063 -0.4060  0.0406
   15CHTO  H150 6086   6.771   1.203   0.743  3.4308 -0.2742 -1.6227
   15CHTO   C80 6087   6.838   1.085   0.916 -0.2258 -0.7159  0.5194
   15CHTO  H152 6088   6.883   1.107   1.015  2.1240 -0.0838 -0.6373
   15CHTO   O55 6089   6.705   1.033   0.929  0.4751  0.1309 -0.1129
   15CHTO  H134 6090   6.646   1.071   0.866 -0.0868 -0.7962 -0.1616
   15CHTO   C84 6091   6.933   0.993   0.837 -0.4925  0.2583 -0.4686
   15CHTO  H156 6092   6.901   0.976   0.734  1.4765 -0.6798 -0.9464
   15CHTO   N15 6093   6.956   0.861   0.906  0.5260  0.0275  0.1679
   15CHTO  H143 6094   6.859   0.825   0.934  0.3027  1.1087  0.8337
   15CHTO  H144 6095   7.006   0.796   0.838  0.7855 -0.1523  0.5314
   15CHTO   C87 6096   7.071   1.068   0.824 -0.2211 -0.2167 -0.7036
   15CHTO  H159 6097   7.117   1.091   0.920  1.8251  0.8073 -1.9171
   15CHTO   O53 6098   7.040   1.204   0.751  0.1573  0.1232 -0.6003
   15CHTO   C82 6099   6.955   1.297   0.813 -1.0389 -0.1037  0.9772
   15CHTO  H154 6100   6.993   1.338   0.906 -1.1969  0.4024  0.8198
   15CHTO   C89 6101   6.958   1.415   0.720 -0.5278  0.4415 -0.1423
   15CHTO   O59 6102   6.926   1.386   0.581 -0.1875 -0.0450  0.1623
   15CHTO  H137 6103   6.837   1.403   0.557 -0.8491  0.2204  2.6049
   15CHTO   O45 6104   7.181   0.992   0.720 -0.1008 -0.0271 -0.0009
   15CHTO   C67 6105   7.314   1.050   0.744  0.4754  0.2483 -0.4488
   15CHTO  H124 6106   7.303   1.137   0.808 -0.0132  1.2839 -1.9188
   15CHTO   C65 6107   7.421   0.951   0.807 -0.5476  0.0196 -0.1601
   15CHTO  H122 6108   7.372   0.855   0.821 -1.0645  0.1360 -1.1433
   15CHTO   O44 6109   7.444   0.989   0.942  0.1186  0.2174 -0.0528
   15CHTO  H102 6110   7.530   0.958   0.961 -0.0498 -0.2696 -0.0904
   15CHTO   C63 6111   7.551   0.938   0.714  0.1204  0.0461  0.1731
   15CHTO  H120 6112   7.519   0.891   0.621  0.8814 -0.3248  0.0945
   15CHTO   N11 6113   7.657   0.851   0.766 -0.0115  0.2278  0.2860
   15CHTO  H108 6114   7.636   0.793   0.853 -1.1564  0.6753  0.3129
   15CHTO  H109 6115   7.682   0.784   0.686 -2.1942  0.0130 -0.2314
   15CHTO   C61 6116   7.600   1.082   0.671 -0.4061  0.8180  0.2872
   15CHTO  H118 6117   7.681   1.070   0.598  1.0894  1.8191  1.7492
   15CHTO   O40 6118   7.493   1.147   0.602  0.4707  0.3207 -0.1501
   15CHTO   C68 6119   7.357   1.105   0.602 -0.0977  0.6302 -0.6676
   15CHTO  H125 6120   7.352   1.024   0.526  1.3925 -0.2433  0.1323
   15CHTO   C72 6121   7.271   1.221   0.551  0.4311  0.3589 -0.0024
   15CHTO   O48 6122   7.296   1.257   0.414 -0.4043 -0.5495 -0.0534
   15CHTO  H105 6123   7.388   1.265   0.402 -0.6506  0.1505 -1.6028
   15CHTO   O38 6124   7.649   1.160   0.783 -0.0307  0.1668  0.1468
   15CHTO   C55 6125   7.706   1.293   0.765  0.7737  0.1693  0.6740
   15CHTO  H112 6126   7.658   1.331   0.674  0.2857  1.7825  1.5744
   15CHTO   C56 6127   7.868   1.291   0.747  0.0400  0.5769  0.4660
   15CHTO  H113 6128   7.908   1.228   0.828  3.3202  1.6185 -0.2809
   15CHTO   O42 6129   7.912   1.225   0.630  0.2463  0.0897 -0.0177
   15CHTO  H100 6130   7.850   1.158   0.607  0.6829 -0.0485 -0.8105
   15CHTO   C57 6131   7.928   1.436   0.755 -0.1023  0.3614  0.1922
   15CHTO  H114 6132   7.905   1.479   0.658 -0.0991  1.5758  0.7171
   15CHTO   N10 6133   8.072   1.452   0.763  0.3453 -0.2341  0.4773
   15CHTO  H106 6134   8.122   1.361   0.793 -0.2351 -0.6516  0.1743
   15CHTO  H107 6135   8.121   1.492   0.676 -1.5838 -0.5053 -0.7812
   15CHTO   C58 6136   7.857   1.529   0.854  0.2397 -1.1357  0.4157
   15CHTO  H115 6137   7.890   1.506   0.958  0.5000 -1.1002  0.3414
   15CHTO   O37 6138   7.710   1.508   0.866 -0.2030 -0.2563 -0.1080
   15CHTO   C59 6139   7.658   1.374   0.884  0.5907  0.4002  0.1479
   15CHTO  H116 6140   7.688   1.337   0.982  0.3828 -0.9530 -0.2963
   15CHTO   C70 6141   7.502   1.380   0.887 -0.4515  0.1259  0.3748
   15CHTO   O46 6142   7.451   1.452   0.771 -0.0025  0.9098  0.9955
   15CHTO  H103 6143   7.399   1.397   0.716  0.8275  1.4751 -0.3842
   15CHTO   O39 6144   7.880   1.693   0.796  0.8552  0.3732 -0.1743
   15CHTO   C60 6145   7.803   1.739   0.679  0.1318 -0.1644  0.5792
   15CHTO  H117 6146   7.802   1.657   0.608 -1.1269 -1.4653  2.0844
   15CHTO   C62 6147   7.659   1.790   0.719  0.0019  0.7730 -0.9400
   15CHTO  H119 6148   7.617   1.702   0.774  1.1510  1.1498  0.5799
   15CHTO   O43 6149   7.662   1.897   0.817 -0.1389  0.0465  0.5162
   15CHTO  H101 6150   7.743   1.892   0.864 -0.0596 -1.1511  0.2703
   15CHTO   C66 6151   7.574   1.832   0.592 -0.2406 -0.1974 -0.4228
   15CHTO  H123 6152   7.578   1.753   0.518 -1.5510  1.4759 -2.3541
   15CHTO   N12 6153   7.432   1.841   0.623 -0.0247 -0.1597  0.4693
   15CHTO  H110 6154   7.416   1.929   0.682  1.2406  0.7390 -0.5048
   15CHTO  H111 6155   7.401   1.757   0.684  0.6242 -2.1650 -1.8736
   15CHTO   C69 6156   7.638   1.953   0.514  0.2052  0.1351 -0.6885
   15CHTO  H126 6157   7.648   2.036   0.588  0.7644 -0.4943 -0.0536
   15CHTO   O41 6158   7.779   1.920   0.466  0.0301  1.3849 -0.0273
   15CHTO   C64 6159   7.873   1.848   0.608 -0.3707  0.0865  0.1929
   15CHTO  H121 6160   7.903   1.928   0.679 -1.4508 -0.9227  1.8043
   15CHTO   C71 6161   8.010   1.806   0.547  0.2258  0.7616 -0.4902
   15CHTO   O47 6162   8.002   1.716   0.434  0.0700  1.2382 -0.6366
   15CHTO  H104 6163   7.952   1.642   0.462  2.0212 -0.6187 -1.9097
   15CHTO   O34 6164   7.565   1.979   0.402  0.4878 -0.5314 -0.1570
   15CHTO   C49 6165   7.498   2.034   0.278 -0.1707  0.8296 -0.1021
   15CHTO   H91 6166   7.470   1.948   0.218  0.6585 -0.5872  1.4967
   15CHTO   C47 6167   7.605   2.112   0.199  0.4344  0.4054  0.4431
   15CHTO   H89 6168   7.550   2.151   0.111  0.4070  0.9406  0.6968
   15CHTO   O33 6169   7.702   2.009   0.159  0.2817 -0.3807  0.0851
   15CHTO   H70 6170   7.667   1.943   0.102  0.5327 -0.6202  0.2064
   15CHTO   C45 6171   7.665   2.233   0.278  0.0233  0.2889  0.1448
   15CHTO   H87 6172   7.694   2.197   0.377 -1.8804 -2.3710 -0.1997
   15CHTO    N8 6173   7.785   2.298   0.218 -0.2379  0.0227 -0.0285
   15CHTO   H75 6174   7.763   2.326   0.116 -0.4829  1.0435  0.3026
   15CHTO   H76 6175   7.866   2.227   0.215  0.8536  1.1838  1.6194
   15CHTO   C43 6176   7.544   2.339   0.303  0.3276  0.5520 -0.1560
   15CHTO   H85 6177   7.584   2.410   0.375 -0.9505 -0.5313  1.6560
   15CHTO   O29 6178   7.432   2.267   0.361 -0.1719  0.2331 -0.0444
   15CHTO   C50 6179   7.382   2.135   0.314  0.2343  0.1767 -0.6735
   15CHTO   H92 6180   7.324   2.097   0.400  4.2196  1.2074  2.6335
   15CHTO   C54 6181   7.282   2.149   0.195  0.7594 -0.0586  1.0018
   15CHTO   O36 6182   7.159   2.212   0.242  0.3765  1.0735  0.1132
   15CHTO   H72 6183   7.100   2.220   0.170  0.0688 -0.5946  0.1498
   15CHTO   O27 6184   7.507   2.410   0.180 -0.0756  0.0235 -0.6143
   15CHTO   C37 6185   7.425   2.491   0.091 -0.1530 -0.3397  0.0768
   15CHTO   H79 6186   7.349   2.429   0.042 -1.1130  1.2660 -0.4891
   15CHTO   C38 6187   7.359   2.608   0.168 -0.0349 -1.0521 -0.1907
   15CHTO   H80 6188   7.442   2.652   0.225 -0.2264 -1.6139  0.5199
   15CHTO   O31 6189   7.267   2.553   0.255  0.3218 -0.2511 -0.7752
   15CHTO   H68 6190   7.230   2.620   0.310  1.0241  0.6518 -1.3916
   15CHTO   C39 6191   7.279   2.706   0.070  0.3368  0.8341  0.2740
   15CHTO   H81 6192   7.184   2.667   0.034 -0.4853 -0.8951  4.0705
   15CHTO    N7 6193   7.241   2.830   0.155 -0.1309  0.2315  0.0192
   15CHTO   H73 6194   7.183   2.801   0.242 -1.1182 -0.0879 -0.7341
   15CHTO   H74 6195   7.181   2.892   0.090 -0.2223 -0.4291 -0.5289
   15CHTO   C40 6196   7.368   2.739  -0.057 -0.0490  0.4388 -0.4309
   15CHTO   H82 6197   7.440   2.816  -0.030  1.5895 -0.6352 -1.5972
   15CHTO   O26 6198   7.434   2.625  -0.118  0.1628  0.8819  0.3742
   15CHTO   C41 6199   7.514   2.557  -0.023 -0.1925 -0.0580  0.1653
   15CHTO   H83 6200   7.589   2.628   0.015 -0.3043 -0.3909  1.0089
   15CHTO   C52 6201   7.595   2.456  -0.106 -0.2152 -0.3827  0.2171
   15CHTO   O35 6202   7.521   2.341  -0.150 -0.0536  0.2358 -0.1146
   15CHTO   H71 6203   7.504   2.289  -0.074  1.3090 -1.1068 -0.7077
   15CHTO   O28 6204   7.290   2.769  -0.174 -0.1719 -0.2067  0.1929
   15CHTO   C42 6205   7.306   2.887  -0.259  0.0742  0.2321 -0.1289
   15CHTO   H84 6206   7.280   2.844  -0.356  0.9141 -2.1258  0.6489
   15CHTO   C44 6207   7.448   2.950  -0.274  0.1873 -0.4504  0.1957
   15CHTO   H86 6208   7.491   2.962  -0.175 -0.6258 -2.0965  0.7788
   15CHTO   O32 6209   7.549   2.860  -0.332  0.6756  0.0791 -0.3325
   15CHTO   H69 6210   7.555   2.774  -0.296  2.6569 -0.4831 -1.9112
   15CHTO   C48 6211   7.451   3.086  -0.356 -0.1667 -0.0850  0.1926
   15CHTO   H90 6212   7.449   3.059  -0.462  3.0320 -0.2640  0.1533
   15CHTO    N9 6213   7.574   3.164  -0.341 -0.4842 -0.3528 -0.2222
   15CHTO   H77 6214   7.607   3.226  -0.424 -1.8358 -2.0050 -2.0409
   15CHTO   H78 6215   7.654   3.098  -0.309 -1.2286  0.1506  2.7866
   15CHTO   C51 6216   7.326   3.175  -0.326 -0.2076  0.0252  0.5857
   15CHTO   H93 6217   7.342   3.230  -0.233  1.3625 -1.7562  1.4068
   15CHTO   O30 6218   7.199   3.108  -0.328 -0.2415  0.0697  0.0610
   15CHTO   C46 6219   7.202   2.989  -0.218 -0.6252  0.2277  0.2226
   15CHTO   H88 6220   7.235   3.026  -0.120  2.9100 -4.2392  0.8738
   15CHTO   C53 6221   7.068   2.934  -0.194  0.5890  0.3441  0.6025
   15CHTO   O72 6222   6.990   3.027  -0.122 -0.4594 -0.1892 -0.1224
   15CHTO  H199 6223   6.947   2.991  -0.046 -0.4201 -1.8705 -0.8821
   15CHTO   O22 6224   7.296   3.261  -0.439 -0.1808 -0.7416  0.2048
   15CHTO   C31 6225   7.227   3.398  -0.450  0.5500  0.2052 -0.1127
   15CHTO   H59 6226   7.214   3.416  -0.559 -0.0611 -2.4430 -0.5139
   15CHTO   C29 6227   7.089   3.417  -0.393  0.0193  0.2577 -0.8549
   15CHTO   H57 6228   7.094   3.372  -0.292 -2.1070  3.0080  0.5384
   15CHTO   O21 6229   7.000   3.335  -0.465  0.0616  0.0615  0.3040
   15CHTO   H37 6230   6.996   3.253  -0.419 -1.0105  1.3365  2.6096
   15CHTO   C27 6231   7.033   3.569  -0.383 -0.0300 -0.4061  0.0683
   15CHTO   H55 6232   7.029   3.614  -0.484  0.2195  0.2248  0.3389
   15CHTO    N5 6233   6.904   3.588  -0.316  0.2476  0.6542 -0.3188
   15CHTO   H43 6234   6.918   3.572  -0.210  0.7203 -0.4665 -0.5418
   15CHTO   H44 6235   6.895   3.695  -0.326 -0.3675  0.6204 -0.1389
   15CHTO   C25 6236   7.148   3.647  -0.309  0.2098  0.1653 -0.3904
   15CHTO   H53 6237   7.155   3.610  -0.206 -0.8333  0.6936 -0.1183
   15CHTO   O17 6238   7.266   3.642  -0.387  0.0670  0.1568  0.1020
   15CHTO   C32 6239   7.317   3.511  -0.396 -0.5583 -0.0134  0.3660
   15CHTO   H60 6240   7.349   3.485  -0.295 -2.2441 -0.7377  0.7284
   15CHTO   C36 6241   7.448   3.528  -0.470 -0.0887 -0.2300 -0.3416
   15CHTO   O25 6242   7.543   3.613  -0.408 -0.2647 -0.6199 -0.1065
   15CHTO   H40 6243   7.624   3.611  -0.455 -0.4986  1.0331 -0.6391
   15CHTO   O15 6244   7.129   3.806  -0.293  0.0503  0.4476 -0.2053
   15CHTO   C19 6245   7.202   3.916  -0.235 -0.0383  0.4170  0.0147
   15CHTO   H47 6246   7.270   3.929  -0.321 -1.1573  0.7256 -0.8399
   15CHTO   C20 6247   7.108   4.039  -0.222 -0.1027 -0.9321 -0.5940
   15CHTO   H48 6248   7.019   4.017  -0.161  0.0985 -0.5534 -0.1642
   15CHTO   O19 6249   7.065   4.083  -0.348  0.1925  0.0946 -0.2712
   15CHTO   H35 6250   7.014   4.019  -0.393  1.5265 -1.6493  0.6554
   15CHTO   C21 6251   7.181   4.166  -0.160 -0.2498  0.2261  0.4232
   15CHTO   H49 6252   7.256   4.202  -0.230  0.6614  1.3539  1.9679
   15CHTO    N4 6253   7.095   4.286  -0.138 -0.1957 -0.3622 -0.4691
   15CHTO   H41 6254   7.040   4.274  -0.046 -1.0700 -0.1323 -0.9608
   15CHTO   H42 6255   7.027   4.280  -0.222 -0.0156  0.4664 -0.6820
   15CHTO   C22 6256   7.254   4.116  -0.030 -0.0440 -0.4414 -0.1073
   15CHTO   H50 6257   7.179   4.084   0.042  1.5007  1.6860  2.5589
   15CHTO   O14 6258   7.345   4.007  -0.062 -0.0832  0.2688  0.1555
   15CHTO   C23 6259   7.287   3.887  -0.109 -1.1014 -0.4249 -0.8540
   15CHTO   H51 6260   7.224   3.861  -0.022  0.7677  0.7365  0.8988
   15CHTO   C34 6261   7.389   3.767  -0.120  0.4498  0.1039  1.3370
   15CHTO   O23 6262   7.493   3.805  -0.207 -0.0787 -0.4291 -0.5754
   15CHTO   H38 6263   7.572   3.772  -0.170  0.4569  0.0316 -1.3000
   15CHTO   O16 6264   7.331   4.221   0.031 -0.2585  0.1700 -0.1714
   15CHTO   C24 6265   7.318   4.230   0.184  0.0312 -0.3279 -0.3746
   15CHTO   H52 6266   7.264   4.144   0.226  0.6739 -1.1486 -1.2054
   15CHTO   C26 6267   7.242   4.360   0.211 -0.1593 -0.0778  0.1522
   15CHTO   H54 6268   7.277   4.432   0.135 -2.7673  1.1810  0.0911
   15CHTO   O20 6269   7.102   4.346   0.182  0.1604 -0.3497  0.0762
   15CHTO   H36 6270   7.085   4.356   0.090  0.8261  0.7929  0.0575
   15CHTO   C30 6271   7.269   4.420   0.351  0.3524 -0.5555 -0.8940
   15CHTO   H58 6272   7.215   4.356   0.423 -1.7794  1.9486 -0.1596
   15CHTO    N6 6273   7.208   4.552   0.365  0.6864  0.3386 -0.8986
   15CHTO   H45 6274   7.286   4.627   0.370 -0.3615  1.4097 -0.4490
   15CHTO   H46 6275   7.149   4.555   0.455 -0.2621  1.0185 -1.5398
   15CHTO   C33 6276   7.420   4.415   0.392  0.3724  0.2859  0.4981
   15CHTO   H61 6277   7.478   4.487   0.332  0.4330  0.5005  0.8128
   15CHTO   O18 6278   7.481   4.282   0.369  0.1767 -0.1514 -0.9308
   15CHTO   C28 6279   7.466   4.231   0.242 -0.1204  1.0819 -0.0120
   15CHTO   H56 6280   7.529   4.292   0.177  1.3904  0.1553  0.5546
   15CHTO   C35 6281   7.511   4.081   0.266 -0.0422 -0.3735  0.2330
   15CHTO   O24 6282   7.497   3.997   0.149 -0.3870 -0.0583  0.0814
   15CHTO   H39 6283   7.541   4.027   0.072  2.7070 -1.1679  1.3570
   15CHTO    O9 6284   7.449   4.464   0.525  0.7696 -0.8482 -0.0690
   15CHTO   C13 6285   7.580   4.529   0.556 -0.3385  0.4442 -1.0559
   15CHTO   H26 6286   7.554   4.636   0.542  0.7261  0.9477  0.6761
   15CHTO   C11 6287   7.706   4.490   0.461 -0.3504  0.0221  0.2096
   15CHTO   H24 6288   7.693   4.536   0.362  0.3338  0.7372  0.4510
   15CHTO    O8 6289   7.726   4.342   0.460  0.0772  0.5873 -0.6644
   15CHTO    H3 6290   7.706   4.306   0.544  3.3947  0.1665  0.0014
   15CHTO    C9 6291   7.834   4.559   0.515 -0.0819 -0.1432 -0.0684
   15CHTO   H22 6292   7.819   4.666   0.498  3.0138 -0.1406 -3.1266
   15CHTO    N2 6293   7.962   4.536   0.436  0.4856 -0.1875  0.0799
   15CHTO   H10 6294   7.997   4.624   0.385 -0.3382 -0.1122 -0.3611
   15CHTO   H11 6295   7.972   4.449   0.372  2.2009 -0.2063  0.3467
   15CHTO    C7 6296   7.860   4.545   0.670  0.0976 -0.7626 -0.6605
   15CHTO   H20 6297   7.925   4.633   0.690 -0.0368 -0.6474 -0.7265
   15CHTO    O4 6298   7.737   4.565   0.747 -0.2539 -0.2756  0.5358
   15CHTO   C14 6299   7.608   4.515   0.699 -0.5417  0.9029 -0.1477
   15CHTO   H27 6300   7.535   4.573   0.760 -0.1321 -1.2774  2.4891
   15CHTO   C18 6301   7.603   4.368   0.749 -0.9570  0.2855  0.0955
   15CHTO   O13 6302   7.614   4.337   0.892 -0.3665 -0.0348  1.0035
   15CHTO    H7 6303   7.669   4.399   0.938  1.1236 -0.7353  0.1987
   15CHTO    O2 6304   7.931   4.389   0.712  0.0582  0.0607  0.0582
   15CHTO    C1 6305   7.988   4.374   0.843  0.3825 -0.4033 -0.8563
   15CHTO   H14 6306   7.910   4.401   0.917  1.2492 -1.4254  0.4650
   15CHTO    C2 6307   8.120   4.467   0.880  0.1320 -0.6130 -0.2337
   15CHTO   H15 6308   8.190   4.459   0.796  1.0314 -0.8559  0.5336
   15CHTO    O6 6309   8.085   4.608   0.881 -0.0494  0.5302 -0.2365
   15CHTO    H1 6310   8.161   4.660   0.901 -0.7056  1.2495  0.4505
   15CHTO    C3 6311   8.200   4.418   1.009 -0.3981  0.1523 -0.9878
   15CHTO   H16 6312   8.128   4.460   1.081  0.5854  1.3388 -0.6632
   15CHTO    N1 6313   8.339   4.489   1.021  0.8489  0.1797 -0.2513
   15CHTO    H8 6314   8.359   4.538   1.114 -2.3711  2.0717 -0.4962
   15CHTO    H9 6315   8.343   4.564   0.943 -1.2165  2.0833  1.4380
   15CHTO    C4 6316   8.199   4.260   1.018  0.6176  0.1221 -0.6219
   15CHTO   H17 6317   8.275   4.213   0.955  0.7422 -1.2915  0.5498
   15CHTO    O1 6318   8.074   4.200   0.984 -0.2483 -0.3791 -0.0425
   15CHTO    C5 6319   8.023   4.223   0.855  0.4882 -0.2845  0.3550
   15CHTO   H18 6320   8.088   4.203   0.769  1.3357  0.2406  0.8667
   15CHTO   C16 6321   7.907   4.128   0.855 -0.1968 -0.3667 -0.5552
   15CHTO   O11 6322   7.845   4.118   0.727  0.0802  0.1951  0.1348
   15CHTO    H5 6323   7.818   4.206   0.707 -1.0850 -0.4875 -1.3486
   15CHTO    O3 6324   8.219   4.223   1.158 -0.2825  0.2911  0.3582
   15CHTO    C6 6325   8.270   4.089   1.189  0.3456 -0.4692 -0.1557
   15CHTO   H19 6326   8.269   4.015   1.109  0.1274  0.3382 -0.9096
   15CHTO    C8 6327   8.419   4.104   1.233  0.3659  0.0312 -0.6213
   15CHTO   H21 6328   8.423   4.152   1.331  0.2182 -1.2736  0.0407
   15CHTO    O7 6329   8.490   4.179   1.132  0.3893  0.0275 -0.5096
   15CHTO    H2 6330   8.476   4.271   1.148 -1.9332 -0.5642  1.0143
   15CHTO   C12 6331   8.473   3.955   1.252 -0.2270  0.1066 -0.7526
   15CHTO   H25 6332   8.476   3.904   1.153 -0.3617 -0.2769 -0.5596
   15CHTO    N3 6333   8.612   3.959   1.291 -0.9790  0.2381  0.5594
   15CHTO   H12 6334   8.680   3.991   1.214 -0.2199 -0.5189  0.9070
   15CHTO   H13 6335   8.641   3.862   1.329 -3.1896 -1.0282 -0.8559
   15CHTO   C15 6336   8.374   3.878   1.344  0.5853  0.5193 -0.4630
   15CHTO   H28 6337   8.378   3.905   1.449 -0.7408 -2.7206  0.4996
   15CHTO   O10 6338   8.400   3.723   1.332  0.1515  0.3446  0.9040
   15CHTO    H4 6339   8.490   3.712   1.356  0.6588  1.8322 -0.2391
   15CHTO    O5 6340   8.235   3.888   1.310 -0.1970  0.1672  0.2455
   15CHTO   C10 6341   8.186   4.022   1.293 -0.0313 -0.6054 -0.4940
   15CHTO   H23 6342   8.207   4.067   1.390 -1.2046 -0.6137 -0.2312
   15CHTO   C17 6343   8.035   4.005   1.267  0.1101  0.5560 -0.1344
   15CHTO   O12 6344   7.955   4.120   1.295  0.5168 -0.8134 -0.3450
   15CHTO    H6 6345   7.873   4.122   1.250  0.3300 -2.0646 -0.0661
   16CHTO  H203 6346   6.726   4.529  -0.085 -0.5252 -0.3790 -0.1258
   16CHTO   O82 6347   6.637   4.525  -0.055 -0.6613 -0.0756 -0.4792
   16CHTO  C123 6348   6.631   4.439   0.061  0.0130 -0.2791 -0.4962
   16CHTO  H227 6349   6.527   4.445   0.096 -0.0795  0.8044 -0.9322
   16CHTO   O77 6350   6.656   4.311   0.014 -0.1437 -0.0130  0.2010
   16CHTO  C118 6351   6.641   4.204   0.107  0.3449  0.0036 -0.1856
   16CHTO  H222 6352   6.545   4.218   0.159  1.0179 -0.1206  1.1036
   16CHTO  C125 6353   6.628   4.063   0.031 -0.4006  0.1730 -0.0555
   16CHTO   O84 6354   6.729   4.049  -0.072  0.3776  0.1325 -0.7260
   16CHTO  H205 6355   6.731   3.957  -0.093  1.3640  0.0763 -0.4417
   16CHTO  C114 6356   6.763   4.222   0.200 -0.1801 -0.8319  0.1538
   16CHTO  H218 6357   6.853   4.240   0.140 -0.5973  0.5668 -0.0831
   16CHTO  C116 6358   6.729   4.356   0.278  0.0369  0.7880 -0.7758
   16CHTO  H220 6359   6.630   4.338   0.324  0.7719 -0.2247  0.4124
   16CHTO   O79 6360   6.826   4.369   0.382  0.2194 -0.3231 -0.4842
   16CHTO  H201 6361   6.817   4.453   0.423  1.5424  0.0714 -0.9954
   16CHTO  C120 6362   6.728   4.480   0.175  0.8238 -0.0153  0.7296
   16CHTO  H224 6363   6.830   4.509   0.142 -0.6443  3.3015 -1.1742
   16CHTO   N21 6364   6.691   4.610   0.233 -0.0363  0.7572  0.0954
   16CHTO  H211 6365   6.638   4.680   0.170 -2.0074  2.0627  3.0825
   16CHTO  H212 6366   6.634   4.596   0.324 -1.4783  0.7028 -0.7927
   16CHTO   O75 6367   6.777   4.103   0.277 -0.3106  0.3179 -0.6631
   16CHTO  C112 6368   6.919   4.010   0.248 -0.2860 -0.0008  0.1093
   16CHTO  H216 6369   6.986   4.076   0.191 -0.8670  0.4016 -0.1113
   16CHTO   O73 6370   6.879   3.899   0.168  0.4742 -0.6230  0.1942
   16CHTO  C113 6371   6.982   3.821   0.111  0.0741 -0.0153  0.2613
   16CHTO  H217 6372   7.044   3.882   0.043 -0.4817  0.8692  0.5444
   16CHTO  C124 6373   6.918   3.719   0.016 -0.0331 -0.1851 -0.4356
   16CHTO   O83 6374   6.811   3.636   0.063  0.3821  0.0836  0.2765
   16CHTO  H204 6375   6.732   3.685   0.066 -1.2796 -2.3800 -1.0410
   16CHTO  C109 6376   7.076   3.758   0.223 -0.2292  0.3602 -0.3295
   16CHTO  H213 6377   7.024   3.673   0.268  1.5359  0.6823  2.4094
   16CHTO  C110 6378   7.125   3.875   0.319  0.5351  0.8006 -0.0613
   16CHTO  H214 6379   7.196   3.937   0.265 -1.1121  2.2516 -0.6060
   16CHTO   O78 6380   7.198   3.814   0.427 -0.2343 -0.8720 -0.4158
   16CHTO  H200 6381   7.254   3.871   0.475 -1.4771 -0.4866  0.6335
   16CHTO  C111 6382   7.005   3.958   0.373  0.7431  0.7091  0.2373
   16CHTO  H215 6383   6.940   3.893   0.435  0.6451 -0.2169 -0.8135
   16CHTO   N19 6384   7.038   4.068   0.456  0.2760 -0.1796 -0.2393
   16CHTO  H207 6385   7.105   4.041   0.536 -0.1092 -1.1367 -0.2283
   16CHTO  H208 6386   6.946   4.119   0.482  0.9757  0.5188  0.9050
   16CHTO   O74 6387   7.199   3.717   0.161  0.7061 -0.4876  0.2968
   16CHTO  C115 6388   7.233   3.568   0.157 -0.3950  0.0142 -0.0167
   16CHTO  H219 6389   7.175   3.506   0.226 -0.9550 -0.1101 -0.5970
   16CHTO   O76 6390   7.197   3.512   0.009  0.6020 -0.7242  0.3436
   16CHTO  C122 6391   7.224   3.371  -0.014 -0.7039 -0.2043  0.2218
   16CHTO  H226 6392   7.235   3.356  -0.121  0.3317 -0.0384  0.2966
   16CHTO  C126 6393   7.103   3.285   0.018 -0.4127 -0.2536  0.5086
   16CHTO   O85 6394   6.988   3.307  -0.063  0.2754 -0.1599  0.7419
   16CHTO  H206 6395   6.948   3.388  -0.039 -0.0791  0.4429 -1.7534
   16CHTO  C121 6396   7.362   3.305   0.047 -0.1440  0.3206  0.2322
   16CHTO  H225 6397   7.337   3.198   0.062 -2.3925  0.7080 -0.5560
   16CHTO   O81 6398   7.480   3.309  -0.039  0.1577  0.3746 -0.5660
   16CHTO  H202 6399   7.444   3.288  -0.123 -1.1731  1.4290 -0.2790
   16CHTO  C119 6400   7.386   3.374   0.185  0.3620  0.2145  0.2274
   16CHTO  H223 6401   7.299   3.340   0.241 -0.9689 -2.4504 -3.2633
   16CHTO  C117 6402   7.386   3.529   0.187  1.0735 -0.1789 -0.3978
   16CHTO  H221 6403   7.448   3.588   0.120  0.6063  0.4825 -0.2596
   16CHTO   N20 6404   7.418   3.589   0.324 -0.2608 -0.4521  0.1586
   16CHTO  H209 6405   7.440   3.514   0.398  1.7461 -0.2030 -0.1641
   16CHTO  H210 6406   7.500   3.659   0.312 -1.6726  0.8963 -2.1493
   16CHTO   O80 6407   7.508   3.289   0.251  0.8273  0.2352 -0.0852
   16CHTO  C103 6408   7.502   3.138   0.264  0.0891  0.3195 -0.2000
   16CHTO  H190 6409   7.415   3.093   0.217  0.4176 -2.2512  1.5105
   16CHTO  C101 6410   7.635   3.057   0.217  0.0232  0.2348  0.4203
   16CHTO  H188 6411   7.719   3.103   0.269  1.2850 -1.0417 -0.4584
   16CHTO   O68 6412   7.639   3.073   0.067 -0.2583  0.6686  0.3018
   16CHTO  H168 6413   7.550   3.084   0.037 -0.7574 -0.5931  1.2668
   16CHTO   C99 6414   7.626   2.902   0.250  0.0103  0.0099 -0.0530
   16CHTO  H186 6415   7.540   2.858   0.195 -0.2394  1.4340 -0.8123
   16CHTO   N17 6416   7.734   2.815   0.208 -0.6215  0.3693  0.0805
   16CHTO  H174 6417   7.784   2.858   0.122  0.5115  0.2297  0.6611
   16CHTO  H175 6418   7.703   2.715   0.184 -0.3437  0.3376 -0.1466
   16CHTO   C97 6419   7.594   2.885   0.399  0.9579  0.3112  0.5306
   16CHTO  H184 6420   7.684   2.899   0.460  2.1854 -0.8850 -0.9640
   16CHTO   O64 6421   7.482   2.969   0.442 -0.3754  0.1000  0.3061
   16CHTO  C104 6422   7.487   3.112   0.425  0.6320  0.3788 -0.3266
   16CHTO  H191 6423   7.571   3.157   0.478  0.2120 -1.2710  1.8389
   16CHTO  C108 6424   7.359   3.180   0.481 -0.4987 -0.3897 -0.3441
   16CHTO   O71 6425   7.339   3.148   0.620  0.0113  0.3854  0.6550
   16CHTO  H171 6426   7.314   3.057   0.625 -1.3175  0.7918  1.6826
   16CHTO   O62 6427   7.544   2.744   0.421  0.0442 -0.4309  0.1811
   16CHTO   C91 6428   7.558   2.694   0.554  0.2182  0.5580 -0.2484
   16CHTO  H178 6429   7.584   2.767   0.630  0.1818 -1.6011  1.9104
   16CHTO   C92 6430   7.687   2.604   0.560 -0.0371  0.5481  0.8281
   16CHTO  H179 6431   7.706   2.550   0.467 -0.7554  1.2605  0.2616
   16CHTO   O66 6432   7.797   2.695   0.555  0.9011  0.2347  0.0483
   16CHTO  H166 6433   7.841   2.700   0.472  1.7634 -0.5215  0.4489
   16CHTO   C93 6434   7.692   2.502   0.678 -0.0528 -0.6921 -0.4650
   16CHTO  H180 6435   7.730   2.566   0.759 -2.0785 -0.8817  0.6697
   16CHTO   N16 6436   7.793   2.396   0.668  0.5088 -0.0174  0.1043
   16CHTO  H172 6437   7.878   2.432   0.612  2.0947 -2.0510  1.1157
   16CHTO  H173 6438   7.748   2.328   0.597  0.1981  0.8630 -0.5434
   16CHTO   C94 6439   7.554   2.447   0.720  0.5069  0.2381 -0.3014
   16CHTO  H181 6440   7.510   2.374   0.651 -0.4707 -0.7803  1.3653
   16CHTO   O61 6441   7.464   2.554   0.733  0.3937 -0.5721  0.5555
   16CHTO   C95 6442   7.434   2.611   0.607  0.4951 -0.1213 -0.6549
   16CHTO  H182 6443   7.407   2.529   0.540  0.1865  0.0795 -0.7789
   16CHTO  C106 6444   7.308   2.698   0.617  0.2387 -0.0585 -0.3362
   16CHTO   O69 6445   7.193   2.615   0.669 -1.0607 -0.4193 -0.1053
   16CHTO  H169 6446   7.219   2.570   0.747  1.3336  3.1718  1.2742
   16CHTO   O63 6447   7.567   2.365   0.880  0.3482  0.6734 -0.4190
   16CHTO   C96 6448   7.441   2.324   0.954  0.1236 -0.3601  0.3730
   16CHTO  H183 6449   7.467   2.249   1.028 -0.3218  0.5348  1.4373
   16CHTO   C98 6450   7.343   2.248   0.860 -0.4998 -0.3597  0.4784
   16CHTO  H185 6451   7.332   2.298   0.762 -0.8758 -1.7424 -0.1987
   16CHTO   O67 6452   7.396   2.122   0.831 -0.1976 -0.5655  0.1550
   16CHTO  H167 6453   7.336   2.057   0.799 -0.6369 -0.9119  1.6455
   16CHTO  C102 6454   7.204   2.230   0.928 -0.0299 -1.0388  0.1616
   16CHTO  H189 6455   7.231   2.187   1.026  2.9408 -0.4227 -0.3363
   16CHTO   N18 6456   7.104   2.141   0.862  0.1416 -0.5330 -0.0725
   16CHTO  H176 6457   7.070   2.162   0.762 -2.2317  0.6176  0.9285
   16CHTO  H177 6458   7.136   2.038   0.869  0.0708 -0.5599 -0.1498
   16CHTO  C105 6459   7.153   2.376   0.965 -0.3620  1.1268 -0.0291
   16CHTO  H192 6460   7.164   2.444   0.880 -3.8215 -0.3538 -1.7756
   16CHTO   O65 6461   7.240   2.419   1.074  0.0738 -0.3917  0.0654
   16CHTO  C100 6462   7.378   2.440   1.038  0.3349 -0.0455  0.4115
   16CHTO  H187 6463   7.388   2.528   0.972  3.7546 -1.1974 -0.6934
   16CHTO  C107 6464   7.464   2.465   1.169 -0.5377 -0.4931 -0.5524
   16CHTO   O70 6465   7.402   2.558   1.257  0.2086  0.3363  0.6865
   16CHTO  H170 6466   7.315   2.526   1.273  0.3446  0.0642  0.8648
   16CHTO   O57 6467   7.016   2.388   1.009 -0.5702 -0.0489 -0.7844
   16CHTO   C85 6468   6.933   2.472   0.933  0.2075 -0.5812 -0.5183
   16CHTO  H157 6469   6.947   2.441   0.827 -0.2332  2.3274 -1.4510
   16CHTO   C83 6470   6.981   2.625   0.948 -0.2110  0.0431  0.2830
   16CHTO  H155 6471   7.086   2.635   0.920  0.2983 -0.2828  1.9994
   16CHTO   O56 6472   6.971   2.661   1.087  0.3849 -0.0258 -0.1452
   16CHTO  H135 6473   7.034   2.637   1.152 -0.1838  1.8032  1.1218
   16CHTO   C81 6474   6.890   2.705   0.852 -0.0821  0.3099 -0.3257
   16CHTO  H153 6475   6.904   2.667   0.751  1.0673  1.3829 -0.5862
   16CHTO   N14 6476   6.948   2.842   0.842 -0.4077 -0.0416 -0.0164
   16CHTO  H141 6477   6.917   2.893   0.752  2.9984  0.9923 -0.6809
   16CHTO  H142 6478   6.914   2.906   0.921  2.3677 -0.6749  1.7425
   16CHTO   C79 6479   6.734   2.693   0.889  0.1845 -0.3123  0.6883
   16CHTO  H151 6480   6.675   2.733   0.806 -0.2436 -1.8639  0.2208
   16CHTO   O52 6481   6.698   2.549   0.894 -0.9435 -0.2806  0.1765
   16CHTO   C86 6482   6.789   2.463   0.973  0.3365  0.3649  0.8468
   16CHTO  H158 6483   6.771   2.503   1.075  1.1974  3.0825 -0.0249
   16CHTO   C90 6484   6.725   2.324   0.970 -0.4736 -0.5987 -0.0843
   16CHTO   O60 6485   6.594   2.320   1.023 -0.4247  0.0804 -0.1096
   16CHTO  H138 6486   6.544   2.382   0.974 -1.2589 -0.8480 -0.4490
   16CHTO   O50 6487   6.695   2.762   1.012 -0.1514 -0.4777 -0.7163
   16CHTO   C73 6488   6.599   2.789   1.118  0.3570  0.5897  0.4304
   16CHTO  H145 6489   6.611   2.720   1.202  1.9282  1.1103  0.6381
   16CHTO   C74 6490   6.454   2.779   1.067  1.0973 -0.2134  0.0549
   16CHTO  H146 6491   6.443   2.684   1.013 -0.8417  0.4174 -0.6706
   16CHTO   O54 6492   6.372   2.760   1.185 -0.2412 -0.5602  0.2115
   16CHTO  H133 6493   6.320   2.836   1.204  2.4084  0.7812  2.4388
   16CHTO   C75 6494   6.412   2.902   0.979  0.6975  0.4671 -0.2615
   16CHTO  H147 6495   6.475   2.906   0.888  0.9298 -1.0637 -0.1810
   16CHTO   N13 6496   6.270   2.903   0.930 -0.0924  0.7623 -0.7395
   16CHTO  H139 6497   6.254   3.002   0.888  0.8004  1.6248  0.9100
   16CHTO  H140 6498   6.197   2.879   1.007 -1.3536 -0.2115 -2.2085
   16CHTO   C76 6499   6.438   3.032   1.060  0.3173 -0.6346 -0.1831
   16CHTO  H148 6500   6.373   3.028   1.148 -1.2981 -0.9715 -1.3770
   16CHTO   O49 6501   6.583   3.041   1.083  0.5239  0.1779 -0.2919
   16CHTO   C77 6502   6.624   2.936   1.180 -0.1218 -0.2350 -0.0181
   16CHTO  H149 6503   6.579   2.944   1.279  1.3047  0.0743  0.6187
   16CHTO   C88 6504   6.777   2.944   1.220  0.0040 -0.1363 -0.5866
   16CHTO   O58 6505   6.805   3.059   1.270  0.0491  0.0974  0.2890
   16CHTO  H136 6506   6.757   3.067   1.350 -0.5627 -1.5351  0.1109
   16CHTO   O51 6507   6.425   3.179   0.976 -0.9058  0.2521 -0.1254
   16CHTO   C78 6508   6.420   3.303   1.088 -0.3508  0.3584 -0.0083
   16CHTO  H150 6509   6.457   3.268   1.186 -1.2346  0.3031  0.3045
   16CHTO   C80 6510   6.269   3.351   1.104  0.4781  0.3941 -0.4945
   16CHTO  H152 6511   6.227   3.375   1.004  0.4154  2.1541 -0.0642
   16CHTO   O55 6512   6.189   3.237   1.147 -0.1407 -0.1861 -0.1441
   16CHTO  H134 6513   6.182   3.230   1.240  3.1469 -1.2961  0.1077
   16CHTO   C84 6514   6.247   3.472   1.202  0.6000  0.0059 -0.4059
   16CHTO  H156 6515   6.290   3.450   1.300  2.4729 -0.0046 -1.2129
   16CHTO   N15 6516   6.103   3.522   1.222 -0.5133  0.4218 -0.1415
   16CHTO  H143 6517   6.084   3.601   1.153  1.0268  0.4326 -0.5688
   16CHTO  H144 6518   6.093   3.564   1.320  0.1992  1.6936 -0.6053
   16CHTO   C87 6519   6.350   3.581   1.162 -0.2482 -0.0422 -0.4787
   16CHTO  H159 6520   6.327   3.622   1.063 -0.0067 -1.1212 -0.9864
   16CHTO   O53 6521   6.506   3.519   1.155  0.7278 -0.4027 -0.6674
   16CHTO   C82 6522   6.503   3.425   1.051 -0.2478 -0.4998  0.4794
   16CHTO  H154 6523   6.461   3.464   0.958 -2.3282 -2.0544  0.7240
   16CHTO   C89 6524   6.639   3.361   1.014  0.0633 -0.3369 -0.0145
   16CHTO   O59 6525   6.720   3.458   0.947  0.3676  0.1064 -0.1319
   16CHTO  H137 6526   6.677   3.500   0.875 -0.7373 -0.8068 -0.0323
   16CHTO   O45 6527   6.353   3.704   1.270 -0.1050  0.0526 -0.4740
   16CHTO   C67 6528   6.476   3.759   1.325  0.4340  0.2358 -0.4879
   16CHTO  H124 6529   6.562   3.724   1.270 -1.6808 -2.7633 -2.0494
   16CHTO   C65 6530   6.484   3.914   1.324 -0.6157  0.0069 -0.3550
   16CHTO  H122 6531   6.385   3.960   1.332 -0.7417 -0.6538  2.0740
   16CHTO   O44 6532   6.545   3.953   1.202  0.1163  0.3188  0.3020
   16CHTO  H102 6533   6.635   3.937   1.221  0.2991  0.9020 -0.0409
   16CHTO   C63 6534   6.561   3.968   1.450  0.2582 -0.2020  0.0185
   16CHTO  H120 6535   6.492   3.958   1.534  0.2786  0.2698  0.0905
   16CHTO   N11 6536   6.605   4.111   1.445  0.6636 -0.1112 -0.1655
   16CHTO  H108 6537   6.569   4.140   1.348 -0.9969  0.7904  0.7057
   16CHTO  H109 6538   6.712   4.113   1.447  0.6552  0.5213 -0.3300
   16CHTO   C61 6539   6.674   3.864   1.488  0.0498  0.9075  0.1044
   16CHTO  H118 6540   6.715   3.899   1.584  1.0715  1.0585 -0.3740
   16CHTO   O40 6541   6.628   3.733   1.517 -0.4150  0.7855  0.3991
   16CHTO   C68 6542   6.493   3.704   1.477  0.1107 -0.0948 -0.0362
   16CHTO  H125 6543   6.431   3.754   1.554 -2.1553 -0.8518 -1.3157
   16CHTO   C72 6544   6.471   3.550   1.483 -0.1250 -0.5559 -0.0505
   16CHTO   O48 6545   6.430   3.508   1.608  0.0137 -0.3373  0.6275
   16CHTO  H105 6546   6.337   3.496   1.614 -0.4717  2.8233  0.2654
   16CHTO   O38 6547   6.775   3.865   1.384 -0.0329  0.0803  0.4678
   16CHTO   C55 6548   6.901   3.794   1.408 -0.9345  0.6488 -0.8074
   16CHTO  H112 6549   6.885   3.724   1.491 -0.0706  0.6007 -0.6759
   16CHTO   C56 6550   7.013   3.895   1.436 -0.1423  1.2538  0.0619
   16CHTO  H113 6551   7.019   3.956   1.345 -1.0413 -0.2634 -1.0311
   16CHTO   O42 6552   6.973   3.982   1.541 -0.4554 -0.0209 -0.3712
   16CHTO  H100 6553   7.042   4.041   1.561 -0.2531 -0.3263 -0.1606
   16CHTO   C57 6554   7.158   3.822   1.464  0.1200 -0.6543 -0.4147
   16CHTO  H114 6555   7.163   3.773   1.562  0.2968  0.5803  0.1979
   16CHTO   N10 6556   7.274   3.911   1.466  0.3591  0.1961  0.5537
   16CHTO  H106 6557   7.264   3.978   1.382  0.2755  1.3411  1.4662
   16CHTO  H107 6558   7.363   3.851   1.453 -0.2390 -1.1096  2.3687
   16CHTO   C58 6559   7.181   3.706   1.358  0.7600 -0.3510 -0.4226
   16CHTO  H115 6560   7.209   3.745   1.258  0.5904  0.8271 -0.0194
   16CHTO   O37 6561   7.065   3.626   1.350 -0.2470 -0.0126  0.0681
   16CHTO   C59 6562   6.948   3.696   1.296 -0.5096 -0.3809  0.1859
   16CHTO  H116 6563   6.977   3.752   1.207 -0.5017 -0.0734  0.3807
   16CHTO   C70 6564   6.838   3.600   1.247  0.0060  0.0559 -0.4144
   16CHTO   O46 6565   6.788   3.507   1.345 -0.1447 -0.2094  0.1535
   16CHTO  H103 6566   6.851   3.438   1.346  0.1427  0.0563  0.3968
   16CHTO   O39 6567   7.304   3.609   1.414  0.1422  0.3863  0.1294
   16CHTO   C60 6568   7.368   3.532   1.305 -0.0408 -0.0684  0.3558
   16CHTO  H117 6569   7.296   3.515   1.225  0.4484  0.1328 -0.1362
   16CHTO   C62 6570   7.492   3.604   1.245 -0.1630 -0.1219 -1.0728
   16CHTO  H119 6571   7.455   3.697   1.197  0.6786  0.8216  0.0741
   16CHTO   O43 6572   7.583   3.653   1.352  0.0516 -0.2477 -0.0242
   16CHTO  H101 6573   7.661   3.687   1.313 -0.4633 -1.3471 -2.1167
   16CHTO   C66 6574   7.576   3.509   1.135  0.1297  0.1177 -0.8151
   16CHTO  H123 6575   7.512   3.478   1.053  0.5216  0.8257 -1.3926
   16CHTO   N12 6576   7.685   3.588   1.068 -0.0470  0.0820 -0.4226
   16CHTO  H110 6577   7.739   3.646   1.141  0.8085 -0.0637 -0.9378
   16CHTO  H111 6578   7.648   3.650   0.988  1.1161  0.5484 -0.5998
   16CHTO   C69 6579   7.616   3.379   1.205 -0.2889 -0.7725 -0.0935
   16CHTO  H126 6580   7.680   3.391   1.295 -0.0646  2.5824 -0.6125
   16CHTO   O41 6581   7.500   3.306   1.254  0.1356  0.3511 -0.4439
   16CHTO   C64 6582   7.406   3.391   1.353 -0.8145 -0.5712 -0.2079
   16CHTO  H121 6583   7.462   3.417   1.446 -0.3698  0.3744 -0.7314
   16CHTO   C71 6584   7.290   3.298   1.393  0.6041  0.3757 -0.6897
   16CHTO   O47 6585   7.203   3.359   1.487 -0.4148 -0.0581 -0.3661
   16CHTO  H104 6586   7.235   3.364   1.575 -0.2813 -0.5836 -0.3809
   16CHTO   O34 6587   7.690   3.272   1.089  0.3533 -0.3810  0.1988
   16CHTO   C49 6588   7.663   3.229   0.942  0.1803 -0.3720 -0.1870
   16CHTO   H91 6589   7.649   3.316   0.878  1.2614 -1.0537 -1.3894
   16CHTO   C47 6590   7.538   3.141   0.934 -0.3247  0.2894 -0.3054
   16CHTO   H89 6591   7.531   3.111   0.828  0.9489  0.0951 -0.3448
   16CHTO   O33 6592   7.424   3.211   0.977  0.5322 -0.8549 -0.2837
   16CHTO   H70 6593   7.346   3.165   0.952  0.3122  0.5734 -2.3314
   16CHTO   C45 6594   7.560   3.006   1.022  0.5759  0.3483 -0.2262
   16CHTO   H87 6595   7.512   3.025   1.120 -1.7467 -0.3256 -1.1988
   16CHTO    N8 6596   7.476   2.894   0.959  0.2906 -0.2559  0.0632
   16CHTO   H75 6597   7.377   2.926   0.929 -0.0931 -1.1129  0.4039
   16CHTO   H76 6598   7.534   2.868   0.872 -0.6742 -1.8526 -0.1302
   16CHTO   C43 6599   7.714   2.972   1.035 -0.3321  0.2370  0.3227
   16CHTO   H85 6600   7.745   3.045   1.110 -0.3630  0.5020  0.0807
   16CHTO   O29 6601   7.776   2.999   0.915 -0.6051 -0.5790  0.7133
   16CHTO   C50 6602   7.778   3.142   0.884  0.4707 -0.0451  0.3836
   16CHTO   H92 6603   7.872   3.188   0.921 -0.2462  2.3955 -0.7216
   16CHTO   C54 6604   7.786   3.165   0.729 -0.0978  0.1410 -0.6119
   16CHTO   O36 6605   7.842   3.293   0.696 -0.1003 -0.2772 -0.3229
   16CHTO   H72 6606   7.778   3.359   0.716 -0.1158 -0.8270  1.5264
   16CHTO   O27 6607   7.742   2.836   1.077 -0.2090 -0.3685 -0.1841
   16CHTO   C37 6608   7.837   2.771   1.163  0.6241 -0.1706 -0.2201
   16CHTO   H79 6609   7.923   2.839   1.171 -1.0113  1.9566 -0.3476
   16CHTO   C38 6610   7.770   2.762   1.307 -0.1209  0.5538 -0.3126
   16CHTO   H80 6611   7.666   2.727   1.293  0.6403 -2.5789  1.3949
   16CHTO   O31 6612   7.766   2.894   1.367 -0.0808  0.4629  0.6862
   16CHTO   H68 6613   7.680   2.903   1.403 -0.5949 -1.6429  0.0422
   16CHTO   C39 6614   7.847   2.654   1.401 -0.2070  1.1441 -0.7572
   16CHTO   H81 6615   7.949   2.691   1.414 -0.2868  0.3458  2.6095
   16CHTO    N7 6616   7.786   2.644   1.538  0.3681 -0.4380 -0.1565
   16CHTO   H73 6617   7.850   2.691   1.611 -2.2382  0.6591  1.4974
   16CHTO   H74 6618   7.688   2.689   1.531  0.2888 -0.5817  0.0291
   16CHTO   C40 6619   7.854   2.514   1.322 -0.2334  0.6148  0.1251
   16CHTO   H82 6620   7.749   2.496   1.298  0.4534 -2.7268 -0.5027
   16CHTO   O26 6621   7.935   2.534   1.201 -0.3529 -0.3269 -0.3136
   16CHTO   C41 6622   7.871   2.628   1.106 -0.5718 -0.3063 -0.6105
   16CHTO   H83 6623   7.775   2.583   1.077 -1.1851  0.7690 -0.2924
   16CHTO   C52 6624   7.956   2.643   0.979 -0.4024  0.4633  0.1959
   16CHTO   O35 6625   7.944   2.530   0.902  0.3922  0.5224  0.1916
   16CHTO   H71 6626   7.865   2.537   0.852  0.2932  1.4557  0.4594
   16CHTO   O28 6627   7.918   2.411   1.404  0.2104 -0.0862  0.1808
   16CHTO   C42 6628   7.884   2.272   1.378 -0.9985  0.2518  0.4772
   16CHTO   H84 6629   7.931   2.211   1.455 -0.6891  0.0461  0.1295
   16CHTO   C44 6630   7.925   2.218   1.238  0.1483 -0.0695 -0.5089
   16CHTO   H86 6631   7.865   2.268   1.162  0.0266  0.9395  0.2442
   16CHTO   O32 6632   8.061   2.258   1.220  0.1852  0.4367  0.4329
   16CHTO   H69 6633   8.109   2.269   1.300  1.2644  0.9103 -0.2601
   16CHTO   C48 6634   7.902   2.054   1.223  0.2589  0.6395  0.2912
   16CHTO   H90 6635   7.956   2.005   1.304  1.4279  2.1366  0.4392
   16CHTO    N9 6636   7.962   1.997   1.096  0.0089 -0.9231  0.2356
   16CHTO   H77 6637   7.974   2.067   1.015  2.0653 -1.6376 -0.0831
   16CHTO   H78 6638   8.057   1.955   1.125  0.8076 -0.1671 -1.2250
   16CHTO   C51 6639   7.751   2.030   1.240  0.1431 -0.0157 -0.2658
   16CHTO   H93 6640   7.694   2.083   1.163 -0.2040  0.8290  0.5654
   16CHTO   O30 6641   7.720   2.080   1.373 -0.0109  0.1039  0.0422
   16CHTO   C46 6642   7.730   2.247   1.389  0.3576  0.1176  0.0321
   16CHTO   H88 6643   7.676   2.286   1.303  1.9298  1.7673 -0.2366
   16CHTO   C53 6644   7.671   2.300   1.523 -0.8573 -0.2639  0.1157
   16CHTO   O72 6645   7.538   2.236   1.534  0.0054  0.1018  0.0945
   16CHTO  H199 6646   7.466   2.296   1.543  0.8520  1.2099 -0.2810
   16CHTO   O22 6647   7.710   1.893   1.236  0.1355  0.2063  0.1777
   16CHTO   C31 6648   7.569   1.848   1.260 -0.0502 -0.7309  0.3031
   16CHTO   H59 6649   7.525   1.924   1.328  0.6012 -0.3826  0.3314
   16CHTO   C29 6650   7.483   1.840   1.143  0.5455  0.3407 -0.7675
   16CHTO   H57 6651   7.542   1.775   1.077  3.7889  1.3197  1.0959
   16CHTO   O21 6652   7.480   1.974   1.091 -0.0259  0.0407 -0.0223
   16CHTO   H37 6653   7.412   2.026   1.130  1.0864  1.2096  0.3912
   16CHTO   C27 6654   7.331   1.795   1.163  0.2245  0.5358 -0.0973
   16CHTO   H55 6655   7.273   1.879   1.203 -0.4840  1.0381 -2.0945
   16CHTO    N5 6656   7.272   1.761   1.027  0.0084  0.1697 -0.5672
   16CHTO   H43 6657   7.351   1.700   0.986 -0.5220 -1.3880  0.6552
   16CHTO   H44 6658   7.195   1.687   1.044  1.0235 -0.7434  0.1416
   16CHTO   C25 6659   7.339   1.668   1.257 -0.1877 -0.8750  0.6608
   16CHTO   H53 6660   7.364   1.589   1.184  0.3864  1.7113 -2.0937
   16CHTO   O17 6661   7.425   1.681   1.372 -0.0841  0.2071 -0.0809
   16CHTO   C32 6662   7.562   1.710   1.337 -0.3190  0.4854  0.2006
   16CHTO   H60 6663   7.605   1.636   1.270  1.9948  1.6694  0.3437
   16CHTO   C36 6664   7.652   1.706   1.465  0.0535  0.4167  0.4953
   16CHTO   O25 6665   7.788   1.692   1.429 -0.2039  0.0023 -0.3144
   16CHTO   H40 6666   7.836   1.751   1.484  0.7665 -0.8132 -0.2814
   16CHTO   O15 6667   7.186   1.637   1.285 -0.4407  0.3338  0.3901
   16CHTO   C19 6668   7.077   1.605   1.375  0.1056  0.1385 -0.6213
   16CHTO   H47 6669   7.092   1.500   1.403 -0.0018  0.7835  1.9862
   16CHTO   C20 6670   7.082   1.690   1.503  0.6337 -0.5409  0.0704
   16CHTO   H48 6671   7.099   1.796   1.482  0.0501 -0.6370 -0.9010
   16CHTO   O19 6672   7.203   1.641   1.570 -0.5726  0.4862 -0.1649
   16CHTO   H35 6673   7.281   1.662   1.522  0.4902 -0.0960  1.2732
   16CHTO   C21 6674   6.950   1.676   1.592  0.2928  0.5099  0.3297
   16CHTO   H49 6675   6.943   1.571   1.620  0.2839 -0.2227 -2.2940
   16CHTO    N4 6676   6.943   1.753   1.722 -0.7131 -0.4081 -0.0704
   16CHTO   H41 6677   7.023   1.826   1.721 -0.1038 -1.0684 -0.7749
   16CHTO   H42 6678   6.848   1.800   1.736 -0.8275 -1.4122  2.7901
   16CHTO   C22 6679   6.823   1.692   1.503  0.0114 -0.4925 -0.0524
   16CHTO   H50 6680   6.828   1.792   1.461  0.0962 -0.5681 -0.2227
   16CHTO   O14 6681   6.830   1.598   1.393 -0.2222  0.3377  0.1947
   16CHTO   C23 6682   6.936   1.618   1.304 -0.1036  0.0286  0.5871
   16CHTO   H51 6683   6.924   1.717   1.258  1.2522 -0.6951 -1.3675
   16CHTO   C34 6684   6.934   1.506   1.195  0.2979 -0.2826 -0.1749
   16CHTO   O23 6685   6.840   1.526   1.093  0.5662 -0.0118 -0.3476
   16CHTO   H38 6686   6.855   1.470   1.020 -1.9968 -0.0872 -0.8651
   16CHTO   O16 6687   6.696   1.671   1.568  0.6836  0.1223  0.7855
   16CHTO   C24 6688   6.589   1.781   1.545 -0.5531 -0.2750 -0.1242
   16CHTO   H52 6689   6.597   1.822   1.444 -0.1797 -1.7232 -0.6923
   16CHTO   C26 6690   6.601   1.902   1.642  0.1379 -0.6252  0.8040
   16CHTO   H54 6691   6.613   1.865   1.746  3.1485 -1.0055  0.3681
   16CHTO   O20 6692   6.724   1.964   1.619 -0.0194  0.1123  0.2614
   16CHTO   H36 6693   6.749   2.042   1.665  3.0853 -0.9584  0.4915
   16CHTO   C30 6694   6.482   2.000   1.633  0.0016  0.3597  0.3354
   16CHTO   H58 6695   6.482   2.060   1.540 -0.5911 -1.9763 -1.2197
   16CHTO    N6 6696   6.475   2.103   1.739 -0.2339 -0.6287 -0.5206
   16CHTO   H45 6697   6.447   2.066   1.836 -1.1695  2.6951  0.5530
   16CHTO   H46 6698   6.572   2.152   1.743 -1.1873  1.2158  1.4969
   16CHTO   C33 6699   6.349   1.920   1.626 -0.5773 -0.1980  0.0502
   16CHTO   H61 6700   6.324   1.878   1.724 -0.4514 -2.6770 -0.9457
   16CHTO   O18 6701   6.352   1.807   1.535  0.1287 -0.1186 -0.1153
   16CHTO   C28 6702   6.456   1.711   1.550  0.5780  0.4518  0.9669
   16CHTO   H56 6703   6.445   1.659   1.646  0.1680  0.8293  1.1261
   16CHTO   C35 6704   6.429   1.607   1.436  0.1143  0.1874 -0.3243
   16CHTO   O24 6705   6.523   1.503   1.447 -0.1880  0.6569  0.2361
   16CHTO   H39 6706   6.555   1.471   1.365 -2.5162 -0.1321 -0.4184
   16CHTO    O9 6707   6.242   2.012   1.593 -0.0436 -0.1305 -0.2274
   16CHTO   C13 6708   6.115   1.994   1.680  0.5526  0.3205  0.2796
   16CHTO   H26 6709   6.146   2.011   1.786  1.1139  1.6929 -0.0856
   16CHTO   C11 6710   6.047   1.851   1.666 -0.7319 -0.5910 -0.6694
   16CHTO   H24 6711   6.116   1.779   1.712 -0.3629 -0.5998 -1.2343
   16CHTO    O8 6712   6.044   1.808   1.528  0.0715  0.0757  0.1029
   16CHTO    H3 6713   5.972   1.749   1.513  1.4649 -1.8875  0.8926
   16CHTO    C9 6714   5.903   1.852   1.735 -0.7344 -0.2771  0.1324
   16CHTO   H22 6715   5.917   1.888   1.838  0.6886  0.6363 -0.3652
   16CHTO    N2 6716   5.845   1.713   1.745  0.0262 -1.1285 -0.2444
   16CHTO   H10 6717   5.906   1.637   1.699  0.0052  0.7724 -3.6089
   16CHTO   H11 6718   5.825   1.690   1.849  3.2482 -0.0856  0.6721
   16CHTO    C7 6719   5.809   1.966   1.665 -0.7311  0.5132 -0.3391
   16CHTO   H20 6720   5.763   2.007   1.757  0.0977 -0.9404  0.7565
   16CHTO    O4 6721   5.880   2.063   1.595 -0.1661 -0.2337 -0.8224
   16CHTO   C14 6722   6.007   2.112   1.652 -0.8527 -0.0900 -0.1098
   16CHTO   H27 6723   5.985   2.153   1.753 -1.0850 -0.3982 -0.0324
   16CHTO   C18 6724   6.057   2.229   1.560  0.1440  0.0577 -0.0629
   16CHTO   O13 6725   6.125   2.336   1.634  0.0867  0.3028  0.1911
   16CHTO    H7 6726   6.063   2.371   1.696  0.2152 -0.4106  0.7248
   16CHTO    O2 6727   5.693   1.897   1.552  0.5855  0.1961  0.3322
   16CHTO    C1 6728   5.560   1.955   1.552 -0.3595  0.3905  0.3561
   16CHTO   H14 6729   5.497   1.908   1.474  1.0927 -1.2888  0.1574
   16CHTO    C2 6730   5.543   2.116   1.526  0.3343 -0.2469  0.3227
   16CHTO   H15 6731   5.601   2.162   1.608 -1.6021 -0.5080  1.8941
   16CHTO    O6 6732   5.583   2.145   1.393  0.1478 -0.3264 -0.1910
   16CHTO    H1 6733   5.619   2.073   1.346 -1.1505 -0.5131 -0.9105
   16CHTO    C3 6734   5.393   2.168   1.556  0.3046  0.0925 -0.0471
   16CHTO   H16 6735   5.325   2.115   1.488  0.4176  1.1186 -0.9802
   16CHTO    N1 6736   5.375   2.311   1.547 -0.3865  0.0463  0.3401
   16CHTO    H8 6737   5.432   2.367   1.620 -0.3530  0.2434  0.1633
   16CHTO    H9 6738   5.272   2.345   1.554 -0.4167 -0.2134  1.3176
   16CHTO    C4 6739   5.350   2.117   1.704  0.0329  0.0706 -0.4614
   16CHTO   H17 6740   5.415   2.164   1.778  0.7334  0.5967 -1.4050
   16CHTO    O1 6741   5.357   1.973   1.715 -0.1801  0.3768 -0.1104
   16CHTO    C5 6742   5.487   1.911   1.687  0.0436  0.7821 -0.2045
   16CHTO   H18 6743   5.552   1.929   1.773 -0.5596 -0.1674  0.4632
   16CHTO   C16 6744   5.458   1.761   1.680  0.3319  0.4276  0.2378
   16CHTO   O11 6745   5.423   1.713   1.807 -0.5417  0.2971 -0.3000
   16CHTO    H5 6746   5.488   1.652   1.835 -0.3527  0.3309 -0.6638
   16CHTO    O3 6747   5.206   2.144   1.728 -0.7760 -0.0041 -0.4041
   16CHTO    C6 6748   5.142   2.082   1.851 -0.2110  0.6136 -0.1898
   16CHTO   H19 6749   5.208   2.008   1.896 -2.0842 -0.3435  1.0146
   16CHTO    C8 6750   5.120   2.178   1.957  0.4913 -0.5038  0.7405
   16CHTO   H21 6751   5.085   2.270   1.911  0.9759 -1.4172 -1.5169
   16CHTO    O7 6752   5.242   2.207   2.026 -0.5769 -0.2272 -0.2836
   16CHTO    H2 6753   5.305   2.253   1.975 -1.5477  1.5971  0.1250
   16CHTO   C12 6754   5.007   2.125   2.061 -0.1232  0.1566  0.2072
   16CHTO   H25 6755   5.056   2.050   2.127 -1.7795 -1.6803 -0.6044
   16CHTO    N3 6756   4.967   2.241   2.153 -0.1689 -0.1686  0.0948
   16CHTO   H12 6757   4.886   2.294   2.104  1.2555  1.7517 -0.2564
   16CHTO   H13 6758   4.949   2.191   2.247 -0.9189 -0.0697  0.0127
   16CHTO   C15 6759   4.887   2.050   1.997 -0.8892 -0.1283  0.2993
   16CHTO   H28 6760   4.814   2.121   1.959 -0.5825 -1.2449 -2.4819
   16CHTO   O10 6761   4.823   1.965   2.082  0.5125  0.1264  0.3676
   16CHTO    H4 6762   4.762   2.010   2.139  0.8712 -0.8877  1.5742
   16CHTO    O5 6763   4.929   1.956   1.893  0.6892 -0.0425  0.1008
   16CHTO   C10 6764   5.021   2.009   1.799 -1.0674 -0.4714  1.0746
   16CHTO   H23 6765   4.965   2.079   1.738 -0.1332 -1.9840 -1.6201
   16CHTO   C17 6766   5.060   1.896   1.700 -0.8448  0.3985  0.4916
   16CHTO   O12 6767   5.105   1.776   1.771  0.2561  0.5955 -0.0559
   16CHTO    H6 6768   5.066   1.699   1.733 -1.7660  1.4642  0.2076
   17CHTO  H203 6769   5.938   4.200  -0.014  1.3271  2.1454 -0.2276
   17CHTO   O82 6770   5.938   4.225   0.077 -0.1796 -0.0440  0.3955
   17CHTO  C123 6771   5.853   4.336   0.109  0.4147 -0.1206  0.1561
   17CHTO  H227 6772   5.783   4.305   0.188 -0.1387  3.0811  1.0070
   17CHTO   O77 6773   5.937   4.432   0.166  0.3260  0.1157 -0.5541
   17CHTO  C118 6774   5.891   4.566   0.205 -0.5238 -0.3628 -0.6238
   17CHTO  H222 6775   5.815   4.553   0.283 -0.1619  1.7563  0.1000
   17CHTO  C125 6776   6.011   4.654   0.259 -0.6314  0.4526 -0.7445
   17CHTO   O84 6777   6.064   4.598   0.382 -0.2026  0.0649  0.5323
   17CHTO  H205 6778   6.052   4.664   0.448 -1.8070  1.1083 -0.7601
   17CHTO  C114 6779   5.826   4.633   0.084 -0.4439 -0.0922 -0.0875
   17CHTO  H218 6780   5.902   4.658   0.010 -0.9699  1.0563 -0.2470
   17CHTO  C116 6781   5.721   4.539   0.021  0.5523 -1.0989  0.2926
   17CHTO  H220 6782   5.636   4.528   0.091  0.3503 -0.5400  0.1399
   17CHTO   O79 6783   5.660   4.601  -0.095 -0.1131 -0.1326  0.0181
   17CHTO  H201 6784   5.614   4.535  -0.143  0.5443 -0.4521 -0.1851
   17CHTO  C120 6785   5.774   4.396  -0.013  0.3612  0.4755 -0.0684
   17CHTO  H224 6786   5.840   4.399  -0.103 -0.9258 -1.1073 -1.0961
   17CHTO   N21 6787   5.667   4.308  -0.060 -0.0154 -0.0071 -0.2241
   17CHTO  H211 6788   5.576   4.364  -0.077 -0.2077 -0.4707 -0.7366
   17CHTO  H212 6789   5.653   4.236   0.019  1.5162  0.0944  0.1503
   17CHTO   O75 6790   5.779   4.761   0.138 -0.1180  0.1177 -0.4598
   17CHTO  C112 6791   5.781   4.877   0.024  0.2997 -0.0499  0.0663
   17CHTO  H216 6792   5.744   4.835  -0.071  1.0326 -1.2568  0.3049
   17CHTO   O73 6793   5.915   4.926   0.018  1.0516 -0.5409  0.7117
   17CHTO  C113 6794   5.936   5.044  -0.068 -0.0520 -0.1882 -0.9961
   17CHTO  H217 6795   5.896   5.009  -0.165 -0.2495 -0.9912 -0.6235
   17CHTO  C124 6796   6.081   5.084  -0.077 -0.1713  0.2413 -0.2700
   17CHTO   O83 6797   6.121   5.134   0.049  0.2228  0.1495  0.1335
   17CHTO  H204 6798   6.213   5.150   0.056  0.7027 -1.4716 -1.9098
   17CHTO  C109 6799   5.850   5.156  -0.015 -0.0917  0.6816  0.5833
   17CHTO  H213 6800   5.876   5.170   0.091  1.5772  1.6182  0.0676
   17CHTO  C110 6801   5.699   5.115  -0.031 -0.2374 -0.1392  0.3626
   17CHTO  H214 6802   5.683   5.082  -0.133 -4.6135 -0.3020  1.0173
   17CHTO   O78 6803   5.606   5.220   0.001  0.6301  0.3673  0.2801
   17CHTO  H200 6804   5.614   5.272  -0.077  2.3695 -0.6333 -0.2424
   17CHTO  C111 6805   5.678   4.991   0.059  0.2626 -0.2751  0.4103
   17CHTO  H215 6806   5.705   5.019   0.162 -1.0792  1.3290  0.3500
   17CHTO   N19 6807   5.542   4.932   0.059 -0.6813  0.1627  0.0925
   17CHTO  H207 6808   5.535   4.835   0.012  0.2584 -0.3000  0.9077
   17CHTO  H208 6809   5.511   4.924   0.162 -2.0961  3.9116  0.0585
   17CHTO   O74 6810   5.871   5.279  -0.088  0.1619 -0.1222  0.4469
   17CHTO  C115 6811   5.866   5.409   0.013 -0.0052 -0.0646  0.5893
   17CHTO  H219 6812   5.788   5.398   0.089 -0.3673 -0.1261  0.2137
   17CHTO   O76 6813   6.000   5.425   0.094  0.6310  0.2172  0.3121
   17CHTO  C122 6814   6.119   5.446   0.018  0.0944  0.1933  0.0521
   17CHTO  H226 6815   6.135   5.368  -0.056  0.7921 -0.3584  0.7806
   17CHTO  C126 6816   6.239   5.442   0.124 -0.3516 -0.4671 -0.3470
   17CHTO   O85 6817   6.365   5.430   0.054  0.0748  0.0550  0.0553
   17CHTO  H206 6818   6.413   5.361   0.094  1.2321 -0.6113 -2.3638
   17CHTO  C121 6819   6.105   5.581  -0.064  0.3472 -1.2279  0.3096
   17CHTO  H225 6820   6.185   5.655  -0.047 -0.3697 -0.1704 -0.8156
   17CHTO   O81 6821   6.101   5.556  -0.208 -0.3209 -0.5595  0.5613
   17CHTO  H202 6822   6.185   5.528  -0.236 -0.6058 -1.6634  0.8140
   17CHTO  C119 6823   5.965   5.647  -0.038  0.1405  0.1283 -0.7719
   17CHTO  H223 6824   5.963   5.665   0.069  1.2370 -1.4271 -0.4789
   17CHTO  C117 6825   5.845   5.541  -0.073  0.4059  0.4012 -0.7866
   17CHTO  H221 6826   5.840   5.501  -0.174 -3.8602  1.3499 -1.0212
   17CHTO   N20 6827   5.714   5.611  -0.057 -0.3324 -0.7551 -0.0524
   17CHTO  H209 6828   5.728   5.705  -0.005  0.5720 -0.4126 -0.8852
   17CHTO  H210 6829   5.668   5.633  -0.152  2.0805 -0.1014 -1.1152
   17CHTO   O80 6830   5.947   5.798  -0.110 -0.0631 -0.3480 -0.2779
   17CHTO  C103 6831   6.012   5.928  -0.025  0.4270  0.9465 -0.6250
   17CHTO  H190 6832   6.034   5.903   0.079  1.4316 -1.5461 -1.3986
   17CHTO  C101 6833   6.139   5.996  -0.092 -0.2581  0.1541 -0.1386
   17CHTO  H188 6834   6.107   6.007  -0.195 -2.5845 -0.2899  0.5175
   17CHTO   O68 6835   6.262   5.901  -0.089  0.3063 -0.2812 -0.6128
   17CHTO  H168 6836   6.325   5.904  -0.158  0.3067  0.1939 -0.5888
   17CHTO   C99 6837   6.174   6.134  -0.027  0.1868  0.0868 -1.0106
   17CHTO  H186 6838   6.197   6.118   0.080 -1.9438  1.4894 -0.2824
   17CHTO   N17 6839   6.284   6.203  -0.094  0.0192  0.0403  0.6584
   17CHTO  H174 6840   6.328   6.283  -0.036  0.9037  0.1684 -0.1790
   17CHTO  H175 6841   6.359   6.143  -0.143 -0.5970 -1.2483  1.2749
   17CHTO   C97 6842   6.039   6.221  -0.031 -0.1575  0.1370 -0.4686
   17CHTO  H184 6843   6.015   6.234  -0.138  0.1400 -0.0827 -0.5635
   17CHTO   O64 6844   5.939   6.144   0.040  0.0896  0.8624  0.7432
   17CHTO  C104 6845   5.890   6.031  -0.023 -0.3194 -0.3454 -0.3658
   17CHTO  H191 6846   5.858   6.063  -0.122 -1.3321  1.7127  0.5851
   17CHTO  C108 6847   5.769   5.966   0.036  0.1716 -0.0870  0.4296
   17CHTO   O71 6848   5.660   6.050   0.068 -0.1066 -0.0613  0.4794
   17CHTO  H171 6849   5.616   6.070  -0.012  2.5178  0.5952 -0.8504
   17CHTO   O62 6850   6.040   6.344   0.042  0.7142 -0.0843  0.3860
   17CHTO   C91 6851   5.941   6.439  -0.014 -0.1228 -0.3557  0.0779
   17CHTO  H178 6852   5.861   6.382  -0.061 -0.7101  1.3086 -0.9816
   17CHTO   C92 6853   6.006   6.532  -0.128 -0.2926 -0.1430  0.2792
   17CHTO  H179 6854   6.051   6.472  -0.208  1.4688  3.2123 -1.3673
   17CHTO   O66 6855   5.887   6.601  -0.191  0.5706 -0.4768  0.5781
   17CHTO  H166 6856   5.844   6.541  -0.249  0.9429 -2.3666  2.1915
   17CHTO   C93 6857   6.100   6.642  -0.074 -0.3322 -0.3933  0.1197
   17CHTO  H180 6858   6.103   6.723  -0.149 -1.6190  0.2805  0.7695
   17CHTO   N16 6859   6.238   6.595  -0.057  0.3943  0.3327  0.7568
   17CHTO  H172 6860   6.281   6.609   0.041  1.4427 -2.3101  0.7177
   17CHTO  H173 6861   6.248   6.494  -0.096 -0.7210  0.8860 -1.0253
   17CHTO   C94 6862   6.041   6.699   0.061  0.3664  0.6277 -1.5708
   17CHTO  H181 6863   6.099   6.665   0.147  2.6381 -0.3980 -3.4536
   17CHTO   O61 6864   5.898   6.668   0.080  0.1014  0.6414 -0.2057
   17CHTO   C95 6865   5.872   6.532   0.103 -0.0594  0.3502  0.3868
   17CHTO  H182 6866   5.930   6.501   0.189  2.0866  1.1139 -0.7391
   17CHTO  C106 6867   5.721   6.509   0.128 -0.2152 -0.0480 -0.0306
   17CHTO   O69 6868   5.688   6.555   0.259  0.6895 -0.3694  0.5332
   17CHTO  H169 6869   5.640   6.635   0.245  0.7556 -0.4375 -0.1005
   17CHTO   O63 6870   6.050   6.862   0.053  0.8386  0.7514 -0.0551
   17CHTO   C96 6871   5.991   6.923   0.204 -0.2139 -0.2635  0.7131
   17CHTO  H183 6872   5.973   6.838   0.269 -0.0330  0.4993  1.7774
   17CHTO   C98 6873   5.861   7.005   0.182  0.2274  0.7689 -0.1295
   17CHTO  H185 6874   5.884   7.082   0.107  0.2946 -0.8337 -1.8192
   17CHTO   O67 6875   5.770   6.913   0.121 -0.7215  0.5440  0.5638
   17CHTO  H167 6876   5.681   6.943   0.120 -0.3776  1.5381 -1.1469
   17CHTO  C102 6877   5.818   7.072   0.324  0.0350  0.0247  0.0916
   17CHTO  H189 6878   5.814   6.991   0.399  2.4729 -0.1864  0.0407
   17CHTO   N18 6879   5.686   7.141   0.329  0.0542 -0.0341  0.8138
   17CHTO  H176 6880   5.703   7.236   0.280  0.2255 -0.3632  0.2193
   17CHTO  H177 6881   5.665   7.163   0.432  0.3318  0.7669  0.7004
   17CHTO  C105 6882   5.938   7.162   0.368 -0.1970 -0.0200  0.1380
   17CHTO  H192 6883   5.949   7.241   0.294 -1.3844 -2.2715 -2.5385
   17CHTO   O65 6884   6.061   7.087   0.377  0.4999 -1.1059  0.3581
   17CHTO  C100 6885   6.104   7.013   0.265  0.4596 -0.1017 -0.3448
   17CHTO  H187 6886   6.141   7.083   0.189 -0.6133  0.1951 -0.6015
   17CHTO  C107 6887   6.239   6.940   0.304  0.6733 -0.1541  0.5952
   17CHTO   O70 6888   6.330   7.031   0.358  0.4071 -0.1395  0.1580
   17CHTO  H170 6889   6.330   7.034   0.452 -0.6425 -1.3271  0.2022
   17CHTO   O57 6890   5.908   7.229   0.493  0.1467 -0.0167  0.1325
   17CHTO   C85 6891   5.957   7.364   0.517 -0.0214  0.1957  0.7821
   17CHTO  H157 6892   5.967   7.408   0.415  1.7976 -1.2651  0.3047
   17CHTO   C83 6893   6.106   7.354   0.566 -1.1839  0.5462 -0.2274
   17CHTO  H155 6894   6.168   7.326   0.482 -0.5463  0.0814  0.3969
   17CHTO   O56 6895   6.109   7.250   0.665  0.2042 -0.1095 -0.4345
   17CHTO  H135 6896   6.185   7.195   0.656 -0.4940 -0.8438 -1.8817
   17CHTO   C81 6897   6.148   7.489   0.620 -1.2758 -0.0575 -0.7230
   17CHTO  H153 6898   6.145   7.561   0.538  2.7008 -1.3665 -2.1474
   17CHTO   N14 6899   6.287   7.494   0.660  0.5930 -0.6648 -0.2538
   17CHTO  H141 6900   6.305   7.454   0.758  0.4514 -1.7647 -0.6686
   17CHTO  H142 6901   6.332   7.429   0.588  1.6180  1.1216 -1.2620
   17CHTO   C79 6902   6.053   7.537   0.738 -0.1485 -0.1333 -0.3428
   17CHTO  H151 6903   6.093   7.630   0.780 -0.1698 -1.2767  2.3091
   17CHTO   O52 6904   5.923   7.567   0.687 -0.4845  0.0977 -0.1754
   17CHTO   C86 6905   5.865   7.452   0.612  0.4325  0.2407  0.6566
   17CHTO  H158 6906   5.825   7.386   0.692  1.5390 -3.7830 -1.9244
   17CHTO   C90 6907   5.746   7.492   0.528 -0.1874 -0.3126  0.1451
   17CHTO   O60 6908   5.649   7.549   0.613 -0.5738 -0.1513  0.4546
   17CHTO  H138 6909   5.597   7.486   0.659 -1.2569 -0.8133 -1.1768
   17CHTO   O50 6910   6.032   7.449   0.851 -0.4780 -0.1990 -0.0801
   17CHTO   C73 6911   6.024   7.409   0.984  0.4299 -0.3872 -0.2300
   17CHTO  H145 6912   5.963   7.483   1.037  1.0601  0.1791 -0.2989
   17CHTO   C74 6913   6.171   7.397   1.056 -0.0531 -0.0376 -0.1284
   17CHTO  H146 6914   6.221   7.495   1.046 -2.1726  0.8906 -2.0428
   17CHTO   O54 6915   6.146   7.378   1.194 -0.0552 -0.7690 -0.7217
   17CHTO  H133 6916   6.082   7.438   1.229  1.2451  0.8352 -1.0732
   17CHTO   C75 6917   6.254   7.274   0.987 -0.1356  0.1510 -0.4330
   17CHTO  H147 6918   6.263   7.296   0.880  0.5317 -1.0208 -0.6286
   17CHTO   N13 6919   6.395   7.259   1.036  0.3243  0.1732 -0.7171
   17CHTO  H139 6920   6.402   7.189   1.119  2.6828  0.7254 -0.4196
   17CHTO  H140 6921   6.424   7.356   1.074 -0.1153  0.3229 -0.7572
   17CHTO   C76 6922   6.169   7.136   1.000  0.1633  0.3412 -0.4331
   17CHTO  H148 6923   6.152   7.116   1.105 -0.6184  3.1085  0.0213
   17CHTO   O49 6924   6.040   7.161   0.934  0.0991  0.6849 -0.4014
   17CHTO   C77 6925   5.961   7.265   0.990  0.0011  0.2459 -0.2319
   17CHTO  H149 6926   5.949   7.245   1.097 -1.9015 -1.0757 -0.6654
   17CHTO   C88 6927   5.825   7.259   0.915 -0.3682  0.7441  0.5939
   17CHTO   O58 6928   5.733   7.366   0.974  0.0864 -0.0387  0.3174
   17CHTO  H136 6929   5.707   7.337   1.059 -0.0978 -2.3898 -0.5042
   17CHTO   O51 6930   6.241   7.016   0.929  0.0488  0.4404 -0.8742
   17CHTO   C78 6931   6.143   6.875   0.919 -0.1683  0.6172 -0.7594
   17CHTO  H150 6932   6.040   6.895   0.956 -0.0842 -1.3594  0.6617
   17CHTO   C80 6933   6.197   6.762   1.014 -0.1480 -0.1802  0.2282
   17CHTO  H152 6934   6.301   6.736   0.985  1.4148  1.2361  4.2183
   17CHTO   O55 6935   6.202   6.821   1.144  0.1625 -0.7100  0.3368
   17CHTO  H134 6936   6.282   6.794   1.185 -0.3512  1.5500  2.9942
   17CHTO   C84 6937   6.106   6.632   1.006  0.0474 -0.3635  1.0235
   17CHTO  H156 6938   6.006   6.651   1.045 -0.2665 -1.1107  0.5791
   17CHTO   N15 6939   6.154   6.511   1.079 -0.0666 -1.0392  0.0995
   17CHTO  H143 6940   6.121   6.505   1.180 -0.3367 -1.1976 -0.0004
   17CHTO  H144 6941   6.261   6.503   1.079 -0.0302 -0.5472  0.9175
   17CHTO   C87 6942   6.085   6.587   0.858  0.0878  0.6516 -0.0354
   17CHTO  H159 6943   6.176   6.542   0.817  0.4690  0.3245  1.1754
   17CHTO   O53 6944   6.042   6.716   0.767  0.7718 -0.6630 -0.4309
   17CHTO   C82 6945   6.133   6.830   0.773 -0.2138  0.3293  0.0355
   17CHTO  H154 6946   6.236   6.810   0.744  0.0222  2.7270 -0.9225
   17CHTO   C89 6947   6.084   6.937   0.671 -0.7046 -0.7739 -0.3871
   17CHTO   O59 6948   5.953   6.997   0.689  0.1354  0.0381 -0.3848
   17CHTO  H137 6949   5.938   7.069   0.632  0.5696  0.4570  0.0255
   17CHTO   O45 6950   5.986   6.478   0.829 -0.6383  0.1551 -0.4718
   17CHTO   C67 6951   5.844   6.477   0.841  0.5219 -0.0089  0.2351
   17CHTO  H124 6952   5.825   6.480   0.948 -1.3717  0.0132 -0.0788
   17CHTO   C65 6953   5.756   6.588   0.757  0.0306  0.6511  0.2147
   17CHTO  H122 6954   5.831   6.628   0.689 -0.5240  0.9141 -0.2418
   17CHTO   O44 6955   5.716   6.689   0.855 -0.6872 -0.5837 -0.2931
   17CHTO  H102 6956   5.661   6.759   0.824  1.3946  1.6383  0.9095
   17CHTO   C63 6957   5.648   6.521   0.661  0.5062  0.0735 -0.3883
   17CHTO  H120 6958   5.698   6.461   0.585  2.0069  0.8420 -0.0416
   17CHTO   N11 6959   5.567   6.620   0.575  0.1151 -0.8341 -0.0132
   17CHTO  H108 6960   5.635   6.689   0.530  1.4712 -1.7090  0.6743
   17CHTO  H109 6961   5.492   6.682   0.620 -1.0782 -0.0590 -2.9616
   17CHTO   C61 6962   5.568   6.408   0.739 -0.7527 -0.1970  0.5678
   17CHTO  H118 6963   5.518   6.353   0.658  0.6167  1.9383 -1.8172
   17CHTO   O40 6964   5.656   6.323   0.809  0.5154 -0.1767  0.2220
   17CHTO   C68 6965   5.796   6.334   0.794  0.4798  1.0141 -0.2291
   17CHTO  H125 6966   5.817   6.312   0.687 -0.5707  2.0744 -0.6636
   17CHTO   C72 6967   5.859   6.224   0.870  0.0528 -0.1323 -0.0009
   17CHTO   O48 6968   5.970   6.166   0.802 -0.3250 -0.2128 -0.1882
   17CHTO  H105 6969   6.045   6.221   0.799  0.6696 -1.5339 -0.2954
   17CHTO   O38 6970   5.486   6.459   0.844 -0.3596 -0.4132 -0.4499
   17CHTO   C55 6971   5.368   6.392   0.890  0.2706 -0.3897  0.1476
   17CHTO  H112 6972   5.409   6.357   0.985  0.5548 -0.4547  0.0016
   17CHTO   C56 6973   5.318   6.264   0.799 -0.5606 -0.7211 -0.9556
   17CHTO  H113 6974   5.307   6.301   0.696  0.1111 -1.4884 -1.3189
   17CHTO   O42 6975   5.404   6.156   0.806 -0.4772 -0.1835 -0.1106
   17CHTO  H100 6976   5.417   6.123   0.719 -0.2646  1.9643 -0.9182
   17CHTO   C57 6977   5.175   6.212   0.856  0.1036 -0.1683 -0.3161
   17CHTO  H114 6978   5.195   6.148   0.942 -1.6297  2.5871  2.2395
   17CHTO   N10 6979   5.108   6.125   0.753  0.2866  0.6350  0.0288
   17CHTO  H106 6980   5.153   6.027   0.753 -1.3948 -0.2197 -2.9508
   17CHTO  H107 6981   5.004   6.111   0.780 -0.6336  0.8377 -3.1714
   17CHTO   C58 6982   5.084   6.323   0.908  1.0898  0.4610 -0.3101
   17CHTO  H115 6983   5.057   6.392   0.826  2.1421  1.1553 -0.0803
   17CHTO   O37 6984   5.158   6.412   0.998 -0.4884 -0.1370 -0.1324
   17CHTO   C59 6985   5.253   6.492   0.929  0.3770 -0.3730  0.1089
   17CHTO  H116 6986   5.226   6.538   0.834  3.3178  0.3719 -0.4304
   17CHTO   C70 6987   5.290   6.603   1.027 -0.0005 -0.1094 -0.4498
   17CHTO   O46 6988   5.365   6.573   1.147 -0.1237  0.0419 -0.2721
   17CHTO  H103 6989   5.444   6.528   1.126 -1.1908 -1.9746 -0.1386
   17CHTO   O39 6990   4.940   6.234   0.996  0.7262  0.0221  0.2313
   17CHTO   C60 6991   4.818   6.309   1.005 -0.3917  0.9441  0.2601
   17CHTO  H117 6992   4.847   6.409   1.039  2.1161  0.3645 -0.0345
   17CHTO   C62 6993   4.753   6.324   0.870 -0.1864 -0.7448 -0.3836
   17CHTO  H119 6994   4.827   6.378   0.808 -2.2797  1.9485 -0.6547
   17CHTO   O43 6995   4.727   6.193   0.814 -0.0855 -0.3896 -0.1718
   17CHTO  H101 6996   4.797   6.155   0.766 -0.6917 -2.3981  0.4660
   17CHTO   C66 6997   4.618   6.416   0.883  0.3912 -0.1103 -0.3898
   17CHTO  H123 6998   4.642   6.512   0.929 -1.7706 -0.9950  2.7618
   17CHTO   N12 6999   4.551   6.428   0.748  0.4644 -0.3584 -0.2068
   17CHTO  H110 7000   4.620   6.402   0.668 -1.5462 -2.8269 -1.2046
   17CHTO  H111 7001   4.512   6.529   0.748 -0.8400 -0.8534 -0.7444
   17CHTO   C69 7002   4.523   6.343   0.982  0.3181  0.2035 -0.3997
   17CHTO  H126 7003   4.493   6.242   0.949 -0.3129  0.8266 -1.7333
   17CHTO   O41 7004   4.602   6.338   1.117 -0.3995 -0.6136  0.2348
   17CHTO   C64 7005   4.719   6.251   1.106 -0.1392  0.3388 -0.2302
   17CHTO  H121 7006   4.686   6.148   1.081  0.0423  0.1567  0.2689
   17CHTO   C71 7007   4.790   6.234   1.247 -0.4549 -0.2929  0.2981
   17CHTO   O47 7008   4.709   6.158   1.335  0.2204  0.0721 -0.2776
   17CHTO  H104 7009   4.696   6.209   1.413  2.2134  2.0983 -1.1907
   17CHTO   O34 7010   4.390   6.413   1.017  0.0219 -0.0301  0.5996
   17CHTO   C49 7011   4.301   6.504   1.103 -0.5069 -0.0375 -1.0017
   17CHTO   H91 7012   4.367   6.586   1.131 -1.5107  0.5901 -0.4449
   17CHTO   C47 7013   4.266   6.435   1.236 -0.1859 -0.4566  0.1080
   17CHTO   H89 7014   4.203   6.505   1.295 -0.8176 -1.4454  0.6174
   17CHTO   O33 7015   4.382   6.407   1.314 -0.1843  0.1741 -0.3476
   17CHTO   H70 7016   4.431   6.486   1.323 -1.0724  0.4798  2.1399
   17CHTO   C45 7017   4.184   6.299   1.202  0.3869 -0.1482  0.1979
   17CHTO   H87 7018   4.251   6.216   1.175 -0.3407 -0.3368 -1.0795
   17CHTO    N8 7019   4.116   6.264   1.329 -0.2020  0.0438 -0.0432
   17CHTO   H75 7020   4.011   6.245   1.311 -1.1401  0.8455  4.1291
   17CHTO   H76 7021   4.174   6.185   1.373  2.5738  2.2752  0.4361
   17CHTO   C43 7022   4.092   6.313   1.075  0.2116 -0.5970 -1.0272
   17CHTO   H85 7023   4.142   6.260   0.994  1.4023 -1.7532  0.4406
   17CHTO   O29 7024   4.060   6.449   1.044 -0.0677 -0.3017  0.1527
   17CHTO   C50 7025   4.168   6.539   1.034  0.2225  0.1325  0.2575
   17CHTO   H92 7026   4.186   6.564   0.928 -0.5819 -0.9030 -0.1291
   17CHTO   C54 7027   4.125   6.673   1.098  0.1363 -0.0641 -0.3534
   17CHTO   O36 7028   4.012   6.735   1.028 -0.2132 -0.2924  0.2670
   17CHTO   H72 7029   3.952   6.753   1.098 -0.0958 -1.8335  0.7804
   17CHTO   O27 7030   3.970   6.233   1.071  0.0162 -0.6631  0.1164
   17CHTO   C37 7031   3.931   6.107   1.009 -0.0475 -0.1337 -0.6761
   17CHTO   H79 7032   3.823   6.099   1.029 -0.7826  0.5067 -4.1008
   17CHTO   C38 7033   3.942   6.115   0.855  1.2829  0.3528 -0.4401
   17CHTO   H80 7034   4.043   6.141   0.821  1.2368  0.8734 -0.1833
   17CHTO   O31 7035   3.852   6.216   0.814  0.1982 -0.0163 -0.2476
   17CHTO   H68 7036   3.878   6.304   0.832 -1.2161  0.1577  1.0312
   17CHTO   C39 7037   3.908   5.981   0.788  0.4272  0.1186 -0.1119
   17CHTO   H81 7038   3.808   5.957   0.823 -0.0398  0.8564 -0.9131
   17CHTO    N7 7039   3.918   5.980   0.638 -0.5213  0.2066 -0.3356
   17CHTO   H73 7040   3.875   5.888   0.604  1.5934 -0.4822 -1.2472
   17CHTO   H74 7041   3.889   6.067   0.580 -0.9498  1.3122  1.5026
   17CHTO   C40 7042   4.008   5.865   0.847  1.1216 -0.9511 -0.1654
   17CHTO   H82 7043   4.110   5.902   0.833  0.8271 -0.2875 -0.5613
   17CHTO   O26 7044   3.972   5.863   0.988 -0.1766  0.3876  0.2937
   17CHTO   C41 7045   4.005   5.982   1.063 -0.6692 -0.1811  0.1021
   17CHTO   H83 7046   4.113   5.997   1.051 -0.5124  0.3925  2.0790
   17CHTO   C52 7047   3.959   5.959   1.209  0.3576 -0.4386  0.2404
   17CHTO   O35 7048   3.803   5.934   1.209 -0.2217 -0.3949 -0.0951
   17CHTO   H71 7049   3.772   5.871   1.147 -0.8470  1.9909 -2.3074
   17CHTO   O28 7050   3.993   5.731   0.792 -0.3387  0.4500  0.2195
   17CHTO   C42 7051   4.118   5.650   0.785  0.6320  0.1293  0.0002
   17CHTO   H84 7052   4.092   5.547   0.763  1.8395 -0.3618  0.8198
   17CHTO   C44 7053   4.190   5.634   0.926 -0.2289 -0.2040  1.3148
   17CHTO   H86 7054   4.236   5.731   0.948  0.2335  0.0872 -0.8670
   17CHTO   O32 7055   4.082   5.597   1.013  0.1648  0.2462 -0.6312
   17CHTO   H69 7056   4.121   5.605   1.098 -0.4064  0.0713 -0.3487
   17CHTO   C48 7057   4.302   5.524   0.916 -0.1424 -0.3844 -0.2054
   17CHTO   H90 7058   4.269   5.429   0.874 -0.9030 -0.1854 -0.0501
   17CHTO    N9 7059   4.376   5.494   1.046  0.5570  0.2626 -0.2109
   17CHTO   H77 7060   4.369   5.390   1.074  2.1762  0.2593  0.2207
   17CHTO   H78 7061   4.331   5.547   1.128 -1.3851  0.5269 -1.4059
   17CHTO   C51 7062   4.410   5.581   0.806 -0.1097  0.7779  0.2318
   17CHTO   H93 7063   4.432   5.680   0.843 -3.7750  0.8776  2.4164
   17CHTO   O30 7064   4.335   5.584   0.684  0.0012 -0.1334 -0.0918
   17CHTO   C46 7065   4.228   5.696   0.675 -0.0391  0.6297 -0.8276
   17CHTO   H88 7066   4.272   5.787   0.716  0.2651  1.1078 -2.2030
   17CHTO   C53 7067   4.167   5.700   0.531  0.4738 -0.1499  0.0553
   17CHTO   O72 7068   4.255   5.765   0.443  0.2960 -0.1917  0.3767
   17CHTO  H199 7069   4.285   5.849   0.473  0.6259  0.0715 -0.6275
   17CHTO   O22 7070   4.528   5.502   0.785 -0.4107  0.1229  0.0954
   17CHTO   C31 7071   4.620   5.547   0.679  0.1788 -0.3691 -0.0712
   17CHTO   H59 7072   4.718   5.496   0.696  0.7606  1.0635  1.0059
   17CHTO   C29 7073   4.568   5.504   0.535 -0.3908 -0.3478  0.1739
   17CHTO   H57 7074   4.470   5.552   0.523 -1.9560 -3.5843 -0.7185
   17CHTO   O21 7075   4.533   5.360   0.529  0.2802 -0.1694 -0.1791
   17CHTO   H37 7076   4.609   5.312   0.504  0.5896 -0.2106  0.8147
   17CHTO   C27 7077   4.667   5.552   0.422 -0.1797 -0.2938 -0.0598
   17CHTO   H55 7078   4.763   5.500   0.428 -0.1602 -0.3336 -0.7025
   17CHTO    N5 7079   4.605   5.520   0.290 -0.6921 -0.2214  0.3721
   17CHTO   H43 7080   4.666   5.565   0.212  1.2147 -0.1982  1.8331
   17CHTO   H44 7081   4.505   5.559   0.281 -0.7576 -0.6144 -0.7911
   17CHTO   C25 7082   4.706   5.701   0.444  0.5797  0.2982  0.3672
   17CHTO   H53 7083   4.615   5.760   0.424 -1.1247 -2.0346  1.0039
   17CHTO   O17 7084   4.753   5.734   0.574 -0.5158 -0.3700 -0.3914
   17CHTO   C32 7085   4.663   5.697   0.681  0.5985  0.0523 -0.1709
   17CHTO   H60 7086   4.573   5.758   0.670  0.6473  0.3892  1.1337
   17CHTO   C36 7087   4.740   5.722   0.818  0.6533 -0.6659 -0.2018
   17CHTO   O25 7088   4.811   5.846   0.830  0.1909  1.1893  0.0738
   17CHTO   H40 7089   4.767   5.915   0.784  0.9267  0.8509 -1.1417
   17CHTO   O15 7090   4.817   5.740   0.342  0.2422 -0.0805  0.0675
   17CHTO   C19 7091   4.865   5.876   0.331 -0.1846 -0.0436 -0.5804
   17CHTO   H47 7092   4.919   5.874   0.236  0.5758  0.1497 -0.1573
   17CHTO   C20 7093   4.748   5.988   0.312  0.3179  1.0188 -0.3035
   17CHTO   H48 7094   4.680   5.991   0.399  1.9489 -1.2803  1.1173
   17CHTO   O19 7095   4.679   5.942   0.192  0.3631 -0.5666  0.8198
   17CHTO   H35 7096   4.614   6.009   0.176 -0.2144 -1.1931  0.5309
   17CHTO   C21 7097   4.810   6.128   0.295  0.4542  0.3680 -0.2303
   17CHTO   H49 7098   4.858   6.136   0.197 -0.3227  2.2777 -0.4916
   17CHTO    N4 7099   4.711   6.233   0.296 -1.1465  0.7575  0.5516
   17CHTO   H41 7100   4.697   6.273   0.395  2.0046 -1.0291  1.7746
   17CHTO   H42 7101   4.615   6.197   0.260 -0.4165  0.8735 -1.5615
   17CHTO   C22 7102   4.922   6.158   0.398  0.9940 -0.0769 -0.5623
   17CHTO   H50 7103   4.884   6.156   0.500 -0.8763 -0.3844 -1.2514
   17CHTO   O14 7104   5.023   6.060   0.395 -0.7412  0.4670  0.2749
   17CHTO   C23 7105   4.973   5.928   0.432  0.5052 -0.9166  0.0862
   17CHTO   H51 7106   4.937   5.923   0.535 -0.0792 -0.9391 -0.1182
   17CHTO   C34 7107   5.090   5.827   0.449 -0.2382  0.5011  0.2627
   17CHTO   O23 7108   5.053   5.701   0.505 -0.4731 -0.1423 -0.1051
   17CHTO   H38 7109   5.131   5.652   0.522 -0.4227 -1.5687 -3.8818
   17CHTO   O16 7110   4.996   6.276   0.365 -0.9555 -0.4706  0.3117
   17CHTO   C24 7111   5.020   6.373   0.481 -0.0901  0.0350  0.5687
   17CHTO   H52 7112   5.044   6.321   0.574  2.3419  2.1607  1.1755
   17CHTO   C26 7113   4.905   6.472   0.505  0.0146 -0.2445 -0.0290
   17CHTO   H54 7114   4.879   6.520   0.408 -1.4808 -0.3870  0.2905
   17CHTO   O20 7115   4.795   6.395   0.549 -0.5931 -0.4248 -0.2469
   17CHTO   H36 7116   4.724   6.457   0.549  0.7317  1.1259 -1.0843
   17CHTO   C30 7117   4.952   6.583   0.605 -0.6282  0.3129 -0.3620
   17CHTO   H58 7118   4.961   6.534   0.704 -1.6491 -0.4063 -0.6135
   17CHTO    N6 7119   4.852   6.687   0.625 -0.0949  1.0654  0.1031
   17CHTO   H45 7120   4.893   6.787   0.636  1.7958  0.1953  1.1071
   17CHTO   H46 7121   4.803   6.667   0.719 -1.0888  0.3665 -0.5528
   17CHTO   C33 7122   5.091   6.643   0.562  0.0783 -0.1387  0.4663
   17CHTO   H61 7123   5.082   6.688   0.462  1.1991 -2.2221 -0.6132
   17CHTO   O18 7124   5.184   6.536   0.551 -0.0539 -0.3487  0.1087
   17CHTO   C28 7125   5.153   6.445   0.446 -0.5591  0.3647 -0.2435
   17CHTO   H56 7126   5.138   6.501   0.354  0.6578 -1.1932 -1.4337
   17CHTO   C35 7127   5.269   6.353   0.400  0.5578  0.4140 -0.2992
   17CHTO   O24 7128   5.385   6.431   0.352  0.7318 -0.0869 -0.0281
   17CHTO   H39 7129   5.437   6.465   0.422 -0.6315 -1.4039  1.6755
   17CHTO    O9 7130   5.141   6.748   0.651  0.3185 -0.7293  0.1887
   17CHTO   C13 7131   5.236   6.862   0.598  0.0104  0.2232  0.4188
   17CHTO   H26 7132   5.282   6.814   0.509 -1.6225 -0.8069  0.1170
   17CHTO   C11 7133   5.346   6.912   0.703  0.0805  0.6567  0.3789
   17CHTO   H24 7134   5.405   6.825   0.735 -0.8093  0.2146  0.8694
   17CHTO    O8 7135   5.273   6.946   0.825  0.2244  0.5069  0.0344
   17CHTO    H3 7136   5.318   6.924   0.904  2.6900  0.9129 -1.1857
   17CHTO    C9 7137   5.438   7.022   0.638  0.1088  0.5793  0.0325
   17CHTO   H22 7138   5.467   6.966   0.547 -0.5585 -0.0047  0.1733
   17CHTO    N2 7139   5.569   7.048   0.711  0.0461  0.6816 -0.0388
   17CHTO   H10 7140   5.619   6.953   0.721 -1.0063  0.2424  1.1626
   17CHTO   H11 7141   5.538   7.087   0.807  1.4802 -0.1835  0.7840
   17CHTO    C7 7142   5.346   7.141   0.609  0.4583 -0.7264  0.2082
   17CHTO   H20 7143   5.414   7.213   0.559 -0.6786  1.5381  1.8385
   17CHTO    O4 7144   5.233   7.106   0.524  0.5594  0.6548 -0.1044
   17CHTO   C14 7145   5.152   6.988   0.548 -0.7307  0.5840 -0.9977
   17CHTO   H27 7146   5.106   6.966   0.449 -1.6573 -2.4978  0.0311
   17CHTO   C18 7147   5.039   7.011   0.641 -0.2555 -0.2024  0.1252
   17CHTO   O13 7148   4.946   7.107   0.589 -0.3026 -0.3223  0.1950
   17CHTO    H7 7149   4.874   7.106   0.649  0.2253  0.7131  0.8549
   17CHTO    O2 7150   5.293   7.222   0.747  0.0823  0.2104  0.2956
   17CHTO    C1 7151   5.228   7.350   0.748 -0.5932  0.2335 -0.1140
   17CHTO   H14 7152   5.151   7.344   0.668  0.0848  0.2010 -0.7652
   17CHTO    C2 7153   5.329   7.469   0.715 -0.1996 -0.1657 -0.8640
   17CHTO   H15 7154   5.421   7.445   0.770 -1.3905 -1.4109  0.6545
   17CHTO    O6 7155   5.346   7.476   0.571 -0.5818  0.3411 -0.1447
   17CHTO    H1 7156   5.288   7.413   0.533 -0.5741 -0.2756  0.8265
   17CHTO    C3 7157   5.271   7.615   0.765  0.7473 -0.0168  0.4912
   17CHTO   H16 7158   5.208   7.659   0.686 -0.2385  1.2802  1.9618
   17CHTO    N1 7159   5.393   7.709   0.773 -0.0078  0.0228 -0.1275
   17CHTO    H8 7160   5.384   7.798   0.712 -0.2699 -0.6834 -1.1415
   17CHTO    H9 7161   5.412   7.735   0.876 -2.1824 -1.4509  0.6786
   17CHTO    C4 7162   5.190   7.607   0.895  1.1923 -0.2241  0.8116
   17CHTO   H17 7163   5.258   7.596   0.979 -0.6624 -0.9261  2.2695
   17CHTO    O1 7164   5.093   7.497   0.892  0.1013 -0.1535  0.0711
   17CHTO    C5 7165   5.159   7.366   0.884 -0.2311 -0.9024  0.2334
   17CHTO   H18 7166   5.233   7.371   0.964 -1.4818  1.1285  1.3077
   17CHTO   C16 7167   5.056   7.262   0.934 -0.2632 -0.1370  0.2910
   17CHTO   O11 7168   5.012   7.304   1.065  0.0525 -0.2886  0.2779
   17CHTO    H5 7169   4.967   7.386   1.055 -0.0496 -0.3031  0.6073
   17CHTO    O3 7170   5.106   7.728   0.922 -0.8693 -0.0621 -0.5877
   17CHTO    C6 7171   5.084   7.783   1.062  0.3074  0.3859  0.2126
   17CHTO   H19 7172   4.995   7.847   1.068 -0.7158 -0.9837 -0.0219
   17CHTO    C8 7173   5.072   7.680   1.181 -0.3242  0.6370  0.3143
   17CHTO   H21 7174   5.161   7.617   1.179 -0.0620  0.9685  1.0839
   17CHTO    O7 7175   4.946   7.606   1.166 -0.0757 -0.0659  0.0437
   17CHTO    H2 7176   4.935   7.538   1.102  1.3821 -0.7032  0.4443
   17CHTO   C12 7177   5.072   7.752   1.318  0.5257 -0.3271 -0.0128
   17CHTO   H25 7178   4.973   7.801   1.330  0.0832 -1.8277  2.8852
   17CHTO    N3 7179   5.081   7.653   1.433  0.4845 -0.2524 -0.5769
   17CHTO   H12 7180   5.050   7.720   1.511 -4.3651  1.4885 -3.8302
   17CHTO   H13 7181   5.183   7.620   1.447  0.5212 -0.1643 -0.6433
   17CHTO   C15 7182   5.188   7.857   1.323  0.7828 -0.1852 -0.7811
   17CHTO   H28 7183   5.285   7.807   1.323  2.0555  2.2023  0.6314
   17CHTO   O10 7184   5.173   7.946   1.451 -0.0220  0.2342  0.0669
   17CHTO    H4 7185   5.258   7.984   1.467 -0.6209  1.3487  0.6701
   17CHTO    O5 7186   5.186   7.948   1.209  0.2375  0.1716  0.7857
   17CHTO   C10 7187   5.205   7.878   1.082 -0.0304  0.5824 -0.4996
   17CHTO   H23 7188   5.300   7.826   1.092 -0.6011 -0.5999 -1.1610
   17CHTO   C17 7189   5.213   7.979   0.966 -0.9129 -0.3287  0.2633
   17CHTO   O12 7190   5.345   8.030   0.973  0.2879  0.3322 -0.2228
   17CHTO    H6 7191   5.347   8.106   0.919 -1.8964  0.8627  0.3894
   18CHTO  H203 7192   6.448   8.019   1.668  0.4163 -0.8569  1.8455
   18CHTO   O82 7193   6.515   7.964   1.630  0.1631 -0.1444  0.3262
   18CHTO  C123 7194   6.483   7.928   1.493 -0.1837 -0.7107 -0.2057
   18CHTO  H227 7195   6.375   7.934   1.471  0.4136 -0.4326 -3.2039
   18CHTO   O77 7196   6.559   8.027   1.415  0.1537  0.4226 -0.3312
   18CHTO  C118 7197   6.541   8.025   1.272 -0.1214  0.0310  0.8669
   18CHTO  H222 7198   6.437   8.028   1.238 -0.2904  0.5084  1.4235
   18CHTO  C125 7199   6.622   8.153   1.217 -0.0436  0.2657  0.1320
   18CHTO   O84 7200   6.753   8.181   1.280 -0.3427 -0.6488 -0.5644
   18CHTO  H205 7201   6.795   8.263   1.261 -0.8249  0.1035  1.4949
   18CHTO  C114 7202   6.608   7.895   1.220  0.0857 -0.2139 -0.6823
   18CHTO  H218 7203   6.710   7.891   1.256 -0.2528  0.8937  0.4491
   18CHTO  C116 7204   6.527   7.779   1.290 -0.0237 -0.1753  0.1303
   18CHTO  H220 7205   6.424   7.782   1.248 -1.0069  2.6310  2.5978
   18CHTO   O79 7206   6.588   7.655   1.239 -0.0799 -0.3791  0.0719
   18CHTO  H201 7207   6.576   7.580   1.294  3.0793 -0.7793  0.2846
   18CHTO  C120 7208   6.528   7.783   1.446 -0.4183 -0.1311  0.1307
   18CHTO  H224 7209   6.633   7.772   1.481  0.4689  2.5327 -1.5702
   18CHTO   N21 7210   6.442   7.672   1.507  0.6255 -0.2177  0.1660
   18CHTO  H211 7211   6.498   7.579   1.502 -0.0923 -0.6435  0.0012
   18CHTO  H212 7212   6.421   7.684   1.612 -2.0248  2.7039 -0.6318
   18CHTO   O75 7213   6.590   7.890   1.080  0.1913  0.3313  0.4762
   18CHTO  C112 7214   6.727   7.894   0.992  0.2185 -0.2438  0.5185
   18CHTO  H216 7215   6.788   7.817   1.042  1.8533 -0.6315 -1.9796
   18CHTO   O73 7216   6.790   8.024   0.996 -0.1380 -0.3582  0.2064
   18CHTO  C113 7217   6.910   8.040   0.920  0.4963  0.2691 -0.1942
   18CHTO  H217 7218   6.989   7.973   0.957  1.0328  0.1652 -1.5026
   18CHTO  C124 7219   6.977   8.177   0.958 -0.3927  0.3162 -0.2310
   18CHTO   O83 7220   6.893   8.288   0.914 -0.0646 -0.3890 -0.2928
   18CHTO  H204 7221   6.883   8.288   0.821  1.7392 -0.3302 -0.4949
   18CHTO  C109 7222   6.872   8.021   0.777  0.2789  0.0074  0.3460
   18CHTO  H213 7223   6.787   8.088   0.756  1.3198  1.0675 -0.5790
   18CHTO  C110 7224   6.816   7.887   0.751  0.4211  0.8480  0.8796
   18CHTO  H214 7225   6.894   7.812   0.754 -0.4737 -0.2730 -1.7543
   18CHTO   O78 7226   6.767   7.883   0.611  0.3408  0.1705 -0.7424
   18CHTO  H200 7227   6.787   7.807   0.560 -1.0059 -1.5528  1.2057
   18CHTO  C111 7228   6.700   7.851   0.845 -0.3189  0.1030  0.2831
   18CHTO  H215 7229   6.615   7.914   0.814  0.8914  2.1269  1.0323
   18CHTO   N19 7230   6.656   7.710   0.850 -0.6049 -0.5328 -0.3621
   18CHTO  H207 7231   6.721   7.650   0.911 -1.5204 -0.6037  0.5412
   18CHTO  H208 7232   6.651   7.676   0.747 -2.2649  1.0028 -0.8205
   18CHTO   O74 7233   6.982   8.055   0.693  0.4048  0.3013  0.4277
   18CHTO  C115 7234   6.926   8.125   0.546 -0.0509  0.5840 -1.4968
   18CHTO  H219 7235   6.856   8.060   0.493 -0.3087  0.8169 -1.4420
   18CHTO   O76 7236   6.861   8.246   0.567  0.0257  0.2336 -0.6447
   18CHTO  C122 7237   6.793   8.313   0.456 -0.3969 -0.4054  0.0599
   18CHTO  H226 7238   6.783   8.415   0.493  0.4304 -0.0689 -0.6090
   18CHTO  C126 7239   6.647   8.265   0.423 -0.4424 -0.5928  0.6367
   18CHTO   O85 7240   6.639   8.127   0.411  0.3250 -0.5455  0.4548
   18CHTO  H206 7241   6.553   8.089   0.416 -0.1953  0.8899  3.7237
   18CHTO  C121 7242   6.889   8.323   0.325  0.0124 -0.1360 -0.5108
   18CHTO  H225 7243   6.824   8.338   0.236 -1.7971 -2.4089  0.3680
   18CHTO   O81 7244   6.980   8.432   0.345  0.1284 -0.4072  0.2191
   18CHTO  H202 7245   6.983   8.472   0.260 -2.5159 -1.1828 -0.2807
   18CHTO  C119 7246   6.972   8.194   0.302 -0.8232 -0.1548 -0.4150
   18CHTO  H223 7247   6.906   8.117   0.264  3.4698 -2.7559 -2.9385
   18CHTO  C117 7248   7.042   8.140   0.437 -0.4928 -0.4519  0.5294
   18CHTO  H221 7249   7.116   8.204   0.486 -0.4984 -1.4000  1.8104
   18CHTO   N20 7250   7.112   8.008   0.418  0.4038 -0.0891  0.2702
   18CHTO  H209 7251   7.043   7.925   0.413  0.7531 -0.4669  1.4261
   18CHTO  H210 7252   7.186   8.023   0.341  0.5025 -0.7473  0.2312
   18CHTO   O80 7253   7.085   8.209   0.165  0.1109 -0.2360  0.4198
   18CHTO  C103 7254   7.048   8.122   0.019 -0.1608 -0.5031  0.0269
   18CHTO  H190 7255   7.120   8.150  -0.058 -0.8167 -1.0554 -0.8073
   18CHTO  C101 7256   7.034   7.967   0.040 -0.2171  0.4545  0.1772
   18CHTO  H188 7257   6.977   7.942   0.130  2.2862 -1.3861  1.3118
   18CHTO   O68 7258   7.180   7.911   0.064 -0.3806  0.3222 -0.0718
   18CHTO  H168 7259   7.171   7.829   0.108  1.0403  0.2843  0.1541
   18CHTO   C99 7260   6.955   7.897  -0.075 -0.4229  0.9658  0.0872
   18CHTO  H186 7261   7.016   7.914  -0.166 -0.0355 -1.1545 -0.0897
   18CHTO   N17 7262   6.949   7.746  -0.056  0.1703  0.3281  0.1649
   18CHTO  H174 7263   7.047   7.708  -0.027 -1.0253 -2.0592  1.2590
   18CHTO  H175 7264   6.923   7.715  -0.156  3.0797  1.5569 -1.0325
   18CHTO   C97 7265   6.821   7.970  -0.090 -0.0620 -0.5695  0.2360
   18CHTO  H184 7266   6.772   7.969   0.009  1.4738  2.1680  1.0541
   18CHTO   O64 7267   6.854   8.105  -0.128  0.4428  0.5354  0.5631
   18CHTO  C104 7268   6.912   8.183  -0.027 -0.3075 -0.5512  0.2341
   18CHTO  H191 7269   6.845   8.194   0.058  2.2696  1.1051  2.1310
   18CHTO  C108 7270   6.934   8.328  -0.081 -0.1380 -0.0692 -0.0518
   18CHTO   O71 7271   6.805   8.385  -0.132  0.3337 -0.1819 -0.6877
   18CHTO  H171 7272   6.837   8.467  -0.165 -0.5853  2.2226  3.9363
   18CHTO   O62 7273   6.722   7.928  -0.187  0.0650  0.1607 -0.5760
   18CHTO   C91 7274   6.582   7.914  -0.150  0.0878  0.3829  0.2955
   18CHTO  H178 7275   6.586   7.863  -0.053 -2.7970 -2.0651 -0.7783
   18CHTO   C92 7276   6.515   7.807  -0.243 -0.1176 -0.8048 -0.2596
   18CHTO  H179 7277   6.523   7.835  -0.349  0.3662  0.2336  0.0387
   18CHTO   O66 7278   6.590   7.682  -0.237 -0.1616 -0.1442 -0.0257
   18CHTO  H166 7279   6.598   7.647  -0.324 -0.1581  1.5755 -0.7471
   18CHTO   C93 7280   6.355   7.795  -0.214 -0.7503  0.0450  0.0807
   18CHTO  H180 7281   6.348   7.769  -0.107 -0.7610 -1.7163 -0.3373
   18CHTO   N16 7282   6.287   7.688  -0.287  0.5184 -0.0039 -0.5818
   18CHTO  H172 7283   6.195   7.664  -0.237 -1.1268 -0.2993 -3.6682
   18CHTO  H173 7284   6.263   7.719  -0.387  0.8482  1.1066 -0.3266
   18CHTO   C94 7285   6.294   7.934  -0.232  0.4034 -0.7405  0.2245
   18CHTO  H181 7286   6.297   7.966  -0.336 -0.7037 -0.1446  0.3699
   18CHTO   O61 7287   6.355   8.027  -0.145 -0.0694  0.1589  0.1504
   18CHTO   C95 7288   6.497   8.048  -0.147  0.6535  0.3533  0.3874
   18CHTO  H182 7289   6.518   8.105  -0.238  1.7092 -0.5306  0.0727
   18CHTO  C106 7290   6.544   8.137  -0.023 -0.3522 -0.4401  0.1403
   18CHTO   O69 7291   6.506   8.086   0.103  0.3145  0.2835  0.1375
   18CHTO  H169 7292   6.583   8.040   0.131  0.6259 -0.5587 -1.9928
   18CHTO   O63 7293   6.137   7.943  -0.201 -0.1882  0.0682 -0.4521
   18CHTO   C96 7294   6.084   8.112  -0.219  0.3804  0.0194  0.1220
   18CHTO  H183 7295   6.164   8.179  -0.250  1.2359 -0.9117  0.2675
   18CHTO   C98 7296   6.031   8.166  -0.085 -0.3374  0.1461 -0.2325
   18CHTO  H185 7297   5.939   8.112  -0.060 -0.7600  0.7469 -0.4966
   18CHTO   O67 7298   6.125   8.141   0.024 -0.2815  0.2379  0.3109
   18CHTO  H167 7299   6.200   8.192   0.001 -1.7128  2.1130 -0.3143
   18CHTO  C102 7300   5.989   8.321  -0.099 -0.1481 -0.3458  0.3648
   18CHTO  H189 7301   6.082   8.376  -0.120  0.5280 -1.7913 -0.5604
   18CHTO   N18 7302   5.938   8.380   0.027  0.6487  0.0668 -0.9370
   18CHTO  H176 7303   5.936   8.302   0.102  0.3130 -1.1549 -2.2073
   18CHTO  H177 7304   5.998   8.466   0.055  0.0461 -0.2810  1.5780
   18CHTO  C105 7305   5.892   8.337  -0.216  0.0562 -0.9500 -0.2488
   18CHTO  H192 7306   5.795   8.302  -0.181 -0.6891  0.0357 -1.2673
   18CHTO   O65 7307   5.932   8.260  -0.333 -0.0795  0.7370 -0.0976
   18CHTO  C100 7308   5.972   8.122  -0.325 -0.6330  0.1481  0.1355
   18CHTO  H187 7309   5.897   8.048  -0.294 -0.7128  0.7581  1.4568
   18CHTO  C107 7310   6.015   8.066  -0.460 -0.3437 -0.2456 -0.0134
   18CHTO   O70 7311   5.895   8.050  -0.540  0.5055  0.3569 -0.0817
   18CHTO  H170 7312   5.835   8.112  -0.504 -2.3595 -2.2998 -0.0872
   18CHTO   O57 7313   5.890   8.499  -0.241  0.3496  0.7534  0.3985
   18CHTO   C85 7314   5.792   8.587  -0.299  0.3964  0.0299 -0.5094
   18CHTO  H157 7315   5.848   8.681  -0.314 -0.6262  0.7981  0.4308
   18CHTO   C83 7316   5.676   8.614  -0.192  0.2081  0.0670 -0.1691
   18CHTO  H155 7317   5.717   8.680  -0.115 -0.4773 -0.7564  0.9302
   18CHTO   O56 7318   5.633   8.485  -0.134 -0.1863  0.3637 -0.0706
   18CHTO  H135 7319   5.684   8.475  -0.056 -0.3232  1.3999  0.1601
   18CHTO   C81 7320   5.560   8.688  -0.260 -1.1963 -0.6604  0.0673
   18CHTO  H153 7321   5.606   8.781  -0.294 -0.1429 -1.3398 -0.4027
   18CHTO   N14 7322   5.457   8.735  -0.164  0.2414 -0.0407  0.1971
   18CHTO  H141 7323   5.393   8.654  -0.137  0.1986  0.1298  0.5982
   18CHTO  H142 7324   5.502   8.781  -0.078  0.3491 -0.3588  0.3123
   18CHTO   C79 7325   5.503   8.605  -0.380 -0.3864  0.0700  1.0795
   18CHTO  H151 7326   5.425   8.663  -0.429  0.5785 -2.3149 -3.5070
   18CHTO   O52 7327   5.608   8.590  -0.487 -0.2322  0.1985 -0.7482
   18CHTO   C86 7328   5.730   8.531  -0.435 -0.1159  0.3661  0.1995
   18CHTO  H158 7329   5.702   8.423  -0.429 -1.6821  0.7417 -0.1253
   18CHTO   C90 7330   5.836   8.544  -0.547 -0.2188  0.5198 -0.3053
   18CHTO   O60 7331   5.846   8.678  -0.595  0.2058  0.7283  0.1558
   18CHTO  H138 7332   5.906   8.730  -0.544  1.6189  0.0145 -0.7417
   18CHTO   O50 7333   5.457   8.479  -0.335 -0.1312 -0.1262  0.0527
   18CHTO   C73 7334   5.375   8.364  -0.363 -0.1311 -0.6713  0.4466
   18CHTO  H145 7335   5.397   8.331  -0.466  3.4649  0.7371  0.7079
   18CHTO   C74 7336   5.220   8.399  -0.342 -0.0906 -0.2736  0.2500
   18CHTO  H146 7337   5.205   8.485  -0.409  1.1880 -0.0244  0.2604
   18CHTO   O54 7338   5.136   8.283  -0.378  0.2786 -0.0764 -0.2038
   18CHTO  H133 7339   5.152   8.203  -0.332 -0.4784 -0.3114 -0.3536
   18CHTO   C75 7340   5.214   8.441  -0.189  0.5679  0.1599 -0.0951
   18CHTO  H147 7341   5.266   8.538  -0.189  0.3885  0.2654  1.1315
   18CHTO   N13 7342   5.079   8.484  -0.145  0.1342 -0.0553  0.3896
   18CHTO  H139 7343   5.058   8.439  -0.049 -1.3340  0.2401  0.2204
   18CHTO  H140 7344   5.002   8.452  -0.214 -0.8409  0.7202  1.0886
   18CHTO   C76 7345   5.280   8.335  -0.093  0.1725 -0.2004 -0.7006
   18CHTO  H148 7346   5.220   8.248  -0.067  3.6278 -2.4551 -0.0482
   18CHTO   O49 7347   5.407   8.284  -0.136 -0.3181 -0.0381  0.0787
   18CHTO   C77 7348   5.416   8.248  -0.274 -0.3542  0.6081  0.3727
   18CHTO  H149 7349   5.355   8.161  -0.296 -0.0128  0.5185 -0.2121
   18CHTO   C88 7350   5.554   8.199  -0.313  0.0101 -0.0006 -0.3184
   18CHTO   O58 7351   5.537   8.120  -0.440 -0.0742  0.4807 -0.1097
   18CHTO  H136 7352   5.459   8.068  -0.436  1.0017 -1.1311  0.8411
   18CHTO   O51 7353   5.313   8.429   0.029  0.5333 -0.0753 -0.1324
   18CHTO   C78 7354   5.316   8.365   0.162  0.2647 -0.1239 -0.2299
   18CHTO  H150 7355   5.299   8.256   0.150  1.1523 -0.1038 -1.8138
   18CHTO   C80 7356   5.217   8.439   0.252  0.1495  0.5355  0.4624
   18CHTO  H152 7357   5.248   8.546   0.255  2.8567 -0.1217 -1.6602
   18CHTO   O55 7358   5.083   8.428   0.195 -0.7042  0.1863  0.2833
   18CHTO  H134 7359   5.022   8.486   0.237 -0.1784  0.7755  0.2341
   18CHTO   C84 7360   5.225   8.395   0.405  0.5106 -0.1963  0.1892
   18CHTO  H156 7361   5.190   8.291   0.402 -0.8571  0.2453  0.4598
   18CHTO   N15 7362   5.134   8.473   0.494 -0.2417 -0.7255 -0.5006
   18CHTO  H143 7363   5.028   8.473   0.478 -0.1756  1.6841 -1.2077
   18CHTO  H144 7364   5.152   8.465   0.599  3.0599  1.8532 -0.7833
   18CHTO   C87 7365   5.375   8.394   0.450 -0.2926  0.5620  0.2442
   18CHTO  H159 7366   5.403   8.500   0.445  1.0755  0.2603  1.0460
   18CHTO   O53 7367   5.447   8.312   0.356 -0.2287  0.8286  0.1948
   18CHTO   C82 7368   5.455   8.373   0.225 -0.2451  0.3762 -0.3423
   18CHTO  H154 7369   5.479   8.479   0.240 -0.0244  0.4004 -0.8679
   18CHTO   C89 7370   5.572   8.318   0.141  0.0696 -0.2419  0.9585
   18CHTO   O59 7371   5.578   8.178   0.141 -0.5077 -0.2891  0.3010
   18CHTO  H137 7372   5.640   8.136   0.085 -1.6082  0.9666 -1.9111
   18CHTO   O45 7373   5.404   8.345   0.599  0.2326 -0.1060  0.3325
   18CHTO   C67 7374   5.536   8.390   0.642  0.2021  1.1096  0.2192
   18CHTO  H124 7375   5.604   8.396   0.558  0.3790 -0.4638  0.2490
   18CHTO   C65 7376   5.538   8.536   0.704  0.6753  0.8182  0.2111
   18CHTO  H122 7377   5.435   8.557   0.733  0.3585  2.8632 -2.2052
   18CHTO   O44 7378   5.564   8.618   0.586  0.1497 -0.2238  0.5039
   18CHTO  H102 7379   5.649   8.601   0.552 -0.9642 -1.5219 -1.8031
   18CHTO   C63 7380   5.652   8.555   0.820 -0.0633  1.0426  0.4562
   18CHTO  H120 7381   5.619   8.517   0.916 -0.2007  0.5989  0.2336
   18CHTO   N11 7382   5.677   8.693   0.865  0.1741  0.5206 -0.2890
   18CHTO  H108 7383   5.751   8.733   0.799  1.3512 -2.1025 -0.6546
   18CHTO  H109 7384   5.583   8.741   0.885  0.7250  0.7640  1.8815
   18CHTO   C61 7385   5.782   8.465   0.788  0.0920  0.1821  0.2312
   18CHTO  H118 7386   5.847   8.476   0.876 -0.5027  1.6077  0.4988
   18CHTO   O40 7387   5.745   8.322   0.778  0.3429 -0.4364 -0.0428
   18CHTO   C68 7388   5.602   8.287   0.751  0.1679  0.0968  0.0501
   18CHTO  H125 7389   5.549   8.288   0.848  0.0377 -2.8998  0.0365
   18CHTO   C72 7390   5.594   8.152   0.696 -0.3009  0.0329  0.3657
   18CHTO   O48 7391   5.604   8.061   0.807 -0.0178 -0.3051  0.4409
   18CHTO  H105 7392   5.523   8.037   0.848  0.4013 -0.5672  1.1418
   18CHTO   O38 7393   5.852   8.502   0.666 -0.4275  0.5994  0.4102
   18CHTO   C55 7394   5.991   8.461   0.652 -0.4459  0.0157 -0.1152
   18CHTO  H112 7395   6.013   8.370   0.709  0.0528  0.2822  0.1257
   18CHTO   C56 7396   6.100   8.579   0.683 -0.2101 -0.6947  0.3652
   18CHTO  H113 7397   6.098   8.657   0.605 -0.5169 -0.2174  0.8435
   18CHTO   O42 7398   6.062   8.648   0.802 -0.4251 -0.0703 -0.1673
   18CHTO  H100 7399   6.126   8.715   0.817 -0.2931 -0.3859  0.6560
   18CHTO   C57 7400   6.251   8.530   0.684  0.3188 -0.3058 -0.7615
   18CHTO  H114 7401   6.253   8.469   0.773  2.2137  2.0892  0.9111
   18CHTO   N10 7402   6.355   8.634   0.698 -0.3486 -0.1537 -0.3164
   18CHTO  H106 7403   6.438   8.590   0.752 -0.6927 -0.9563 -0.4353
   18CHTO  H107 7404   6.324   8.723   0.749  0.2401 -0.3469  0.3916
   18CHTO   C58 7405   6.282   8.448   0.558  0.0745  0.8905  0.3219
   18CHTO  H115 7406   6.324   8.517   0.482  1.6614 -0.3249  0.0608
   18CHTO   O37 7407   6.174   8.369   0.506  0.2647 -0.2932 -0.1712
   18CHTO   C59 7408   6.032   8.414   0.508 -0.8422  0.0920  0.0736
   18CHTO  H116 7409   6.027   8.501   0.442 -1.1701 -2.0121 -2.7695
   18CHTO   C70 7410   5.932   8.299   0.472 -0.1404  0.0101  0.4182
   18CHTO   O46 7411   5.952   8.254   0.341  0.0313  1.1386  0.0343
   18CHTO  H103 7412   5.905   8.175   0.327 -0.0352  1.2508 -0.3938
   18CHTO   O39 7413   6.387   8.332   0.589  0.4360  0.0904 -0.3607
   18CHTO   C60 7414   6.347   8.226   0.688 -0.1528 -0.0006  0.3803
   18CHTO  H117 7415   6.269   8.261   0.755  0.2610  0.1598  0.7846
   18CHTO   C62 7416   6.288   8.100   0.624  0.1152  0.0535  0.4487
   18CHTO  H119 7417   6.210   8.139   0.555 -0.6495 -0.7839  0.8151
   18CHTO   O43 7418   6.384   8.021   0.545 -0.6044 -0.3212  0.0520
   18CHTO  H101 7419   6.459   8.065   0.511 -1.5328  1.7809  0.6171
   18CHTO   C66 7420   6.213   8.005   0.742 -0.2333  0.0835 -0.0052
   18CHTO  H123 7421   6.140   8.062   0.800  0.3358 -0.0522  0.8437
   18CHTO   N12 7422   6.140   7.893   0.686 -0.0506  0.1217 -0.3567
   18CHTO  H110 7423   6.212   7.836   0.629  1.3452 -0.7020  2.1254
   18CHTO  H111 7424   6.072   7.931   0.612 -0.3399  2.9913  1.2696
   18CHTO   C69 7425   6.319   7.967   0.852  0.0969 -0.0699  0.1886
   18CHTO  H126 7426   6.387   7.891   0.809  2.3673  0.6982  2.3021
   18CHTO   O41 7427   6.391   8.094   0.908  0.3708 -0.6076 -0.0031
   18CHTO   C64 7428   6.465   8.174   0.780 -0.0024  0.1084 -0.0522
   18CHTO  H121 7429   6.525   8.102   0.721 -1.9393 -1.4245 -0.1626
   18CHTO   C71 7430   6.551   8.292   0.836  0.0088  0.0985 -0.7502
   18CHTO   O47 7431   6.613   8.368   0.742  0.1481 -0.3516 -0.0346
   18CHTO  H104 7432   6.695   8.331   0.718  0.5044  1.5047 -1.8091
   18CHTO   O34 7433   6.232   7.898   0.992 -0.1252  0.3417  0.1790
   18CHTO   C49 7434   6.180   7.925   1.115  0.1651 -0.3920 -0.4025
   18CHTO   H91 7435   6.255   7.897   1.190  0.7827  0.9702 -0.4836
   18CHTO   C47 7436   6.055   7.846   1.147  0.5300 -0.6419 -0.3938
   18CHTO   H89 7437   6.019   7.865   1.250  0.6035 -2.2769 -0.0507
   18CHTO   O33 7438   6.090   7.708   1.140 -0.5572 -0.9553 -0.2079
   18CHTO   H70 7439   6.032   7.666   1.079 -0.6571 -1.3657  0.1725
   18CHTO   C45 7440   5.938   7.895   1.040  0.1466 -0.0087 -0.3408
   18CHTO   H87 7441   5.977   7.891   0.937  2.2510 -2.6264  0.5129
   18CHTO    N8 7442   5.815   7.817   1.053 -0.2742 -0.4610 -0.0611
   18CHTO   H75 7443   5.760   7.852   1.139  1.1852  0.1290  0.6665
   18CHTO   H76 7444   5.836   7.711   1.061  0.3856 -0.2872  0.5323
   18CHTO   C43 7445   5.921   8.053   1.067 -0.9009  0.3040  0.2433
   18CHTO   H85 7446   5.848   8.090   0.996 -3.1146  0.4980  2.5517
   18CHTO   O29 7447   6.045   8.129   1.062  0.0179  0.5354 -0.0109
   18CHTO   C50 7448   6.156   8.081   1.130  0.6037 -0.0307  0.7024
   18CHTO   H92 7449   6.236   8.133   1.076 -0.0224  0.1068 -0.1067
   18CHTO   C54 7450   6.173   8.126   1.274 -0.3249 -0.1740  0.4915
   18CHTO   O36 7451   6.081   8.081   1.372  0.5004 -0.6172  0.0977
   18CHTO   H72 7452   6.001   8.112   1.333  2.3207  1.9864 -1.7620
   18CHTO   O27 7453   5.859   8.076   1.196 -0.2220  0.1205 -0.3015
   18CHTO   C37 7454   5.781   8.177   1.258 -0.6902  0.1150  0.2106
   18CHTO   H79 7455   5.806   8.173   1.365 -0.2556  0.0503  0.1070
   18CHTO   C38 7456   5.814   8.327   1.218 -0.0515  1.4423 -0.8046
   18CHTO   H80 7457   5.799   8.337   1.110 -0.2425 -1.2951 -1.0614
   18CHTO   O31 7458   5.949   8.357   1.247  0.0058  0.3208 -0.0626
   18CHTO   H68 7459   5.960   8.390   1.335  1.3340 -1.7940  0.6028
   18CHTO   C39 7460   5.702   8.421   1.282 -0.3915 -0.3206 -0.8623
   18CHTO   H81 7461   5.706   8.429   1.391 -1.2950  0.5604 -0.8878
   18CHTO    N7 7462   5.722   8.561   1.239 -0.2805  0.3023  0.1422
   18CHTO   H73 7463   5.738   8.550   1.133  0.3251  2.4032 -0.0056
   18CHTO   H74 7464   5.812   8.606   1.278  0.9387  0.4603 -2.7517
   18CHTO   C40 7465   5.562   8.368   1.253 -0.0914 -0.3068 -0.4939
   18CHTO   H82 7466   5.550   8.369   1.145 -0.5518  1.7565 -0.4409
   18CHTO   O26 7467   5.549   8.237   1.310 -0.6063  0.0500 -0.2433
   18CHTO   C41 7468   5.630   8.141   1.231  0.3682  0.8237  0.2326
   18CHTO   H83 7469   5.610   8.133   1.123 -4.2740  1.3344  0.9500
   18CHTO   C52 7470   5.592   7.998   1.290  0.3247 -0.9366  0.5979
   18CHTO   O35 7471   5.459   7.988   1.295 -0.0985  0.3383  0.5980
   18CHTO   H71 7472   5.426   7.935   1.225  2.1633  0.1793 -0.4140
   18CHTO   O28 7473   5.457   8.456   1.306  0.6640 -0.1865 -0.0737
   18CHTO   C42 7474   5.316   8.416   1.302  0.2103 -0.4414  0.1226
   18CHTO   H84 7475   5.262   8.509   1.317  0.5368 -0.5244  1.9220
   18CHTO   C44 7476   5.264   8.328   1.418 -0.0513  0.5650 -0.5829
   18CHTO   H86 7477   5.305   8.227   1.412 -0.2027  0.4338  0.5032
   18CHTO   O32 7478   5.319   8.389   1.538 -0.1937  0.0976 -0.0384
   18CHTO   H69 7479   5.286   8.357   1.620 -1.3578 -1.7092 -1.1613
   18CHTO   C48 7480   5.105   8.326   1.414  0.1356 -0.2547  0.0070
   18CHTO   H90 7481   5.073   8.430   1.425  0.4622 -0.2112  0.5920
   18CHTO    N9 7482   5.042   8.245   1.522 -1.3843  0.0109 -0.8985
   18CHTO   H77 7483   4.975   8.305   1.583 -0.0778 -0.0177  0.5907
   18CHTO   H78 7484   4.987   8.169   1.469 -0.7573 -0.6840 -0.5545
   18CHTO   C51 7485   5.056   8.293   1.269 -0.1583  0.3795 -0.4390
   18CHTO   H93 7486   5.074   8.186   1.261 -0.4397  0.4191 -1.6087
   18CHTO   O30 7487   5.128   8.367   1.172  0.8302  0.0473  0.4507
   18CHTO   C46 7488   5.270   8.354   1.161 -0.4097  0.3224 -0.7447
   18CHTO   H88 7489   5.306   8.252   1.148 -1.5646 -0.3607  1.2065
   18CHTO   C53 7490   5.310   8.436   1.036  0.5759  0.2561  0.5536
   18CHTO   O72 7491   5.278   8.354   0.919  0.7796 -0.0482 -0.1585
   18CHTO  H199 7492   5.322   8.391   0.845  2.8910 -0.6943  0.7497
   18CHTO   O22 7493   4.916   8.313   1.247  0.4949  0.0695 -0.2920
   18CHTO   C31 7494   4.842   8.299   1.123 -0.9595  0.0797 -0.2830
   18CHTO   H59 7495   4.735   8.312   1.150 -1.0182  1.0274 -0.9809
   18CHTO   C29 7496   4.868   8.404   1.017  0.0981  0.0094  0.3789
   18CHTO   H57 7497   4.969   8.387   0.977 -0.1809  0.5477 -0.6008
   18CHTO   O21 7498   4.867   8.529   1.087  0.1352 -0.1256 -0.1164
   18CHTO   H37 7499   4.902   8.600   1.037  0.8974 -0.3724  0.0591
   18CHTO   C27 7500   4.765   8.391   0.900  0.4227  0.3104 -0.6437
   18CHTO   H55 7501   4.664   8.394   0.943  0.2810 -0.7184 -0.8951
   18CHTO    N5 7502   4.774   8.498   0.798  0.1820 -1.1306 -0.0211
   18CHTO   H43 7503   4.861   8.474   0.738  1.2827 -0.2465  1.1900
   18CHTO   H44 7504   4.774   8.592   0.850 -0.6111 -1.2688  0.2440
   18CHTO   C25 7505   4.790   8.256   0.830  0.0158  0.4746 -0.0595
   18CHTO   H53 7506   4.894   8.260   0.795  0.4045 -3.1976  0.4467
   18CHTO   O17 7507   4.782   8.149   0.927 -0.1345 -0.2897 -0.3656
   18CHTO   C32 7508   4.853   8.162   1.057 -0.1327 -0.2641 -0.3918
   18CHTO   H60 7509   4.957   8.133   1.045  0.4223  1.8016 -0.7418
   18CHTO   C36 7510   4.786   8.052   1.141  0.4892 -0.6124 -0.0980
   18CHTO   O25 7511   4.840   8.037   1.272 -0.1493 -0.3715 -0.1391
   18CHTO   H40 7512   4.779   7.986   1.322  2.1296 -0.4589  2.7371
   18CHTO   O15 7513   4.692   8.227   0.690 -0.2624 -0.0589 -0.0659
   18CHTO   C19 7514   4.733   8.146   0.575  0.1532 -0.8621  0.2909
   18CHTO   H47 7515   4.645   8.083   0.556  0.2921 -1.1915  0.7416
   18CHTO   C20 7516   4.763   8.240   0.442  0.0818  0.0928 -1.3671
   18CHTO   H48 7517   4.841   8.315   0.459  0.5865 -0.4920 -1.0919
   18CHTO   O19 7518   4.641   8.302   0.412 -0.0051  0.0710 -0.0903
   18CHTO   H35 7519   4.605   8.365   0.471 -1.3140 -1.2610  0.5677
   18CHTO   C21 7520   4.812   8.149   0.323  0.4549  0.3893 -0.5397
   18CHTO   H49 7521   4.735   8.076   0.299 -0.0218  0.4196  0.8707
   18CHTO    N4 7522   4.832   8.230   0.201 -0.2071 -0.1326  0.3801
   18CHTO   H41 7523   4.770   8.192   0.120  1.4184 -1.2582 -0.3515
   18CHTO   H42 7524   4.933   8.239   0.165 -0.0868 -2.6557 -0.0245
   18CHTO   C22 7525   4.935   8.072   0.366 -0.2319  0.3464  0.1579
   18CHTO   H50 7526   5.005   8.150   0.396 -0.8174  0.5791  0.9170
   18CHTO   O14 7527   4.903   7.992   0.474  0.1671 -0.0803  0.0302
   18CHTO   C23 7528   4.861   8.058   0.598 -0.3846 -0.1045 -0.1539
   18CHTO   H51 7529   4.941   8.115   0.647 -1.1143  0.3339  0.5442
   18CHTO   C34 7530   4.831   7.947   0.702  0.2782  0.0852 -0.4397
   18CHTO   O23 7531   4.952   7.886   0.753 -0.2290  0.2988  0.1965
   18CHTO   H38 7532   5.011   7.952   0.782 -1.8422  1.1962  1.5155
   18CHTO   O16 7533   4.995   7.985   0.263 -0.1845 -0.0471  0.3286
   18CHTO   C24 7534   5.140   8.017   0.216  0.4985  0.1900  0.3833
   18CHTO   H52 7535   5.163   8.123   0.221  2.6091  0.0465 -4.0944
   18CHTO   C26 7536   5.141   7.983   0.064  0.4660  0.3752  0.5812
   18CHTO   H54 7537   5.089   7.885   0.052  3.3591 -1.0102 -1.1812
   18CHTO   O20 7538   5.057   8.077  -0.006  0.7387  0.1170 -0.3039
   18CHTO   H36 7539   5.010   8.021  -0.065 -0.5964 -0.4731  1.2792
   18CHTO   C30 7540   5.285   7.979   0.001  0.6245 -0.4960 -1.1282
   18CHTO   H58 7541   5.330   8.079  -0.009 -3.6930  2.2791  4.1023
   18CHTO    N6 7542   5.284   7.905  -0.129 -0.5896  0.1515  0.1646
   18CHTO   H45 7543   5.214   7.947  -0.200 -0.2590 -1.8825 -1.4250
   18CHTO   H46 7544   5.254   7.803  -0.109  2.9029 -1.4337 -2.1501
   18CHTO   C33 7545   5.387   7.903   0.088  0.1626  0.1346 -0.4435
   18CHTO   H61 7546   5.355   7.799   0.103  0.5242  0.2955  1.5495
   18CHTO   O18 7547   5.378   7.974   0.212  0.2157  0.3222 -0.0897
   18CHTO   C28 7548   5.260   7.941   0.287 -0.9261 -0.2119 -0.4103
   18CHTO   H56 7549   5.245   7.834   0.275 -0.3502 -0.2090 -1.1907
   18CHTO   C35 7550   5.273   7.980   0.437 -0.4692 -0.1890  0.8996
   18CHTO   O24 7551   5.398   7.932   0.494  0.1045  0.5151 -0.2338
   18CHTO   H39 7552   5.406   7.956   0.584 -1.8690  2.0296 -0.4425
   18CHTO    O9 7553   5.522   7.895   0.045 -0.8225  0.0304 -0.1019
   18CHTO   C13 7554   5.611   7.797   0.147 -0.0819  0.2812 -0.2577
   18CHTO   H26 7555   5.548   7.738   0.217  0.9023  2.0414  2.1723
   18CHTO   C11 7556   5.703   7.902   0.226 -0.4855 -0.0919  0.0164
   18CHTO   H24 7557   5.640   7.972   0.283  0.3754  1.1296 -0.4883
   18CHTO    O8 7558   5.793   7.986   0.150  0.1231 -0.0905 -0.4162
   18CHTO    H3 7559   5.764   8.014   0.065  1.1070 -0.5854 -0.9273
   18CHTO    C9 7560   5.780   7.806   0.325  0.4440 -0.1608  0.0644
   18CHTO   H22 7561   5.702   7.748   0.375 -1.1185  0.4549 -1.6364
   18CHTO    N2 7562   5.851   7.876   0.436  0.2306  0.3218  0.0282
   18CHTO   H10 7563   5.831   7.827   0.531 -0.0979  1.3434  0.4921
   18CHTO   H11 7564   5.823   7.980   0.443  0.1208  0.5195 -2.9119
   18CHTO    C7 7565   5.882   7.715   0.241 -0.0646  0.1842 -0.3245
   18CHTO   H20 7566   5.935   7.642   0.306  0.3844  0.5490 -0.2713
   18CHTO    O4 7567   5.811   7.635   0.148 -0.0360 -0.0598 -0.5648
   18CHTO   C14 7568   5.706   7.691   0.071  0.0319 -0.2858  0.6325
   18CHTO   H27 7569   5.642   7.603   0.050 -1.5248  0.9509  0.1051
   18CHTO   C18 7570   5.751   7.742  -0.069 -0.3194  0.0076 -0.0104
   18CHTO   O13 7571   5.798   7.643  -0.148 -0.3411 -0.1989  0.1035
   18CHTO    H7 7572   5.787   7.662  -0.239 -1.4394 -0.5765  0.1509
   18CHTO    O2 7573   5.989   7.781   0.168  0.2641  0.3390  0.5201
   18CHTO    C1 7574   6.115   7.719   0.125 -0.4846 -0.5916 -0.1489
   18CHTO   H14 7575   6.152   7.765   0.031  0.3290  0.2864  0.5975
   18CHTO    C2 7576   6.112   7.564   0.099 -0.4225 -0.0168  0.2748
   18CHTO   H15 7577   6.063   7.519   0.187 -0.8329  0.0734  0.0925
   18CHTO    O6 7578   6.035   7.549  -0.021 -0.3877  0.3873  0.3210
   18CHTO    H1 7579   5.951   7.514  -0.001 -0.5899  1.0996  0.7335
   18CHTO    C3 7580   6.262   7.505   0.089 -1.0753 -0.0114  0.3880
   18CHTO   H16 7581   6.316   7.544   0.002  1.8738 -0.0636  2.1382
   18CHTO    N1 7582   6.260   7.353   0.078 -0.3218  0.2465  0.3586
   18CHTO    H8 7583   6.346   7.303   0.121 -1.8680 -0.5744  2.6012
   18CHTO    H9 7584   6.238   7.317  -0.021  2.4725  0.3704 -0.3569
   18CHTO    C4 7585   6.342   7.553   0.217  0.4551  0.3919 -0.5297
   18CHTO   H17 7586   6.296   7.508   0.305 -0.1629  0.9479 -0.5552
   18CHTO    O1 7587   6.333   7.697   0.227 -0.5328 -0.0784 -0.0823
   18CHTO    C5 7588   6.209   7.756   0.238 -0.1704  0.0486  0.7385
   18CHTO   H18 7589   6.167   7.719   0.332  1.0780  1.9407  2.0940
   18CHTO   C16 7590   6.236   7.908   0.251 -0.1186 -0.0416  0.6071
   18CHTO   O11 7591   6.128   7.996   0.285  0.4842  0.1897 -0.5909
   18CHTO    H5 7592   6.163   8.059   0.345 -0.0549 -1.9879  2.1483
   18CHTO    O3 7593   6.486   7.526   0.208  0.0586 -0.4868  0.1395
   18CHTO    C6 7594   6.570   7.551   0.327  0.3736  0.1448  0.0069
   18CHTO   H19 7595   6.515   7.594   0.410  1.0326 -2.6110  1.9562
   18CHTO    C8 7596   6.610   7.415   0.388 -0.4959 -0.3244  0.0188
   18CHTO   H21 7597   6.672   7.362   0.316  1.5761  2.3014 -0.2058
   18CHTO    O7 7598   6.491   7.347   0.409 -0.6218 -0.1415  0.3752
   18CHTO    H2 7599   6.490   7.275   0.348  1.8244  1.1065 -1.1980
   18CHTO   C12 7600   6.702   7.428   0.519 -0.3245 -0.0095  0.7337
   18CHTO   H25 7601   6.640   7.475   0.598 -1.0389 -0.8270  0.6673
   18CHTO    N3 7602   6.757   7.292   0.559 -0.2415 -0.6415  0.3807
   18CHTO   H12 7603   6.854   7.308   0.604 -1.7834  3.3744  2.5461
   18CHTO   H13 7604   6.690   7.258   0.637 -0.6539 -0.6835  0.0148
   18CHTO   C15 7605   6.810   7.536   0.488 -0.3353  0.2551 -0.0380
   18CHTO   H28 7606   6.882   7.496   0.416 -1.6316 -0.9728 -0.6808
   18CHTO   O10 7607   6.871   7.581   0.620 -0.3553  0.2439 -0.2152
   18CHTO    H4 7608   6.895   7.508   0.675  0.2296  0.0694 -0.6875
   18CHTO    O5 7609   6.752   7.659   0.433 -0.0414 -0.1077  0.3330
   18CHTO   C10 7610   6.695   7.636   0.309  0.0062  0.0513  0.4303
   18CHTO   H23 7611   6.768   7.594   0.240 -0.0507  0.8282 -0.1111
   18CHTO   C17 7612   6.664   7.763   0.231 -0.0016 -0.1966 -0.0181
   18CHTO   O12 7613   6.595   7.872   0.309 -0.2929 -0.9356 -0.5410
   18CHTO    H6 7614   6.537   7.934   0.269  1.2980  2.0151  1.4748
   19CHTO  H203 7615   5.065   9.626   2.148  0.1742 -0.8767 -2.4434
   19CHTO   O82 7616   5.063   9.542   2.190 -0.0967 -0.1454 -0.9523
   19CHTO  C123 7617   5.031   9.430   2.105 -0.0582  0.0170 -0.1611
   19CHTO  H227 7618   4.948   9.458   2.039  1.0089  3.3751 -0.1523
   19CHTO   O77 7619   5.150   9.408   2.027  0.0544 -0.0270 -0.2320
   19CHTO  C118 7620   5.141   9.294   1.942 -0.1477  0.3960 -0.0500
   19CHTO  H222 7621   5.059   9.301   1.869 -0.4865 -0.1139  0.2793
   19CHTO  C125 7622   5.278   9.278   1.872  0.3105  0.7285 -0.4134
   19CHTO   O84 7623   5.304   9.390   1.793  0.3139  0.3036  0.1658
   19CHTO  H205 7624   5.353   9.357   1.720 -1.6366 -0.7575 -0.7304
   19CHTO  C114 7625   5.125   9.169   2.024 -0.3312 -0.2212 -0.3877
   19CHTO  H218 7626   5.216   9.154   2.083 -0.2560 -0.0862 -0.4694
   19CHTO  C116 7627   5.003   9.180   2.113 -0.0755  0.4669  0.2994
   19CHTO  H220 7628   4.915   9.171   2.046  0.9521 -1.3332 -0.8549
   19CHTO   O79 7629   4.991   9.055   2.183 -0.2408 -0.0856 -0.1996
   19CHTO  H201 7630   4.919   9.005   2.151  0.1969 -0.1661 -1.0722
   19CHTO  C120 7631   5.000   9.308   2.199  0.0950  0.0630  0.1908
   19CHTO  H224 7632   5.082   9.285   2.271 -2.0480 -1.1778  2.3218
   19CHTO   N21 7633   4.871   9.321   2.275  0.1205 -0.2177  0.7266
   19CHTO  H211 7634   4.888   9.370   2.369  1.0347  3.8537 -1.4365
   19CHTO  H212 7635   4.798   9.365   2.208  0.8290 -1.6894 -1.0542
   19CHTO   O75 7636   5.114   9.055   1.932 -0.1407  0.3151 -0.9076
   19CHTO  C112 7637   5.187   8.931   1.971  0.2483  0.8781  0.8292
   19CHTO  H216 7638   5.205   8.926   2.079  1.1678  1.5048  0.7091
   19CHTO   O73 7639   5.317   8.929   1.894  0.2761  0.1065 -0.3432
   19CHTO  C113 7640   5.406   8.834   1.956  0.0736 -0.0812  0.4652
   19CHTO  H217 7641   5.406   8.854   2.066 -0.7826  1.4080  0.2142
   19CHTO  C124 7642   5.535   8.877   1.888 -0.0985 -0.8621  0.3386
   19CHTO   O83 7643   5.654   8.843   1.954 -0.2301  0.6270  0.0712
   19CHTO  H204 7644   5.634   8.770   2.010  0.3483  1.1231  0.9325
   19CHTO  C109 7645   5.356   8.692   1.919 -0.2075  0.1960 -0.0781
   19CHTO  H213 7646   5.355   8.685   1.809 -2.2320  1.0367 -0.1319
   19CHTO  C110 7647   5.207   8.671   1.975 -0.4674 -1.2035  0.4595
   19CHTO  H214 7648   5.214   8.672   2.084  1.1494  1.3751  0.3752
   19CHTO   O78 7649   5.162   8.543   1.920  0.0054  0.7089  0.3440
   19CHTO  H200 7650   5.118   8.553   1.838 -0.4481  1.8290  0.7105
   19CHTO  C111 7651   5.115   8.788   1.928  0.3657 -0.3849 -0.0407
   19CHTO  H215 7652   5.108   8.783   1.818 -1.3456  0.6181  0.0061
   19CHTO   N19 7653   4.975   8.782   1.986 -0.1295  0.5397  0.1108
   19CHTO  H207 7654   4.922   8.863   1.939 -0.4937 -1.0967 -2.3946
   19CHTO  H208 7655   4.980   8.802   2.092 -2.2900  0.3462  0.2892
   19CHTO   O74 7656   5.459   8.596   1.973  0.0541 -0.7875  0.1494
   19CHTO  C115 7657   5.486   8.485   1.852  0.1989 -0.9114  0.1358
   19CHTO  H219 7658   5.394   8.463   1.799 -0.9919  2.3435  0.7521
   19CHTO   O76 7659   5.583   8.552   1.735 -0.0533  0.4480 -0.4022
   19CHTO  C122 7660   5.720   8.526   1.768 -0.6796 -0.2773  1.0759
   19CHTO  H226 7661   5.730   8.559   1.871 -2.4163 -1.6065  1.6870
   19CHTO  C126 7662   5.810   8.622   1.685 -0.7471  0.3871 -0.5947
   19CHTO   O85 7663   5.822   8.761   1.723 -0.0636  0.3772  0.1135
   19CHTO  H206 7664   5.747   8.793   1.770 -0.3337  0.8327 -0.6206
   19CHTO  C121 7665   5.749   8.373   1.748 -0.1511 -0.3511  0.8287
   19CHTO  H225 7666   5.780   8.336   1.648  1.4464 -2.2275  1.9703
   19CHTO   O81 7667   5.869   8.337   1.813  0.1374  0.0426 -0.6345
   19CHTO  H202 7668   5.852   8.337   1.905  0.3942 -0.8573 -0.5816
   19CHTO  C119 7669   5.633   8.287   1.798  0.0609  0.5730 -0.4621
   19CHTO  H223 7670   5.569   8.286   1.710 -1.0354  0.7755  0.3106
   19CHTO  C117 7671   5.543   8.341   1.910 -1.1102 -0.9469  0.1277
   19CHTO  H221 7672   5.578   8.371   2.010  2.4166  1.7101 -1.7720
   19CHTO   N20 7673   5.430   8.253   1.937  0.4354  0.1195 -0.0181
   19CHTO  H209 7674   5.338   8.298   1.971  0.1758 -0.9257  0.7156
   19CHTO  H210 7675   5.454   8.178   2.011 -2.6444 -1.0419 -0.1240
   19CHTO   O80 7676   5.668   8.118   1.812  0.0843 -0.6841  0.0041
   19CHTO  C103 7677   5.700   8.046   1.696 -0.3723 -0.4194 -0.3924
   19CHTO  H190 7678   5.683   8.092   1.599  3.6612 -0.3727 -1.1448
   19CHTO  C101 7679   5.850   8.002   1.697 -0.5495  0.1441  0.7991
   19CHTO  H188 7680   5.868   7.944   1.787  1.7377 -1.4334 -0.6409
   19CHTO   O68 7681   5.954   8.126   1.678 -0.5696  0.3517 -0.3913
   19CHTO  H168 7682   6.040   8.087   1.676 -1.2366 -1.1132 -2.8426
   19CHTO   C99 7683   5.878   7.891   1.577  0.4718 -0.6936  0.4983
   19CHTO  H186 7684   5.882   7.937   1.476  1.3735 -0.6238  0.5668
   19CHTO   N17 7685   6.014   7.827   1.583  0.4141  0.6415 -0.2372
   19CHTO  H174 7686   6.062   7.881   1.664  1.3609  1.0290 -1.0529
   19CHTO  H175 7687   6.068   7.828   1.490 -2.2568  1.4627 -1.8100
   19CHTO   C97 7688   5.763   7.789   1.569 -1.0040  0.5405  0.8478
   19CHTO  H184 7689   5.775   7.708   1.643  1.4090  0.2648  0.1922
   19CHTO   O64 7690   5.627   7.840   1.571 -0.1970  0.1920  0.4932
   19CHTO  C104 7691   5.605   7.910   1.691  0.0688  0.6845  0.3673
   19CHTO  H191 7692   5.627   7.852   1.781  1.8790 -0.1183 -0.5672
   19CHTO  C108 7693   5.454   7.945   1.703  0.0383 -0.2477 -0.0325
   19CHTO   O71 7694   5.410   8.044   1.619  0.1757 -0.4753 -0.0595
   19CHTO  H171 7695   5.404   8.016   1.530  1.7850  1.4095 -0.7792
   19CHTO   O62 7696   5.773   7.718   1.438 -0.2506  0.4017  0.1586
   19CHTO   C91 7697   5.732   7.580   1.434  0.5957 -1.0797  0.4260
   19CHTO  H178 7698   5.665   7.573   1.519 -0.8892  1.3023 -0.5081
   19CHTO   C92 7699   5.845   7.477   1.451  0.3497  0.3479 -0.4171
   19CHTO  H179 7700   5.921   7.498   1.373  0.6063 -0.2495 -0.3272
   19CHTO   O66 7701   5.904   7.487   1.582 -0.1059  0.0414  0.1284
   19CHTO  H166 7702   5.980   7.432   1.582 -1.7736 -2.4616 -3.5918
   19CHTO   C93 7703   5.803   7.326   1.433 -0.2453 -0.4170 -0.2599
   19CHTO  H180 7704   5.760   7.303   1.532  0.0411 -1.0212 -0.2727
   19CHTO   N16 7705   5.917   7.232   1.423 -0.3594  1.0272  0.3381
   19CHTO  H172 7706   5.893   7.127   1.415  1.9379  0.3926  1.6303
   19CHTO  H173 7707   5.989   7.236   1.503 -3.2122  0.8248  3.0451
   19CHTO   C94 7708   5.705   7.305   1.317  0.3917  0.6595  0.6972
   19CHTO  H181 7709   5.757   7.297   1.221 -0.7150  0.8978  0.0655
   19CHTO   O61 7710   5.599   7.413   1.318  0.2336 -0.0126  0.6606
   19CHTO   C95 7711   5.645   7.543   1.310  0.6584  0.3101  0.1867
   19CHTO  H182 7712   5.695   7.569   1.217  2.0751  0.6843  1.0418
   19CHTO  C106 7713   5.513   7.637   1.311  0.0050 -0.4858 -0.5556
   19CHTO   O69 7714   5.421   7.599   1.207  0.5322  0.0674 -0.6713
   19CHTO  H169 7715   5.336   7.638   1.210 -1.4367 -4.0590  0.1666
   19CHTO   O63 7716   5.618   7.183   1.334 -0.2848 -0.1145  0.2092
   19CHTO   C96 7717   5.558   7.122   1.202  1.1464 -0.2015 -0.0148
   19CHTO  H183 7718   5.645   7.116   1.137  2.1688 -1.4251  1.4253
   19CHTO   C98 7719   5.439   7.208   1.141 -0.2262 -0.3792  0.2356
   19CHTO  H185 7720   5.473   7.309   1.117  0.1466 -0.7461 -0.8213
   19CHTO   O67 7721   5.425   7.150   1.009  0.5423 -0.0950 -0.2475
   19CHTO  H167 7722   5.491   7.187   0.954  2.4603 -1.6656  0.9618
   19CHTO  C102 7723   5.298   7.193   1.217  0.0201  0.2151  0.0549
   19CHTO  H189 7724   5.220   7.194   1.139 -0.7793  2.0732  0.8587
   19CHTO   N18 7725   5.262   7.304   1.305  0.0609  0.1830  0.2342
   19CHTO  H176 7726   5.298   7.283   1.405  1.6208  1.1981 -0.1028
   19CHTO  H177 7727   5.155   7.313   1.317  0.1863  1.1545  0.6856
   19CHTO  C105 7728   5.282   7.049   1.278  0.1700 -0.4899  0.4080
   19CHTO  H192 7729   5.288   7.057   1.387 -2.6866  1.0101  0.5037
   19CHTO   O65 7730   5.373   6.955   1.216  0.1805  0.0942 -0.1549
   19CHTO  C100 7731   5.515   6.974   1.226 -0.2793 -0.2806  0.1132
   19CHTO  H187 7732   5.535   6.954   1.332 -1.0039 -0.4687  0.2229
   19CHTO  C107 7733   5.592   6.874   1.132 -0.7043  0.1275 -0.2039
   19CHTO   O70 7734   5.730   6.867   1.163  0.3688 -0.3811  0.0004
   19CHTO  H170 7735   5.741   6.803   1.230  1.2698  0.7684  0.9781
   19CHTO   O57 7736   5.138   7.004   1.230 -0.2686 -0.3599  0.5832
   19CHTO   C85 7737   5.052   6.932   1.314  0.0507  0.0131  0.1306
   19CHTO  H157 7738   5.104   6.932   1.412 -0.7093  0.2471  0.5390
   19CHTO   C83 7739   5.049   6.781   1.260 -0.6330  0.0952 -0.5098
   19CHTO  H155 7740   5.149   6.739   1.258 -1.1762 -1.1275 -2.5363
   19CHTO   O56 7741   5.020   6.793   1.120 -0.0452 -0.3650 -0.3711
   19CHTO  H135 7742   5.081   6.858   1.092  2.3358 -2.4489 -0.2476
   19CHTO   C81 7743   4.958   6.697   1.347 -0.0099  0.0195 -0.7477
   19CHTO  H153 7744   4.995   6.700   1.450  1.2709 -0.5406 -1.1764
   19CHTO   N14 7745   4.969   6.555   1.315  0.3926 -0.1909  0.2637
   19CHTO  H141 7746   5.072   6.528   1.328  0.1728 -1.3616 -0.2571
   19CHTO  H142 7747   4.940   6.539   1.213 -1.0334 -0.4915  0.7014
   19CHTO   C79 7748   4.814   6.759   1.350 -0.3182 -0.4242 -0.1957
   19CHTO  H151 7749   4.756   6.700   1.421 -2.1321 -0.0219 -1.3059
   19CHTO   O52 7750   4.820   6.886   1.415 -0.0809  0.0675  0.4527
   19CHTO   C86 7751   4.900   6.985   1.334 -1.0628 -0.1469 -0.2081
   19CHTO  H158 7752   4.850   7.000   1.236 -2.1196 -1.7753  0.0658
   19CHTO   C90 7753   4.914   7.131   1.396  0.8539 -0.4344  0.3083
   19CHTO   O60 7754   4.792   7.209   1.415  0.1874  0.0576 -0.1558
   19CHTO  H138 7755   4.814   7.299   1.431  2.1117 -0.5234  0.6461
   19CHTO   O50 7756   4.748   6.769   1.228 -0.1591 -0.0910  0.5693
   19CHTO   C73 7757   4.611   6.768   1.169  0.0471 -0.1057 -0.6202
   19CHTO  H145 7758   4.569   6.667   1.165  0.7724 -0.3582 -2.1179
   19CHTO   C74 7759   4.616   6.818   1.023  0.4288  0.1489  0.3315
   19CHTO  H146 7760   4.673   6.754   0.954  2.9224  0.6196  1.8798
   19CHTO   O54 7761   4.483   6.812   0.970 -0.3439  0.0881  0.4851
   19CHTO  H133 7762   4.457   6.728   0.938  0.3338 -1.2074  3.2630
   19CHTO   C75 7763   4.667   6.964   1.019 -0.4933  0.0926 -0.1479
   19CHTO  H147 7764   4.768   6.969   1.062 -0.6024 -0.7671  0.2031
   19CHTO   N13 7765   4.686   7.030   0.886  0.3083 -0.0699 -0.1080
   19CHTO  H139 7766   4.790   7.048   0.866 -0.1519  2.7996 -0.1177
   19CHTO  H140 7767   4.634   7.125   0.883  0.0958 -0.0673  2.8789
   19CHTO   C76 7768   4.576   7.059   1.123  0.6701 -0.8101 -0.7716
   19CHTO  H148 7769   4.482   7.079   1.072  0.7959 -0.1668 -0.7635
   19CHTO   O49 7770   4.561   6.996   1.253  0.6726 -0.0750  0.9627
   19CHTO   C77 7771   4.505   6.861   1.246 -0.1600  0.1689  0.3010
   19CHTO  H149 7772   4.411   6.855   1.190 -1.2236  2.2428  1.8071
   19CHTO   C88 7773   4.463   6.816   1.387 -0.9106  0.5514  0.4440
   19CHTO   O58 7774   4.409   6.680   1.383  0.3741 -0.2087  0.2275
   19CHTO  H136 7775   4.479   6.618   1.384 -0.3317 -1.0304 -0.3122
   19CHTO   O51 7776   4.664   7.199   1.160 -0.6447 -0.0983 -0.2540
   19CHTO   C78 7777   4.582   7.340   1.112 -0.6613 -0.3041  0.0978
   19CHTO  H150 7778   4.501   7.313   1.041 -0.7510  0.1349  0.0345
   19CHTO   C80 7779   4.677   7.444   1.044  0.5391 -0.2848  0.1975
   19CHTO  H152 7780   4.753   7.475   1.118 -0.3623  0.3634  0.8720
   19CHTO   O55 7781   4.727   7.376   0.923  0.0447  0.1849 -0.1695
   19CHTO  H134 7782   4.781   7.440   0.881  0.3831  0.4502  0.6478
   19CHTO   C84 7783   4.601   7.582   1.003 -0.0947 -0.1099  1.1119
   19CHTO  H156 7784   4.529   7.560   0.924  0.5189 -1.3170  0.8673
   19CHTO   N15 7785   4.686   7.689   0.948 -0.1303 -0.0504  0.6596
   19CHTO  H143 7786   4.758   7.715   1.022 -0.6047  0.7914  0.8340
   19CHTO  H144 7787   4.737   7.654   0.861 -1.0138 -0.4052  0.2758
   19CHTO   C87 7788   4.517   7.634   1.121 -0.1419 -0.1412 -0.5964
   19CHTO  H159 7789   4.584   7.660   1.203 -0.2647  0.8838 -0.8108
   19CHTO   O53 7790   4.431   7.515   1.178  1.1251  0.0146  0.3509
   19CHTO   C82 7791   4.514   7.403   1.229  0.3231 -1.2061  0.3750
   19CHTO  H154 7792   4.589   7.451   1.291  1.7708 -0.4070 -1.9250
   19CHTO   C89 7793   4.427   7.317   1.317  0.3225  0.1349  0.3160
   19CHTO   O59 7794   4.322   7.264   1.242 -0.5765 -0.1380 -0.2019
   19CHTO  H137 7795   4.299   7.187   1.290 -1.2987 -1.3756 -2.4328
   19CHTO   O45 7796   4.408   7.753   1.080  0.5311  0.6997 -0.8642
   19CHTO   C67 7797   4.350   7.811   1.201  0.2389  0.2070 -0.2062
   19CHTO  H124 7798   4.329   7.741   1.282 -1.0515  2.2827  1.3099
   19CHTO   C65 7799   4.452   7.906   1.261 -0.5044  0.1906  0.0267
   19CHTO  H122 7800   4.497   7.957   1.176  1.3616  0.3534  1.0863
   19CHTO   O44 7801   4.551   7.831   1.332  0.1982 -0.5605 -0.4514
   19CHTO  H102 7802   4.609   7.893   1.371 -0.6136 -0.2090  0.2350
   19CHTO   C63 7803   4.390   8.028   1.337 -0.0525  0.1986  0.0840
   19CHTO  H120 7804   4.357   8.102   1.264  0.0842 -1.1044 -1.3218
   19CHTO   N11 7805   4.496   8.107   1.415  0.7150  0.1746  0.6227
   19CHTO  H108 7806   4.459   8.205   1.435 -0.6798  0.1200 -1.4704
   19CHTO  H109 7807   4.592   8.117   1.367 -0.1468 -1.0540 -1.4533
   19CHTO   C61 7808   4.255   7.995   1.407  0.4761 -0.3702  0.2066
   19CHTO  H118 7809   4.213   8.087   1.450  0.4553  0.2308 -1.0919
   19CHTO   O40 7810   4.157   7.944   1.309  0.6581  0.1511 -0.0867
   19CHTO   C68 7811   4.212   7.887   1.178 -0.4098 -0.1666 -0.1307
   19CHTO  H125 7812   4.222   7.970   1.105 -1.6134 -0.3160 -0.4828
   19CHTO   C72 7813   4.107   7.788   1.116  0.0700  0.0489 -0.2984
   19CHTO   O48 7814   3.980   7.848   1.103  0.4569  0.4444  0.1220
   19CHTO  H105 7815   3.936   7.817   1.026 -0.8624  2.8314 -0.1175
   19CHTO   O38 7816   4.283   7.910   1.521  0.2255 -0.6259  0.1037
   19CHTO   C55 7817   4.162   7.857   1.574 -0.7759 -0.0239  0.2578
   19CHTO  H112 7818   4.080   7.842   1.501 -1.3117 -0.9966  1.0536
   19CHTO   C56 7819   4.111   7.931   1.709  0.3576  0.2441  0.5819
   19CHTO  H113 7820   4.194   7.924   1.781 -1.6952  0.9772  3.0917
   19CHTO   O42 7821   4.091   8.072   1.682  0.1098  0.2521  0.1468
   19CHTO  H100 7822   4.096   8.117   1.764  0.5933  1.2391 -0.4099
   19CHTO   C57 7823   3.984   7.861   1.770 -1.0259  0.4432  0.1252
   19CHTO  H114 7824   3.899   7.884   1.706  0.1423  4.7957  0.0054
   19CHTO   N10 7825   3.944   7.916   1.904 -0.1282 -0.1067 -0.1951
   19CHTO  H106 7826   4.035   7.952   1.949  0.1232  0.8499 -1.4519
   19CHTO  H107 7827   3.874   7.998   1.894 -0.2957 -0.4061 -1.6997
   19CHTO   C58 7828   4.003   7.705   1.787 -0.2815  0.0954  0.1542
   19CHTO  H115 7829   4.070   7.689   1.874  1.7881  2.7258 -0.8874
   19CHTO   O37 7830   4.056   7.653   1.662 -0.0380  0.0517 -0.3359
   19CHTO   C59 7831   4.179   7.710   1.613  0.2409 -0.2704  0.6447
   19CHTO  H116 7832   4.261   7.709   1.685 -0.8763 -1.7924  1.9469
   19CHTO   C70 7833   4.204   7.622   1.492  0.4448 -0.8297  0.1555
   19CHTO   O46 7834   4.191   7.481   1.515 -0.2398  0.0010 -0.0898
   19CHTO  H103 7835   4.189   7.442   1.429 -3.0250  0.4093 -0.2406
   19CHTO   O39 7836   3.847   7.630   1.819  0.3643 -0.5855  0.6971
   19CHTO   C60 7837   3.847   7.494   1.770  0.1369 -0.5264 -0.1570
   19CHTO  H117 7838   3.891   7.502   1.670 -1.9641  3.5188 -0.8566
   19CHTO   C62 7839   3.927   7.395   1.856  0.5335  0.2713 -0.5738
   19CHTO  H119 7840   4.030   7.435   1.856  0.4766  0.4222 -0.0326
   19CHTO   O43 7841   3.875   7.383   1.990 -0.3233 -0.2516 -0.1396
   19CHTO  H101 7842   3.867   7.461   2.041 -0.5165  0.4559 -1.2523
   19CHTO   C66 7843   3.941   7.255   1.770 -0.0838 -0.4038  0.7925
   19CHTO  H123 7844   3.979   7.269   1.669  0.0555 -1.0247  0.7581
   19CHTO   N12 7845   4.038   7.164   1.844  0.2931  0.1450  0.0605
   19CHTO  H110 7846   4.132   7.217   1.845 -0.4952  1.5637  0.3486
   19CHTO  H111 7847   3.999   7.147   1.943  1.3436 -0.8578  0.3083
   19CHTO   C69 7848   3.804   7.184   1.741  0.0534  0.9279  0.2496
   19CHTO  H126 7849   3.780   7.134   1.837 -3.1089  0.9773 -0.4610
   19CHTO   O41 7850   3.701   7.283   1.707  0.0178  0.0696  0.2866
   19CHTO   C64 7851   3.701   7.433   1.756  0.5447  0.6325  0.1107
   19CHTO  H121 7852   3.652   7.436   1.855 -1.9815  0.1690 -1.1072
   19CHTO   C71 7853   3.623   7.531   1.657 -0.0603  0.0834 -0.7953
   19CHTO   O47 7854   3.483   7.508   1.635  0.4137 -0.4789  0.7824
   19CHTO  H104 7855   3.446   7.465   1.709  0.1202 -0.1129  0.8491
   19CHTO   O34 7856   3.807   7.078   1.629 -0.3914 -0.1561 -0.5675
   19CHTO   C49 7857   3.772   7.053   1.471 -0.4711 -0.0285 -0.7719
   19CHTO   H91 7858   3.676   7.003   1.475  0.3260 -1.4024  2.7502
   19CHTO   C47 7859   3.883   6.970   1.409 -0.0995  0.9785  0.3252
   19CHTO   H89 7860   3.839   6.934   1.314  0.2402  3.2694 -0.7403
   19CHTO   O33 7861   3.890   6.857   1.497 -0.0237  0.4504 -0.4502
   19CHTO   H70 7862   3.838   6.860   1.574 -0.1197 -1.3160 -0.4323
   19CHTO   C45 7863   4.017   7.056   1.393  0.1508 -0.3692  0.2294
   19CHTO   H87 7864   4.036   7.103   1.491  2.8571 -0.0113 -0.4301
   19CHTO    N8 7865   4.132   6.967   1.353 -0.1433  0.5219  0.1212
   19CHTO   H75 7866   4.221   7.025   1.371  1.1256 -0.9281 -1.2853
   19CHTO   H76 7867   4.133   6.888   1.427 -1.4264  0.2291 -0.1599
   19CHTO   C43 7868   3.986   7.180   1.294  0.5072  0.2885  0.2443
   19CHTO   H85 7869   4.073   7.244   1.284  0.1459  0.5943 -1.0989
   19CHTO   O29 7870   3.868   7.253   1.339 -0.0354 -0.0411 -0.6383
   19CHTO   C50 7871   3.753   7.185   1.389 -0.1416 -0.3532  0.7288
   19CHTO   H92 7872   3.700   7.257   1.453  1.0145  1.5422 -0.4099
   19CHTO   C54 7873   3.650   7.162   1.271 -0.5814  0.0524 -0.3898
   19CHTO   O36 7874   3.694   7.069   1.168 -0.2557 -0.0750  0.5159
   19CHTO   H72 7875   3.744   7.119   1.106 -1.5572  0.7445  0.1125
   19CHTO   O27 7876   3.957   7.140   1.164 -0.1824  0.0842  1.1938
   19CHTO   C37 7877   3.974   7.185   1.027 -0.2604  0.3466 -0.3672
   19CHTO   H79 7878   3.918   7.128   0.952 -0.8269 -0.2813  0.5265
   19CHTO   C38 7879   3.918   7.331   1.023 -0.1828  0.3683  0.3699
   19CHTO   H80 7880   3.963   7.385   1.109  1.0681 -0.2423  0.1114
   19CHTO   O31 7881   3.774   7.326   1.038  0.1341  0.1079 -0.5421
   19CHTO   H68 7882   3.725   7.305   0.961 -1.0089  0.1903  0.1502
   19CHTO   C39 7883   3.958   7.397   0.885 -0.1480  0.5212 -0.3670
   19CHTO   H81 7884   3.902   7.342   0.810  2.6756 -2.8085 -0.2001
   19CHTO    N7 7885   3.918   7.542   0.878  0.1572 -0.1885 -0.0060
   19CHTO   H73 7886   3.825   7.552   0.823  0.0895  1.3246  0.3597
   19CHTO   H74 7887   3.925   7.594   0.973 -1.2103 -0.9456  0.5381
   19CHTO   C40 7888   4.111   7.378   0.857  0.0062 -0.1062  0.3077
   19CHTO   H82 7889   4.172   7.419   0.937  1.9191 -0.5751 -0.8938
   19CHTO   O26 7890   4.117   7.235   0.851  0.6862  0.7549 -0.0932
   19CHTO   C41 7891   4.115   7.177   0.981 -0.1604  0.1625 -0.0811
   19CHTO   H83 7892   4.189   7.222   1.050 -1.8068  0.7037  1.3732
   19CHTO   C52 7893   4.170   7.036   0.955  0.5400  0.3933 -0.1665
   19CHTO   O35 7894   4.305   7.046   0.919  0.2528 -0.0680  0.0771
   19CHTO   H71 7895   4.318   7.113   0.855  1.4646  0.5608  0.9707
   19CHTO   O28 7896   4.153   7.422   0.731  0.9464 -0.6946  0.1622
   19CHTO   C42 7897   4.269   7.501   0.696 -0.4135  0.7384  1.3032
   19CHTO   H84 7898   4.314   7.534   0.789 -0.1706 -2.2062  2.2646
   19CHTO   C44 7899   4.243   7.627   0.622 -0.3352  0.2363 -0.0069
   19CHTO   H86 7900   4.202   7.601   0.524  1.4084  1.4328 -1.0989
   19CHTO   O32 7901   4.151   7.706   0.701 -0.1035 -0.3330  0.4187
   19CHTO   H69 7902   4.084   7.660   0.748 -0.2794 -0.2552  0.2461
   19CHTO   C48 7903   4.377   7.701   0.589  0.0529  0.6019 -0.3179
   19CHTO   H90 7904   4.415   7.748   0.680 -0.3872 -1.3373  0.9062
   19CHTO    N9 7905   4.365   7.816   0.491  0.3955 -0.1987 -0.1109
   19CHTO   H77 7906   4.271   7.810   0.439  0.1396 -1.8880  0.5126
   19CHTO   H78 7907   4.351   7.905   0.552  1.9331 -0.2476  0.3449
   19CHTO   C51 7908   4.487   7.601   0.538  0.9544  0.1860  0.1718
   19CHTO   H93 7909   4.456   7.580   0.436 -0.9413  0.2290  0.7182
   19CHTO   O30 7910   4.490   7.482   0.618 -0.0201 -0.0382  0.3179
   19CHTO   C46 7911   4.376   7.414   0.616  0.0414  0.4825  0.1539
   19CHTO   H88 7912   4.338   7.398   0.516  1.2275  0.0599 -0.2362
   19CHTO   C53 7913   4.402   7.276   0.679 -0.2753 -0.2204  0.2605
   19CHTO   O72 7914   4.451   7.285   0.810  0.4171  0.4398  0.0833
   19CHTO  H199 7915   4.532   7.333   0.812  1.2447 -0.8931 -0.5162
   19CHTO   O22 7916   4.625   7.654   0.534  0.8013  0.5496 -0.0075
   19CHTO   C31 7917   4.732   7.603   0.442  0.0482 -0.4050  1.1250
   19CHTO   H59 7918   4.707   7.499   0.414 -2.3069  0.2075  0.8825
   19CHTO   C29 7919   4.730   7.684   0.312  0.0387 -0.6177 -0.3002
   19CHTO   H57 7920   4.736   7.790   0.341  0.0945 -1.0468  1.2637
   19CHTO   O21 7921   4.602   7.669   0.253 -0.6154  0.0260  0.0129
   19CHTO   H37 7922   4.613   7.640   0.164 -2.4501  0.9092 -0.5259
   19CHTO   C27 7923   4.850   7.637   0.216 -0.8273 -0.5232 -0.0658
   19CHTO   H55 7924   4.841   7.529   0.196 -0.2967 -0.5168 -0.3445
   19CHTO    N5 7925   4.859   7.716   0.089  0.6863 -0.2623 -0.2299
   19CHTO   H43 7926   4.803   7.808   0.099 -0.0510 -0.8199  0.9655
   19CHTO   H44 7927   4.961   7.715   0.054  0.0594 -1.0291 -2.1098
   19CHTO   C25 7928   4.986   7.641   0.299  0.0344 -0.3931 -0.6069
   19CHTO   H53 7929   5.003   7.746   0.326 -1.3895 -0.2778 -0.1340
   19CHTO   O17 7930   4.976   7.564   0.412  0.1103  0.3076  0.4329
   19CHTO   C32 7931   4.881   7.609   0.505 -0.3682 -0.1015 -0.7901
   19CHTO   H60 7932   4.898   7.713   0.535 -0.2504 -0.1951 -0.5313
   19CHTO   C36 7933   4.900   7.522   0.633  0.3931 -0.3009  0.5311
   19CHTO   O25 7934   4.878   7.383   0.590 -0.0916 -0.5168 -0.9645
   19CHTO   H40 7935   4.954   7.349   0.547  1.1397  0.1449  0.6453
   19CHTO   O15 7936   5.099   7.566   0.209  0.2909  0.6716  0.0429
   19CHTO   C19 7937   5.149   7.453   0.134  0.3029  0.4913 -0.5660
   19CHTO   H47 7938   5.088   7.457   0.042 -0.5309  0.9718  0.0060
   19CHTO   C20 7939   5.301   7.459   0.104  0.4427  0.2028  0.3176
   19CHTO   H48 7940   5.357   7.472   0.197 -2.5526 -0.7075  2.3241
   19CHTO   O19 7941   5.329   7.578   0.032  0.3169 -0.5527  0.3167
   19CHTO   H35 7942   5.264   7.642   0.052  0.1603 -0.7097  0.3098
   19CHTO   C21 7943   5.358   7.333   0.029 -0.4883  0.8410  0.2257
   19CHTO   H49 7944   5.318   7.324  -0.072  1.3094 -1.2120 -0.3436
   19CHTO    N4 7945   5.506   7.335   0.018 -0.1024 -0.1051  0.3321
   19CHTO   H41 7946   5.534   7.399  -0.065 -2.7081  0.2607 -0.3158
   19CHTO   H42 7947   5.544   7.383   0.106 -1.0732 -1.4946  1.5285
   19CHTO   C22 7948   5.306   7.202   0.087 -0.0558  0.6000  0.2932
   19CHTO   H50 7949   5.353   7.189   0.185 -0.5899  0.5098  0.5378
   19CHTO   O14 7950   5.164   7.208   0.100 -0.3324  0.0025  0.0748
   19CHTO   C23 7951   5.119   7.309   0.194 -0.2343 -0.3798 -0.6901
   19CHTO   H51 7952   5.183   7.288   0.281  0.0437 -0.1099 -0.8255
   19CHTO   C34 7953   4.972   7.288   0.234  0.0113 -0.0960 -0.2106
   19CHTO   O23 7954   4.968   7.168   0.311 -0.5177 -0.5687  0.6891
   19CHTO   H38 7955   4.937   7.181   0.399  0.5956  0.8167  0.9061
   19CHTO   O16 7956   5.330   7.099  -0.006  0.1804  0.3158 -0.1906
   19CHTO   C24 7957   5.417   6.979   0.011  0.4071 -0.1766  0.1855
   19CHTO   H52 7958   5.507   7.000   0.069  0.4189 -2.9231  1.2467
   19CHTO   C26 7959   5.465   6.950  -0.137 -0.2796  0.4201 -0.1863
   19CHTO   H54 7960   5.378   6.951  -0.205 -0.7791  1.2206  0.4642
   19CHTO   O20 7961   5.549   7.057  -0.179  0.1363  0.1485 -0.5655
   19CHTO   H36 7962   5.552   7.039  -0.272  2.6528 -0.9376 -0.3110
   19CHTO   C30 7963   5.536   6.810  -0.153  0.0874 -0.1990  0.7072
   19CHTO   H58 7964   5.635   6.802  -0.104 -0.1288  0.5442  1.2698
   19CHTO    N6 7965   5.564   6.786  -0.299 -0.5739 -0.4804 -0.2621
   19CHTO   H45 7966   5.470   6.780  -0.351 -1.4668 -0.1028  1.2854
   19CHTO   H46 7967   5.611   6.689  -0.308 -2.2117 -1.1753 -1.4113
   19CHTO   C33 7968   5.426   6.708  -0.096 -0.0581  0.3572  0.5238
   19CHTO   H61 7969   5.329   6.728  -0.144  0.4734  4.7382  1.0446
   19CHTO   O18 7970   5.404   6.732   0.041 -0.3368  0.3883  0.2616
   19CHTO   C28 7971   5.348   6.855   0.084 -0.1209 -0.2931  0.7925
   19CHTO   H56 7972   5.241   6.853   0.065 -0.3729 -1.2903  2.2774
   19CHTO   C35 7973   5.362   6.873   0.239 -0.0628  0.5039  0.0305
   19CHTO   O24 7974   5.480   6.816   0.294 -0.6690  0.4656  0.3689
   19CHTO   H39 7975   5.490   6.725   0.275  1.5021  0.5540  0.9249
   19CHTO    O9 7976   5.457   6.569  -0.119 -0.9338 -0.3750 -0.6636
   19CHTO   C13 7977   5.310   6.480  -0.170 -0.5294  0.7040  0.0431
   19CHTO   H26 7978   5.256   6.527  -0.255 -0.1633 -0.4504 -0.8413
   19CHTO   C11 7979   5.216   6.472  -0.036  0.0102  0.2908  0.7061
   19CHTO   H24 7980   5.201   6.576  -0.005 -0.7113  0.3501  0.1493
   19CHTO    O8 7981   5.292   6.408   0.064 -0.5132  0.0616  0.1558
   19CHTO    H3 7982   5.353   6.464   0.109  0.8812 -2.3676  1.4161
   19CHTO    C9 7983   5.087   6.400  -0.066 -0.1880 -0.0691  0.2939
   19CHTO   H22 7984   5.035   6.464  -0.138  2.4843  1.1408 -0.6471
   19CHTO    N2 7985   4.990   6.405   0.049 -0.1733 -0.5305  0.7725
   19CHTO   H10 7986   4.968   6.509   0.069  1.6100 -0.0165  0.1964
   19CHTO   H11 7987   5.036   6.357   0.133  2.1369  0.7225  0.2663
   19CHTO    C7 7988   5.116   6.259  -0.136 -0.5290 -0.3832 -0.5966
   19CHTO   H20 7989   5.016   6.229  -0.170 -1.1917 -1.8807  2.4677
   19CHTO    O4 7990   5.221   6.255  -0.240 -0.6017 -0.9320  0.9524
   19CHTO   C14 7991   5.344   6.334  -0.224 -0.1232 -0.4853  0.4462
   19CHTO   H27 7992   5.383   6.351  -0.326 -0.9695 -1.3532 -0.0255
   19CHTO   C18 7993   5.449   6.240  -0.153 -0.0186 -0.6005  0.5577
   19CHTO   O13 7994   5.494   6.144  -0.250  0.1852 -0.1386 -0.2136
   19CHTO    H7 7995   5.432   6.079  -0.276  0.0102 -0.1519  0.2294
   19CHTO    O2 7996   5.162   6.159  -0.020  0.1928  0.4902  0.1405
   19CHTO    C1 7997   5.184   6.018  -0.037  0.2569 -0.7163  0.5513
   19CHTO   H14 7998   5.268   6.005  -0.109 -1.1492 -0.1975 -1.2210
   19CHTO    C2 7999   5.053   5.936  -0.092 -0.4902 -1.1562 -0.3988
   19CHTO   H15 8000   4.966   5.970  -0.034 -0.6140  1.5449 -2.0815
   19CHTO    O6 8001   5.018   5.978  -0.228  0.1801 -0.4311  0.4608
   19CHTO    H1 8002   5.091   5.969  -0.287  0.3096 -1.1755  0.7303
   19CHTO    C3 8003   5.084   5.784  -0.091  0.1122 -0.1500  0.3559
   19CHTO   H16 8004   5.159   5.764  -0.169 -1.3311 -0.1997 -1.0474
   19CHTO    N1 8005   4.964   5.695  -0.128  0.1769  0.2568 -0.0060
   19CHTO    H8 8006   4.903   5.734  -0.208 -0.6782 -0.7209  0.1564
   19CHTO    H9 8007   4.904   5.669  -0.041  2.8980  0.1648  1.9126
   19CHTO    C4 8008   5.147   5.743   0.048  0.1816  0.0688 -0.2407
   19CHTO   H17 8009   5.077   5.759   0.129  0.2335 -2.5033  0.3409
   19CHTO    O1 8010   5.268   5.823   0.062 -0.0543  0.0724 -0.0039
   19CHTO    C5 8011   5.225   5.958   0.096 -0.6872 -0.0373 -0.3280
   19CHTO   H18 8012   5.142   5.965   0.165 -0.3578 -0.7117  0.1462
   19CHTO   C16 8013   5.350   6.018   0.170 -0.1517 -0.7333 -0.1923
   19CHTO   O11 8014   5.362   5.943   0.291  0.2011  0.2959  0.1196
   19CHTO    H5 8015   5.436   5.977   0.337  1.4727 -1.5679 -0.5090
   19CHTO    O3 8016   5.202   5.604   0.048 -0.0518 -0.0765 -0.1402
   19CHTO    C6 8017   5.189   5.541   0.176 -0.0849 -0.1400 -0.0196
   19CHTO   H19 8018   5.191   5.609   0.260 -1.2849 -1.2180  0.9027
   19CHTO    C8 8019   5.057   5.466   0.180  0.3382 -0.1761 -0.4938
   19CHTO   H21 8020   5.041   5.409   0.088  0.3726  0.5700 -0.9632
   19CHTO    O7 8021   4.955   5.565   0.199  0.5113  0.2376 -0.3490
   19CHTO    H2 8022   4.947   5.622   0.125  0.7561  3.2348  1.8215
   19CHTO   C12 8023   5.037   5.354   0.294 -0.0234 -0.3155 -0.2115
   19CHTO   H25 8024   5.016   5.407   0.389 -0.0558  0.5226 -0.6791
   19CHTO    N3 8025   4.921   5.261   0.257  0.1914 -0.6384 -0.3072
   19CHTO   H12 8026   4.868   5.291   0.168 -0.4725 -1.1856 -0.1067
   19CHTO   H13 8027   4.957   5.159   0.250 -0.3659 -0.9655  1.2712
   19CHTO   C15 8028   5.169   5.276   0.316  0.4820 -0.1163 -0.2804
   19CHTO   H28 8029   5.190   5.204   0.237 -0.2195  0.9430 -1.4580
   19CHTO   O10 8030   5.164   5.207   0.465  0.2619 -0.5897 -0.1698
   19CHTO    H4 8031   5.178   5.115   0.454  1.9079 -0.1896 -1.7662
   19CHTO    O5 8032   5.289   5.358   0.314 -0.3592  0.7768 -0.2862
   19CHTO   C10 8033   5.312   5.443   0.195 -0.3036  0.3968 -0.6489
   19CHTO   H23 8034   5.339   5.383   0.108  0.8392  1.3487 -0.9707
   19CHTO   C17 8035   5.444   5.522   0.224 -0.1265  0.1545  0.4280
   19CHTO   O12 8036   5.568   5.445   0.227  0.8963  0.2865  0.2329
   19CHTO    H6 8037   5.553   5.382   0.295  2.6425 -0.2154  0.1639
   20CHTO  H203 8038   4.836   1.039   4.490  0.1408 -0.0090  1.3593
   20CHTO   O82 8039   4.910   1.096   4.505  0.2320  0.4195 -0.5552
   20CHTO  C123 8040   4.959   1.193   4.403  0.6072 -0.1524 -0.3196
   20CHTO  H227 8041   4.877   1.262   4.379  0.8401  1.7829  3.9803
   20CHTO   O77 8042   5.061   1.257   4.480 -0.8772  0.3789 -0.2310
   20CHTO  C118 8043   5.116   1.366   4.411 -0.2584  0.1174 -0.2479
   20CHTO  H222 8044   5.030   1.428   4.383 -1.6618 -2.0939 -0.9356
   20CHTO  C125 8045   5.215   1.436   4.507 -0.0450 -0.5228  0.4775
   20CHTO   O84 8046   5.327   1.354   4.537  0.1336 -0.6374  0.4565
   20CHTO  H205 8047   5.374   1.387   4.612 -0.2328  1.0590 -0.0412
   20CHTO  C114 8048   5.184   1.321   4.282  0.6234 -0.3627  0.0126
   20CHTO  H218 8049   5.265   1.251   4.303 -0.4384 -0.8639  2.6123
   20CHTO  C116 8050   5.081   1.246   4.189 -0.5629 -0.3237 -0.2076
   20CHTO  H220 8051   4.999   1.317   4.163  0.1046  0.8716  0.8656
   20CHTO   O79 8052   5.145   1.206   4.064  0.2290  0.2776 -0.7169
   20CHTO  H201 8053   5.077   1.180   4.004  0.2001  0.0333 -0.5751
   20CHTO  C120 8054   5.016   1.132   4.270 -0.1430  0.2972 -0.5848
   20CHTO  H224 8055   5.095   1.058   4.298 -1.0184 -0.8087 -0.9967
   20CHTO   N21 8056   4.910   1.059   4.188  0.7207  0.9278 -0.5967
   20CHTO  H211 8057   4.810   1.082   4.220  0.2426 -0.5146 -1.0142
   20CHTO  H212 8058   4.926   1.082   4.083  0.7596  0.1135 -0.7721
   20CHTO   O75 8059   5.227   1.453   4.231 -0.6300 -0.4820  0.6486
   20CHTO  C112 8060   5.339   1.459   4.109  0.1322 -0.3398 -0.7251
   20CHTO  H216 8061   5.322   1.382   4.033  2.6722 -0.1197 -1.5492
   20CHTO   O73 8062   5.468   1.442   4.175 -0.1547  0.1107 -0.1252
   20CHTO  C113 8063   5.584   1.440   4.087 -0.0227  0.3978  0.3055
   20CHTO  H217 8064   5.575   1.381   3.993  1.3512  1.3004 -0.4096
   20CHTO  C124 8065   5.706   1.389   4.157 -0.4922  0.3944 -0.3609
   20CHTO   O83 8066   5.687   1.264   4.226 -0.7254 -0.4846 -0.1410
   20CHTO  H204 8067   5.753   1.257   4.292  0.1709  0.2417 -0.9515
   20CHTO  C109 8068   5.601   1.578   4.016 -0.0821  0.0141 -0.0973
   20CHTO  H213 8069   5.631   1.653   4.090  0.0989  0.8361 -0.9989
   20CHTO  C110 8070   5.463   1.617   3.948 -0.4679  0.0089  0.4068
   20CHTO  H214 8071   5.451   1.558   3.857  0.0381 -0.2017  0.4748
   20CHTO   O78 8072   5.475   1.752   3.892 -0.1958 -0.3214 -0.5397
   20CHTO  H200 8073   5.490   1.810   3.965 -0.1329 -1.2521  0.2065
   20CHTO  C111 8074   5.336   1.602   4.040  0.0716  0.4859 -0.4002
   20CHTO  H215 8075   5.341   1.683   4.114 -2.0101  1.8568 -1.7189
   20CHTO   N19 8076   5.205   1.627   3.968 -0.0286 -0.0287 -0.1142
   20CHTO  H207 8077   5.121   1.621   4.036 -0.3094  0.3688 -0.4258
   20CHTO  H208 8078   5.201   1.567   3.878  3.2454  0.5280 -0.6886
   20CHTO   O74 8079   5.700   1.565   3.914 -0.0908  0.1197  0.2204
   20CHTO  C115 8080   5.767   1.683   3.874 -0.6155  0.4141  0.5180
   20CHTO  H219 8081   5.718   1.771   3.916 -0.8987 -0.7924  2.8315
   20CHTO   O76 8082   5.919   1.689   3.924 -0.1316 -0.8661 -0.0643
   20CHTO  C122 8083   5.997   1.579   3.881  0.6796  0.1557 -0.1969
   20CHTO  H226 8084   5.966   1.486   3.928  2.1463  0.5057  1.4840
   20CHTO  C126 8085   6.149   1.613   3.931 -0.4537 -0.5020 -0.3319
   20CHTO   O85 8086   6.205   1.724   3.860 -0.0178  0.1899 -0.2407
   20CHTO  H206 8087   6.271   1.756   3.918 -0.6210  0.3147  0.3924
   20CHTO  C121 8088   5.979   1.563   3.714 -0.2801  1.0957 -0.2797
   20CHTO  H225 8089   6.077   1.554   3.663  0.9669  3.3246  1.6286
   20CHTO   O81 8090   5.910   1.439   3.707  0.2189  0.4762 -0.1146
   20CHTO  H202 8091   5.934   1.386   3.633 -2.0829 -1.5078  0.4883
   20CHTO  C119 8092   5.890   1.671   3.644 -0.1732  0.4880 -0.4026
   20CHTO  H223 8093   5.947   1.763   3.656 -0.1857  0.6874 -1.7616
   20CHTO  C117 8094   5.754   1.687   3.715  0.4332  0.3643 -0.0257
   20CHTO  H221 8095   5.688   1.605   3.688  2.2060 -1.5431  1.2687
   20CHTO   N20 8096   5.692   1.815   3.660  0.0681  0.2445  0.2443
   20CHTO  H209 8097   5.713   1.817   3.554 -0.5851 -2.0552  0.0507
   20CHTO  H210 8098   5.585   1.797   3.656  0.0809  0.3287 -0.8472
   20CHTO   O80 8099   5.893   1.653   3.483 -0.1089  0.6576 -0.1020
   20CHTO  C103 8100   6.015   1.662   3.411  0.3968 -0.4754  0.7084
   20CHTO  H190 8101   6.101   1.670   3.478  0.2904  0.1747  0.7615
   20CHTO  C101 8102   6.046   1.551   3.301 -0.4052  0.1787 -0.0695
   20CHTO  H188 8103   5.948   1.509   3.277 -0.7185  1.2036 -0.6597
   20CHTO   O68 8104   6.127   1.426   3.356  0.2542  0.0693 -0.1285
   20CHTO  H168 8105   6.059   1.362   3.363 -1.1243  1.6776  1.9226
   20CHTO   C99 8106   6.122   1.595   3.165  0.4077  0.5240 -0.3963
   20CHTO  H186 8107   6.232   1.596   3.181  0.4744  5.2509 -0.5027
   20CHTO   N17 8108   6.107   1.489   3.060 -1.4206  0.3953 -0.5049
   20CHTO  H174 8109   6.028   1.420   3.083 -0.9972 -0.1196 -0.5722
   20CHTO  H175 8110   6.095   1.533   2.962 -0.7855 -1.0350 -1.2427
   20CHTO   C97 8111   6.081   1.736   3.125 -0.2145  0.9990  0.2246
   20CHTO  H184 8112   5.973   1.737   3.105  0.0621  2.3218 -1.2963
   20CHTO   O64 8113   6.111   1.817   3.235 -0.5093  0.1891  0.7957
   20CHTO  C104 8114   6.002   1.802   3.333 -0.5150  0.7052  0.4430
   20CHTO  H191 8115   5.905   1.812   3.284  0.2810 -1.7191 -1.6590
   20CHTO  C108 8116   6.009   1.917   3.431  0.4848 -0.0892  0.1621
   20CHTO   O71 8117   6.141   1.932   3.483  0.0613 -0.1182 -0.1473
   20CHTO  H171 8118   6.188   2.005   3.448 -0.6911  0.6171  0.3521
   20CHTO   O62 8119   6.156   1.777   3.007 -0.5759 -0.7228 -0.0466
   20CHTO   C91 8120   6.121   1.908   2.957  0.0787  0.8234 -0.0363
   20CHTO  H178 8121   6.075   1.959   3.041 -2.6990 -0.0866 -0.9448
   20CHTO   C92 8122   6.014   1.917   2.842  0.2197 -0.3646  0.3333
   20CHTO  H179 8123   6.055   1.876   2.748  1.0713  1.5276 -0.1541
   20CHTO   O66 8124   5.892   1.853   2.882  0.0290  0.1469 -0.2917
   20CHTO  H166 8125   5.843   1.849   2.802 -1.1782  0.1639  0.4499
   20CHTO   C93 8126   5.974   2.071   2.802 -0.5972  0.1223  0.5995
   20CHTO  H180 8127   5.912   2.107   2.885  1.4090  1.9784  1.3335
   20CHTO   N16 8128   5.896   2.078   2.673  0.4863  0.0953 -0.1114
   20CHTO  H172 8129   5.890   2.181   2.640 -0.9814 -0.7282 -2.4787
   20CHTO  H173 8130   5.938   2.019   2.593  1.4481 -0.7267  0.9856
   20CHTO   C94 8131   6.111   2.155   2.799  0.2364  0.4843 -0.1983
   20CHTO  H181 8132   6.172   2.138   2.710  0.5807 -0.8953  0.2990
   20CHTO   O61 8133   6.198   2.131   2.910 -0.1655 -1.1259 -0.0257
   20CHTO   C95 8134   6.246   1.996   2.922 -0.1392  0.1203  0.0025
   20CHTO  H182 8135   6.288   1.964   2.826  0.0748 -1.5551  0.6562
   20CHTO  C106 8136   6.356   1.989   3.030 -0.4146 -0.3543  0.1561
   20CHTO   O69 8137   6.450   2.090   2.999  0.7543 -0.1362  0.2654
   20CHTO  H169 8138   6.505   2.105   3.073 -0.3236  0.2951  0.9920
   20CHTO   O63 8139   6.073   2.303   2.808  0.1943 -0.2094 -0.7458
   20CHTO   C96 8140   6.030   2.388   2.656  0.0223  0.1961 -0.0795
   20CHTO  H183 8141   5.968   2.321   2.597 -1.1349  2.0276 -0.9881
   20CHTO   C98 8142   6.164   2.434   2.571  0.1022 -0.2715 -0.3903
   20CHTO  H185 8143   6.237   2.490   2.632  1.1787 -2.0226 -0.0271
   20CHTO   O67 8144   6.236   2.314   2.534 -0.2496  0.3637  0.1006
   20CHTO  H167 8145   6.215   2.246   2.595 -2.8019  0.5460 -0.4943
   20CHTO  C102 8146   6.127   2.512   2.437  0.2381 -0.3112  0.1407
   20CHTO  H189 8147   6.054   2.450   2.384  0.1695 -0.8419  0.8446
   20CHTO   N18 8148   6.234   2.546   2.346  0.2401 -0.1899  0.4314
   20CHTO  H176 8149   6.230   2.649   2.314 -1.1199 -0.7424 -1.2487
   20CHTO  H177 8150   6.331   2.516   2.381  0.4382 -0.5941 -0.4536
   20CHTO  C105 8151   6.048   2.639   2.485  1.0647  0.4219 -0.3240
   20CHTO  H192 8152   6.112   2.704   2.545 -1.5576  1.8179  1.0655
   20CHTO   O65 8153   5.932   2.599   2.557 -0.0518  0.0977 -0.4630
   20CHTO  C100 8154   5.957   2.531   2.683  0.1294  0.2908  0.2654
   20CHTO  H187 8155   6.024   2.599   2.738 -0.6163  1.9902 -0.8991
   20CHTO  C107 8156   5.813   2.519   2.752  0.2481 -0.6122 -0.4729
   20CHTO   O70 8157   5.805   2.449   2.881 -0.2450  0.3054  0.4630
   20CHTO  H170 8158   5.719   2.422   2.908 -0.0824 -1.1756 -0.4244
   20CHTO   O57 8159   6.004   2.725   2.339 -0.3211  0.1051  0.2548
   20CHTO   C85 8160   5.910   2.835   2.332  0.2135 -0.0777 -0.3635
   20CHTO  H157 8161   5.869   2.861   2.432  1.8555  0.6430  0.1447
   20CHTO   C83 8162   5.781   2.796   2.250 -0.1755 -0.4717  0.7021
   20CHTO  H155 8163   5.734   2.720   2.312  0.5243 -0.8014  0.8295
   20CHTO   O56 8164   5.819   2.742   2.123 -0.3788  0.1338  0.0884
   20CHTO  H135 8165   5.740   2.725   2.074 -1.2390  1.7385  0.8819
   20CHTO   C81 8166   5.683   2.919   2.233 -0.2651 -0.1422 -0.5675
   20CHTO  H153 8167   5.651   2.955   2.331 -0.8034 -1.0941 -0.3881
   20CHTO   N14 8168   5.556   2.889   2.170  0.2281 -0.4280 -0.1406
   20CHTO  H141 8169   5.501   2.971   2.130  1.4794 -0.0583 -1.1013
   20CHTO  H142 8170   5.581   2.823   2.090 -0.4327 -0.4333 -0.3511
   20CHTO   C79 8171   5.767   3.033   2.162  0.0163  0.2146  0.2795
   20CHTO  H151 8172   5.702   3.120   2.159  1.3440  1.1867 -0.8877
   20CHTO   O52 8173   5.890   3.070   2.228 -0.4958  0.1912  0.2984
   20CHTO   C86 8174   5.980   2.962   2.270  0.7749 -0.2011  0.4741
   20CHTO  H158 8175   6.028   2.937   2.173  2.6821  1.3001  0.9779
   20CHTO   C90 8176   6.094   3.024   2.354  0.4730 -0.0951  0.0874
   20CHTO   O60 8177   6.190   2.924   2.399 -0.0209  0.0364  0.2659
   20CHTO  H138 8178   6.254   2.919   2.331 -0.6534  0.3796 -0.3525
   20CHTO   O50 8179   5.796   2.996   2.029  0.1726  0.4687  0.4199
   20CHTO   C73 8180   5.885   2.957   1.923 -0.0089 -0.2747  0.1990
   20CHTO  H145 8181   5.941   2.867   1.954 -1.0435 -1.3979 -1.1224
   20CHTO   C74 8182   5.998   3.064   1.902  0.0465  0.3028 -0.0636
   20CHTO  H146 8183   6.051   3.079   1.998 -0.3095  1.3871 -0.0275
   20CHTO   O54 8184   6.093   3.018   1.811 -0.0144  0.0959 -0.2532
   20CHTO  H133 8185   6.063   3.022   1.722  0.6333 -0.3652 -0.4969
   20CHTO   C75 8186   5.918   3.192   1.857 -0.0927 -0.5031 -0.3524
   20CHTO  H147 8187   5.858   3.222   1.943 -0.6313 -1.2258 -0.4674
   20CHTO   N13 8188   6.001   3.310   1.838 -0.3477  0.8440  0.4983
   20CHTO  H139 8189   6.013   3.353   1.936  0.0277  0.2332  0.7205
   20CHTO  H140 8190   5.963   3.376   1.761  0.4562  0.6865 -0.0449
   20CHTO   C76 8191   5.829   3.155   1.724 -0.2330  0.0465 -0.2880
   20CHTO  H148 8192   5.895   3.141   1.638  0.4297  1.3920 -0.0195
   20CHTO   O49 8193   5.746   3.047   1.744 -0.1926  0.6097  0.5193
   20CHTO   C77 8194   5.816   2.928   1.784  0.1388 -0.1449 -0.0774
   20CHTO  H149 8195   5.893   2.901   1.712  0.5245  0.5335  0.0747
   20CHTO   C88 8196   5.719   2.808   1.791 -0.2737  0.2778 -0.5873
   20CHTO   O58 8197   5.797   2.688   1.817  0.7202 -0.8786  0.2245
   20CHTO  H136 8198   5.819   2.637   1.741  0.6751 -0.6319  0.0478
   20CHTO   O51 8199   5.708   3.291   1.702 -0.3781 -0.6078  0.2082
   20CHTO   C78 8200   5.607   3.315   1.836 -0.1571  0.4802  0.0066
   20CHTO  H150 8201   5.652   3.277   1.930 -2.5774  3.0333  2.2553
   20CHTO   C80 8202   5.471   3.248   1.814 -0.2414  0.4312 -0.1597
   20CHTO  H152 8203   5.434   3.275   1.713 -0.7759 -0.9771 -0.3507
   20CHTO   O55 8204   5.497   3.111   1.804  0.0272 -0.4625  0.1984
   20CHTO  H134 8205   5.418   3.068   1.777 -0.3999  0.0418  0.6315
   20CHTO   C84 8206   5.373   3.288   1.932  0.9340 -0.1753  0.0921
   20CHTO  H156 8207   5.396   3.237   2.026  0.3810  0.4966  0.6022
   20CHTO   N15 8208   5.228   3.250   1.898  0.3688 -0.6815 -0.0757
   20CHTO  H143 8209   5.226   3.191   1.808  1.3836  1.1677 -1.3447
   20CHTO  H144 8210   5.170   3.200   1.973  0.8177 -2.1710 -0.7026
   20CHTO   C87 8211   5.387   3.439   1.972  0.3085  0.4726  0.0538
   20CHTO  H159 8212   5.340   3.492   1.890 -2.4561 -0.2009  1.1613
   20CHTO   O53 8213   5.522   3.478   1.976  0.2097 -0.1187 -0.1037
   20CHTO   C82 8214   5.583   3.465   1.850  0.4336 -0.1976 -0.3613
   20CHTO  H154 8215   5.516   3.510   1.776 -1.2478  0.1314  1.3156
   20CHTO   C89 8216   5.711   3.552   1.858  0.2461  0.1757 -0.2434
   20CHTO   O59 8217   5.683   3.694   1.844 -0.6966 -0.1576 -0.3888
   20CHTO  H137 8218   5.684   3.736   1.928  0.6168 -0.6582 -0.1351
   20CHTO   O45 8219   5.316   3.479   2.113 -0.4398 -0.7282  0.2802
   20CHTO   C67 8220   5.390   3.433   2.231  0.9694 -0.4845  0.3679
   20CHTO  H124 8221   5.437   3.338   2.205  2.6013 -0.0342  1.5784
   20CHTO   C65 8222   5.511   3.528   2.269  0.3800  0.5855  0.0794
   20CHTO  H122 8223   5.497   3.614   2.205 -0.6096 -0.9154 -1.7652
   20CHTO   O44 8224   5.633   3.462   2.235 -0.0681 -0.1771 -0.4821
   20CHTO  H102 8225   5.711   3.495   2.275 -1.1687  0.4610  1.1863
   20CHTO   C63 8226   5.503   3.586   2.414  0.2067  0.5563  0.2545
   20CHTO  H120 8227   5.409   3.642   2.423  0.4343  1.2008 -1.1205
   20CHTO   N11 8228   5.601   3.691   2.452  0.1006 -0.1315  0.1123
   20CHTO  H108 8229   5.546   3.783   2.448 -0.7905 -0.6780 -0.4403
   20CHTO  H109 8230   5.678   3.705   2.379 -0.6122 -1.5618 -0.9448
   20CHTO   C61 8231   5.474   3.477   2.521 -0.0815 -0.1402 -0.2540
   20CHTO  H118 8232   5.429   3.530   2.607 -0.1456 -0.5339 -0.0448
   20CHTO   O40 8233   5.380   3.384   2.482 -0.4689  0.0903 -0.1441
   20CHTO   C68 8234   5.304   3.403   2.358 -0.6182  0.0808 -1.1280
   20CHTO  H125 8235   5.240   3.492   2.375  0.2845  0.8330 -1.6657
   20CHTO   C72 8236   5.209   3.281   2.339  0.3257 -0.1499 -0.0324
   20CHTO   O48 8237   5.292   3.159   2.340  0.1397 -0.5822  0.0544
   20CHTO  H105 8238   5.334   3.139   2.259 -0.0199 -1.3126  0.1492
   20CHTO   O38 8239   5.592   3.405   2.563 -0.4462 -0.6319 -0.2084
   20CHTO   C55 8240   5.572   3.331   2.682 -0.1948  0.1996  0.4053
   20CHTO  H112 8241   5.468   3.299   2.699 -1.0164  2.1837 -0.6392
   20CHTO   C56 8242   5.632   3.401   2.811 -0.8717  0.1052  0.7430
   20CHTO  H113 8243   5.740   3.409   2.787 -1.2301  0.7325 -0.7627
   20CHTO   O42 8244   5.570   3.529   2.817 -0.0567  0.3576  0.2894
   20CHTO  H100 8245   5.620   3.589   2.766 -1.9439 -1.5381 -4.1637
   20CHTO   C57 8246   5.620   3.307   2.941 -0.3624 -0.4327 -0.5624
   20CHTO  H114 8247   5.516   3.278   2.955 -0.9519  1.9132  0.1611
   20CHTO   N10 8248   5.665   3.387   3.058  0.1168 -0.6742  0.0701
   20CHTO  H106 8249   5.711   3.310   3.118  0.1640  0.0317  0.9542
   20CHTO  H107 8250   5.578   3.423   3.110 -0.0480 -2.2214  0.9018
   20CHTO   C58 8251   5.699   3.181   2.912 -0.7368 -0.1608 -0.0449
   20CHTO  H115 8252   5.806   3.205   2.895 -0.8717  1.0890  0.8688
   20CHTO   O37 8253   5.653   3.121   2.789 -0.0827  0.3187 -0.2130
   20CHTO   C59 8254   5.646   3.199   2.669 -0.5814  0.5821  0.0420
   20CHTO  H116 8255   5.746   3.234   2.645  0.7595 -3.2977 -0.3980
   20CHTO   C70 8256   5.598   3.117   2.551  0.5918  0.1013  0.4264
   20CHTO   O46 8257   5.711   3.034   2.520 -0.3647  0.2511  0.0907
   20CHTO  H103 8258   5.675   2.958   2.478 -0.9303  1.7209 -2.1929
   20CHTO   O39 8259   5.673   3.074   3.028  0.4488  0.1851  0.4540
   20CHTO   C60 8260   5.757   2.956   3.046 -0.5716  0.5408 -0.4381
   20CHTO  H117 8261   5.817   2.942   2.956  0.8224  0.4893  0.4820
   20CHTO   C62 8262   5.858   2.979   3.157  0.0563 -0.4732  0.7763
   20CHTO  H119 8263   5.923   3.060   3.119 -0.2971  0.6366  2.4738
   20CHTO   O43 8264   5.794   3.021   3.276  0.0615  0.3139 -0.3806
   20CHTO  H101 8265   5.768   2.940   3.316  2.7696 -1.0843 -1.2863
   20CHTO   C66 8266   5.952   2.846   3.171  0.5229  0.7269 -0.2403
   20CHTO  H123 8267   6.022   2.837   3.088 -1.6106 -0.6368 -1.9484
   20CHTO   N12 8268   6.039   2.861   3.293  0.0697  1.1578  0.0826
   20CHTO  H110 8269   6.004   2.804   3.378  1.9078 -0.3409 -0.1429
   20CHTO  H111 8270   6.144   2.854   3.272 -0.1501 -1.8449 -0.1718
   20CHTO   C69 8271   5.862   2.722   3.188 -0.5223  0.1914  0.2812
   20CHTO  H126 8272   5.794   2.744   3.273 -1.2065  1.7850 -0.6405
   20CHTO   O41 8273   5.763   2.713   3.050 -0.1167 -0.0781 -0.4816
   20CHTO   C64 8274   5.673   2.826   3.057  0.3106  0.0823  0.1580
   20CHTO  H121 8275   5.623   2.815   3.156 -0.9577 -0.3864 -0.5242
   20CHTO   C71 8276   5.567   2.811   2.942 -0.5531  0.0251  0.3485
   20CHTO   O47 8277   5.501   2.684   2.931  0.4028  0.2695 -0.5513
   20CHTO  H104 8278   5.474   2.669   2.843  0.4784  1.2809 -0.7610
   20CHTO   O34 8279   5.928   2.581   3.209  0.3733  0.4421 -0.5141
   20CHTO   C49 8280   5.847   2.472   3.258  0.8276  0.3581  0.0727
   20CHTO   H91 8281   5.802   2.437   3.165  1.2884 -0.3537  0.1079
   20CHTO   C47 8282   5.736   2.507   3.357  0.1950  0.0859 -0.5800
   20CHTO   H89 8283   5.669   2.581   3.310 -0.7203 -0.4506 -0.1357
   20CHTO   O33 8284   5.795   2.574   3.472  0.0136 -0.2088  0.4825
   20CHTO   H70 8285   5.722   2.599   3.526 -0.4132 -1.6326  0.5819
   20CHTO   C45 8286   5.647   2.370   3.391  0.4091  0.2035 -0.2529
   20CHTO   H87 8287   5.657   2.367   3.500  0.3990 -0.2995 -0.2624
   20CHTO    N8 8288   5.500   2.394   3.363 -0.3193  0.3542  0.3955
   20CHTO   H75 8289   5.471   2.313   3.298  3.4459  0.1965 -1.2435
   20CHTO   H76 8290   5.443   2.401   3.455  0.6571 -2.1146  1.2161
   20CHTO   C43 8291   5.715   2.235   3.340  0.1140  0.0424 -0.3235
   20CHTO   H85 8292   5.668   2.155   3.398  2.0729  0.4964  1.9495
   20CHTO   O29 8293   5.853   2.241   3.369 -0.2152  0.1383  0.3039
   20CHTO   C50 8294   5.930   2.359   3.321 -0.3288 -0.0161  0.2844
   20CHTO   H92 8295   5.987   2.410   3.401  0.1367  1.5165 -0.9954
   20CHTO   C54 8296   6.036   2.301   3.224 -0.8797 -0.3610  0.0382
   20CHTO   O36 8297   5.987   2.232   3.110 -0.3433  0.1407 -0.2436
   20CHTO   H72 8298   6.022   2.280   3.037  1.2146  0.2878  0.5896
   20CHTO   O27 8299   5.700   2.204   3.202  0.8811 -0.5587 -0.4151
   20CHTO   C37 8300   5.605   2.151   3.104  0.3410  0.1185  1.0413
   20CHTO   H79 8301   5.504   2.156   3.148  1.1643 -1.8568  3.2243
   20CHTO   C38 8302   5.594   2.240   2.975 -0.1920 -0.4852  0.7196
   20CHTO   H80 8303   5.693   2.250   2.928 -0.2462 -1.6879  0.3303
   20CHTO   O31 8304   5.534   2.371   3.017 -0.3499 -0.3022  0.0736
   20CHTO   H68 8305   5.441   2.368   3.027 -0.1141 -0.4026  2.7312
   20CHTO   C39 8306   5.501   2.167   2.866 -0.1690 -0.4292  0.4846
   20CHTO   H81 8307   5.400   2.172   2.908 -0.2440 -0.2547  0.2800
   20CHTO    N7 8308   5.510   2.229   2.731  0.0260  0.3678 -0.2568
   20CHTO   H73 8309   5.479   2.332   2.745 -1.2826 -0.0740  0.1021
   20CHTO   H74 8310   5.437   2.193   2.660 -0.6126  1.3807 -0.1316
   20CHTO   C40 8311   5.537   2.012   2.867  0.0396 -0.4044  0.7119
   20CHTO   H82 8312   5.641   1.999   2.836 -0.4654 -1.1701 -0.7369
   20CHTO   O26 8313   5.518   1.966   3.002  0.0696 -0.4936  0.6115
   20CHTO   C41 8314   5.632   2.004   3.073 -0.5568  0.7864  0.2592
   20CHTO   H83 8315   5.727   1.995   3.019  0.4083  0.2073  2.0380
   20CHTO   C52 8316   5.629   1.920   3.207  0.2749 -0.2595  0.2935
   20CHTO   O35 8317   5.651   1.781   3.171  0.3548 -0.2503  0.4010
   20CHTO   H71 8318   5.712   1.745   3.233  1.0530 -0.5547 -0.4540
   20CHTO   O28 8319   5.452   1.930   2.783 -0.1765 -0.2627 -0.2618
   20CHTO   C42 8320   5.506   1.800   2.743  0.4116  0.0604 -0.4039
   20CHTO   H84 8321   5.428   1.750   2.686 -0.3930  0.3839  0.4023
   20CHTO   C44 8322   5.552   1.701   2.860  0.6522  0.1834  0.6899
   20CHTO   H86 8323   5.616   1.757   2.928  0.2330  1.7673 -0.1979
   20CHTO   O32 8324   5.433   1.675   2.934 -0.2153  0.0689 -0.6677
   20CHTO   H69 8325   5.391   1.757   2.952 -4.2043 -2.2932  1.3220
   20CHTO   C48 8326   5.613   1.562   2.810  0.4757  0.1372 -0.7082
   20CHTO   H90 8327   5.526   1.521   2.758  0.1315 -1.0889  0.7954
   20CHTO    N9 8328   5.660   1.458   2.900 -0.1116 -0.5307 -0.2286
   20CHTO   H77 8329   5.676   1.361   2.855  1.9304 -1.0805  1.5896
   20CHTO   H78 8330   5.593   1.443   2.984 -0.7606  0.3587 -0.5872
   20CHTO   C51 8331   5.727   1.596   2.703  0.7437  0.1749 -0.7222
   20CHTO   H93 8332   5.794   1.655   2.765 -0.2194  0.3756  0.1546
   20CHTO   O30 8333   5.669   1.668   2.594 -0.5363 -0.6705  0.2182
   20CHTO   C46 8334   5.626   1.818   2.647 -0.0634  0.0047 -0.1656
   20CHTO   H88 8335   5.710   1.859   2.704  0.0645 -2.5217  1.5209
   20CHTO   C53 8336   5.586   1.912   2.532  0.4632  0.0953 -0.4842
   20CHTO   O72 8337   5.694   1.951   2.445 -0.0335 -0.0007  0.7540
   20CHTO  H199 8338   5.744   2.017   2.489  0.5417  0.6446 -0.8056
   20CHTO   O22 8339   5.803   1.487   2.645  0.8999 -0.5282 -0.3998
   20CHTO   C31 8340   5.918   1.487   2.555 -0.0552  0.3933  0.2286
   20CHTO   H59 8341   5.873   1.474   2.455 -2.9460 -0.0208  1.5372
   20CHTO   C29 8342   6.010   1.610   2.555 -0.2904 -0.4991  0.0128
   20CHTO   H57 8343   6.042   1.625   2.660 -2.6704 -1.2981  0.8821
   20CHTO   O21 8344   5.925   1.720   2.516 -0.1146  0.3493  0.5616
   20CHTO   H37 8345   5.901   1.777   2.587  0.1085  0.6056  0.4332
   20CHTO   C27 8346   6.132   1.591   2.458 -0.1183 -0.2015  0.6535
   20CHTO   H55 8347   6.097   1.593   2.354  1.0211 -0.3271  0.2572
   20CHTO    N5 8348   6.231   1.697   2.471 -0.5756  0.5254 -0.0631
   20CHTO   H43 8349   6.210   1.775   2.542  1.5872 -0.2318  1.4503
   20CHTO   H44 8350   6.272   1.736   2.379 -1.2409  0.5364 -0.3647
   20CHTO   C25 8351   6.190   1.450   2.471  0.9090 -0.5799  0.1515
   20CHTO   H53 8352   6.244   1.437   2.566 -0.1949 -0.4298  0.8085
   20CHTO   O17 8353   6.095   1.342   2.474 -0.7515  0.5258  0.3642
   20CHTO   C32 8354   6.000   1.354   2.578 -0.0025  0.2047  0.4137
   20CHTO   H60 8355   6.054   1.363   2.672  0.5358 -0.4587  0.1668
   20CHTO   C36 8356   5.915   1.228   2.561  0.1608 -0.4140 -0.4328
   20CHTO   O25 8357   5.813   1.242   2.467 -0.2497  0.0259 -0.3301
   20CHTO   H40 8358   5.739   1.269   2.519 -1.3019  1.2484 -2.4150
   20CHTO   O15 8359   6.293   1.427   2.353 -0.3857  1.1339  0.3460
   20CHTO   C19 8360   6.439   1.390   2.334  0.5232  0.9632 -0.8429
   20CHTO   H47 8361   6.453   1.383   2.225  1.1893 -3.2884 -0.5674
   20CHTO   C20 8362   6.522   1.497   2.402 -0.8125 -0.6191 -0.5387
   20CHTO   H48 8363   6.490   1.519   2.505  0.3558 -1.7491  0.0771
   20CHTO   O19 8364   6.504   1.615   2.320 -0.3356 -0.0504 -0.8422
   20CHTO   H35 8365   6.556   1.604   2.243 -1.2460 -0.6374 -1.3797
   20CHTO   C21 8366   6.679   1.464   2.405  0.4312  0.2159  0.5453
   20CHTO   H49 8367   6.720   1.474   2.304  0.8745 -0.7467  0.6270
   20CHTO    N4 8368   6.753   1.569   2.482 -0.0873 -0.0717 -0.1971
   20CHTO   H41 8369   6.780   1.556   2.586  3.0486  2.9658 -0.5795
   20CHTO   H42 8370   6.837   1.608   2.428 -0.9484  1.1500 -0.6833
   20CHTO   C22 8371   6.699   1.320   2.451 -0.3244 -0.7143  0.7039
   20CHTO   H50 8372   6.667   1.319   2.555 -0.5736  0.2958  0.6388
   20CHTO   O14 8373   6.622   1.226   2.379 -0.1645 -0.6851  0.3081
   20CHTO   C23 8374   6.481   1.242   2.395 -0.2829 -0.7830  0.1546
   20CHTO   H51 8375   6.472   1.236   2.505  2.4324 -2.3125  0.3378
   20CHTO   C34 8376   6.408   1.134   2.332  0.0200  0.2834  0.2076
   20CHTO   O23 8377   6.424   1.005   2.387  0.3114 -0.2639  0.2408
   20CHTO   H38 8378   6.358   0.948   2.352  0.6995 -1.7394  1.8308
   20CHTO   O16 8379   6.836   1.285   2.436  0.1031  0.7494  0.0151
   20CHTO   C24 8380   6.868   1.111   2.427  0.5881 -0.0929 -0.1234
   20CHTO   H52 8381   6.780   1.055   2.396  0.0084  1.8746 -2.1504
   20CHTO   C26 8382   6.919   1.061   2.564  0.0134 -0.2614 -0.6660
   20CHTO   H54 8383   7.018   1.106   2.586 -0.2754  0.2647 -0.4431
   20CHTO   O20 8384   6.823   1.087   2.671 -0.4416 -0.4183  0.3421
   20CHTO   H36 8385   6.844   1.041   2.750  1.5551 -1.3149 -0.6666
   20CHTO   C30 8386   6.955   0.908   2.554 -0.0953  0.4868 -0.1844
   20CHTO   H58 8387   6.865   0.845   2.542  0.3077  0.5266 -4.0909
   20CHTO    N6 8388   7.021   0.856   2.681 -0.9061 -0.6685 -0.2723
   20CHTO   H45 8389   7.113   0.800   2.680 -1.0424 -0.9018  0.4170
   20CHTO   H46 8390   6.947   0.796   2.733 -1.5480 -0.1416 -0.5672
   20CHTO   C33 8391   7.043   0.869   2.425  0.2940 -0.1086 -1.3787
   20CHTO   H61 8392   7.148   0.887   2.449 -0.9336  2.2279  2.8118
   20CHTO   O18 8393   7.005   0.946   2.308  0.2452  0.0954  0.2041
   20CHTO   C28 8394   6.973   1.089   2.319 -0.5585  0.4162 -0.1618
   20CHTO   H56 8395   7.055   1.159   2.334 -2.1783  2.2752  0.4017
   20CHTO   C35 8396   6.914   1.131   2.177  0.0899  0.5003 -0.2004
   20CHTO   O24 8397   6.908   1.276   2.154  0.0348 -0.1613  0.6608
   20CHTO   H39 8398   6.851   1.297   2.082  0.4188 -0.2651  0.3312
   20CHTO    O9 8399   7.038   0.728   2.404 -0.0890  0.2849  0.5257
   20CHTO   C13 8400   6.928   0.663   2.303 -1.1941 -0.5554 -0.2748
   20CHTO   H26 8401   6.989   0.646   2.211 -0.5211 -1.8758  0.4021
   20CHTO   C11 8402   6.794   0.744   2.264  0.4025 -0.4425 -0.4046
   20CHTO   H24 8403   6.829   0.824   2.197  0.3909  0.9857  1.2470
   20CHTO    O8 8404   6.731   0.795   2.382 -0.7179  0.0456 -0.4522
   20CHTO    H3 8405   6.676   0.871   2.373 -0.2336  0.6301  1.3637
   20CHTO    C9 8406   6.701   0.646   2.189 -0.4122  0.5830  0.1317
   20CHTO   H22 8407   6.752   0.616   2.097  0.2158  0.0901  0.6366
   20CHTO    N2 8408   6.574   0.709   2.139 -0.6781 -0.4513 -0.0217
   20CHTO   H10 8409   6.593   0.810   2.104 -0.1451 -0.3194  0.6448
   20CHTO   H11 8410   6.499   0.717   2.216  0.4704  1.0740  0.9826
   20CHTO    C7 8411   6.663   0.519   2.270  0.2815 -0.2144 -0.0496
   20CHTO   H20 8412   6.615   0.455   2.193  0.9380  0.6379 -1.1791
   20CHTO    O4 8413   6.782   0.448   2.317  0.7845  0.7384  0.1342
   20CHTO   C14 8414   6.904   0.513   2.366  0.1526  0.5994  0.3585
   20CHTO   H27 8415   6.989   0.452   2.330 -0.4107 -0.5238  0.9083
   20CHTO   C18 8416   6.907   0.503   2.522  0.1729  0.6412  0.6195
   20CHTO   O13 8417   6.790   0.574   2.578  0.1093 -0.3407 -0.5464
   20CHTO    H7 8418   6.803   0.588   2.670 -0.2080  1.0706 -0.7180
   20CHTO    O2 8419   6.576   0.561   2.405  0.2615  0.3553  0.1878
   20CHTO    C1 8420   6.480   0.472   2.457  0.5677 -0.1358 -0.2704
   20CHTO   H14 8421   6.459   0.504   2.561  1.8971 -0.7058  0.1876
   20CHTO    C2 8422   6.522   0.326   2.462 -0.5196 -0.4279 -0.0236
   20CHTO   H15 8423   6.545   0.293   2.360  1.8246  0.5232  0.1665
   20CHTO    O6 8424   6.641   0.316   2.551 -0.7463  0.0261 -0.3201
   20CHTO    H1 8425   6.625   0.272   2.632  1.0032 -2.2581 -1.1415
   20CHTO    C3 8426   6.406   0.239   2.521 -0.3391  0.2112 -0.0658
   20CHTO   H16 8427   6.386   0.274   2.623 -0.0379 -0.5854  0.2696
   20CHTO    N1 8428   6.443   0.092   2.524  0.9054  0.4117 -0.1549
   20CHTO    H8 8429   6.367   0.016   2.538  1.8745 -0.2618  1.7322
   20CHTO    H9 8430   6.506   0.078   2.611  0.8511  0.8614 -0.0407
   20CHTO    C4 8431   6.270   0.270   2.440 -1.0266 -0.1336  0.0771
   20CHTO   H17 8432   6.270   0.224   2.341  0.4308 -0.4421  0.2145
   20CHTO    O1 8433   6.249   0.406   2.418  0.0560 -0.3932  0.1443
   20CHTO    C5 8434   6.352   0.496   2.378  0.1672  0.4032  0.3253
   20CHTO   H18 8435   6.374   0.487   2.271 -1.4847 -2.4736  0.2060
   20CHTO   C16 8436   6.291   0.643   2.403  0.1533 -0.3721  0.5155
   20CHTO   O11 8437   6.190   0.678   2.311 -0.2662  0.0251 -0.4219
   20CHTO    H5 8438   6.105   0.653   2.339  0.8377 -2.9191  0.5083
   20CHTO    O3 8439   6.158   0.206   2.517  0.1935  0.2853  0.0335
   20CHTO    C6 8440   6.034   0.201   2.443 -0.2877  0.6808  1.2085
   20CHTO   H19 8441   6.030   0.264   2.353  2.1800  1.1558  1.3954
   20CHTO    C8 8442   6.011   0.055   2.395  0.3619 -0.0479  0.2655
   20CHTO   H21 8443   6.033  -0.010   2.479 -1.8082 -1.0323  0.1123
   20CHTO    O7 8444   6.106   0.031   2.290 -0.6022 -0.2752  0.5120
   20CHTO    H2 8445   6.189   0.033   2.332  1.3453  1.0269 -3.1735
   20CHTO   C12 8446   5.863   0.037   2.338 -1.0073  0.0152 -0.1950
   20CHTO   H25 8447   5.861   0.099   2.246 -1.5108 -0.6121 -0.6056
   20CHTO    N3 8448   5.840  -0.101   2.292 -0.6579 -0.1973 -0.0960
   20CHTO   H12 8449   5.738  -0.116   2.259 -0.4394 -0.5866 -0.5806
   20CHTO   H13 8450   5.862  -0.171   2.372 -1.0549  0.2524  0.4123
   20CHTO   C15 8451   5.758   0.098   2.437 -0.5807  0.0049 -0.3678
   20CHTO   H28 8452   5.752   0.043   2.531  0.4879  0.3700 -0.0781
   20CHTO   O10 8453   5.632   0.105   2.369  0.1909 -0.2548 -0.4336
   20CHTO    H4 8454   5.565   0.065   2.420 -0.9474  3.1779  0.8691
   20CHTO    O5 8455   5.785   0.236   2.463  0.2811 -0.3800 -0.0119
   20CHTO   C10 8456   5.913   0.245   2.529  0.2844 -0.4972  0.3382
   20CHTO   H23 8457   5.919   0.177   2.614  0.1185  0.7523  1.3592
   20CHTO   C17 8458   5.937   0.387   2.584 -0.2524  0.4500  0.0293
   20CHTO   O12 8459   6.043   0.405   2.683  0.4781 -0.3789 -0.4712
   20CHTO    H6 8460   6.011   0.404   2.771 -0.3854 -0.6233 -0.7879
   21GLOH   H03 8461   3.921   0.614   2.416 -0.7327 -0.5485  0.8728
   21GLOH    O1 8462   3.926   0.567   2.331 -0.5871  0.8871  0.0796
   21GLOH    C1 8463   4.032   0.479   2.328 -0.5794 -0.0641 -0.6513
   21GLOH   H02 8464   4.066   0.449   2.427  1.0082  0.7385 -0.9270
   21GLOH   H08 8465   4.124   0.522   2.286 -1.4522  0.7216 -1.7900
   21GLOH    C2 8466   4.012   0.347   2.248  0.2811 -0.0042  0.3940
   21GLOH   H04 8467   4.014   0.366   2.139  0.3365  1.7544  0.6780
   21GLOH    O2 8468   4.119   0.257   2.274 -0.3004  0.2384  0.6853
   21GLOH   H05 8469   4.196   0.304   2.237  0.8078 -1.4615  0.7864
   21GLOH    C3 8470   3.876   0.284   2.285 -0.4175  0.3378  0.4855
   21GLOH   H06 8471   3.857   0.269   2.391 -0.4573 -0.1048  0.4179
   21GLOH   H07 8472   3.878   0.184   2.241 -1.7185  0.0276  1.1169
   21GLOH    O3 8473   3.769   0.362   2.219  0.0932 -0.3645 -0.2618
   21GLOH   H01 8474   3.687   0.361   2.272 -1.1824  1.2005 -2.1436
   22GLOH   H03 8475   4.676   0.897   1.189  2.2776 -0.5469  0.6711
   22GLOH    O1 8476   4.673   0.993   1.204 -0.0336 -0.4381 -0.4235
   22GLOH    C1 8477   4.533   1.029   1.176  0.4577  0.2618 -0.2519
   22GLOH   H02 8478   4.485   1.021   1.273  0.2607 -1.4494 -0.4831
   22GLOH   H08 8479   4.485   0.953   1.116 -0.6360  0.1578  0.7457
   22GLOH    C2 8480   4.515   1.156   1.097 -0.3476 -0.2748 -0.1767
   22GLOH   H04 8481   4.538   1.145   0.990  0.3249  1.2767 -0.1960
   22GLOH    O2 8482   4.381   1.193   1.110 -0.8458  0.3354  0.3343
   22GLOH   H05 8483   4.337   1.201   1.023 -1.0035 -1.4929  0.2352
   22GLOH    C3 8484   4.600   1.271   1.159  0.0585  0.0754 -0.3963
   22GLOH   H06 8485   4.555   1.286   1.257 -1.8947 -0.9775 -1.1149
   22GLOH   H07 8486   4.582   1.363   1.102  0.5672  0.2924 -0.2108
   22GLOH    O3 8487   4.746   1.252   1.181  0.7705  0.2589  0.4085
   22GLOH   H01 8488   4.756   1.155   1.177  1.3699  0.3742 -1.0097
   23GLOH   H03 8489   2.823   5.223   1.196 -0.4382  0.5154 -0.6869
   23GLOH    O1 8490   2.832   5.315   1.227  0.1558  0.0129  0.6676
   23GLOH    C1 8491   2.831   5.393   1.105  0.0992 -0.0076 -0.0061
   23GLOH   H02 8492   2.779   5.344   1.023 -0.8382 -1.2136  1.2768
   23GLOH   H08 8493   2.931   5.412   1.066 -0.1183  1.2319  0.0054
   23GLOH    C2 8494   2.749   5.528   1.130 -0.4468  0.0897 -0.3929
   23GLOH   H04 8495   2.747   5.591   1.040 -0.3500  0.1709 -0.3385
   23GLOH    O2 8496   2.613   5.499   1.169 -0.4534 -0.1303 -0.0671
   23GLOH   H05 8497   2.569   5.449   1.097  0.7696 -2.2416  0.6173
   23GLOH    C3 8498   2.812   5.629   1.234 -0.4634  0.5628  0.0693
   23GLOH   H06 8499   2.791   5.591   1.334 -0.1819  2.0052  0.6972
   23GLOH   H07 8500   2.769   5.727   1.210 -1.4038  0.4326  1.1680
   23GLOH    O3 8501   2.962   5.636   1.233  0.1334  0.0905  0.3076
   23GLOH   H01 8502   2.986   5.641   1.138  1.6460  0.6109  0.7069
   24GLOH   H03 8503   4.860   2.127   0.716  0.8431 -0.7398  0.0552
   24GLOH    O1 8504   4.929   2.182   0.674  0.1659  0.2344  0.1919
   24GLOH    C1 8505   5.037   2.087   0.649 -0.0321 -0.6050  0.2180
   24GLOH   H02 8506   5.006   2.019   0.569 -2.4033 -0.8108  1.2811
   24GLOH   H08 8507   5.046   2.023   0.737  1.4404 -1.2743 -0.3951
   24GLOH    C2 8508   5.172   2.154   0.628  1.0802  0.2544 -0.1698
   24GLOH   H04 8509   5.167   2.249   0.684 -0.8524  0.4768 -0.6859
   24GLOH    O2 8510   5.280   2.075   0.687 -0.5686 -0.4998  0.5166
   24GLOH   H05 8511   5.276   1.984   0.652 -1.1370 -0.7478  1.1975
   24GLOH    C3 8512   5.203   2.175   0.478 -0.1039  0.3849 -0.1637
   24GLOH   H06 8513   5.232   2.077   0.440 -0.3566 -0.5011  1.8792
   24GLOH   H07 8514   5.292   2.236   0.471  0.3559 -0.1347  1.0203
   24GLOH    O3 8515   5.092   2.234   0.400 -0.3519 -0.3191  0.0213
   24GLOH   H01 8516   5.084   2.322   0.441  0.2402 -1.0731  1.8516
   25GLOH   H03 8517   3.388   1.031   1.525 -0.6678 -0.1497 -0.3259
   25GLOH    O1 8518   3.369   0.936   1.516 -0.5048 -0.2288  0.1276
   25GLOH    C1 8519   3.481   0.860   1.568  0.5049  0.2965 -0.1618
   25GLOH   H02 8520   3.451   0.758   1.545  0.3084  0.5261 -0.9379
   25GLOH   H08 8521   3.483   0.874   1.676 -0.6844  1.1080 -0.2371
   25GLOH    C2 8522   3.617   0.895   1.502  0.4622  0.4004  0.0015
   25GLOH   H04 8523   3.596   0.939   1.403  0.3136 -0.5859 -0.4045
   25GLOH    O2 8524   3.685   0.997   1.583 -0.3871 -0.4599  0.0718
   25GLOH   H05 8525   3.715   1.066   1.522  0.0967 -0.2275  0.5747
   25GLOH    C3 8526   3.698   0.768   1.490  0.5158 -0.4824  0.2722
   25GLOH   H06 8527   3.681   0.715   1.584  1.6608 -1.2789  0.0384
   25GLOH   H07 8528   3.802   0.801   1.483  0.5123 -0.0897  1.8971
   25GLOH    O3 8529   3.654   0.686   1.380 -0.0224  0.1866 -0.1934
   25GLOH   H01 8530   3.595   0.614   1.408  1.0588 -0.4048  0.6189
   26GLOH   H03 8531   4.168   3.205   2.431 -2.1008 -2.6377 -0.3882
   26GLOH    O1 8532   4.232   3.141   2.466  0.2759 -0.1602 -0.0483
   26GLOH    C1 8533   4.354   3.210   2.498  0.7627  0.2739 -0.4687
   26GLOH   H02 8534   4.333   3.311   2.533 -3.6100 -1.0181  1.0142
   26GLOH   H08 8535   4.424   3.220   2.415  1.2846 -1.4968 -0.2606
   26GLOH    C2 8536   4.431   3.140   2.611 -0.2059 -0.5243  0.6536
   26GLOH   H04 8537   4.464   3.043   2.572 -3.0622 -1.6099  0.7869
   26GLOH    O2 8538   4.552   3.212   2.648  0.0068  0.7004  0.1473
   26GLOH   H05 8539   4.617   3.149   2.686 -0.8300 -0.1907  0.1228
   26GLOH    C3 8540   4.337   3.114   2.728 -0.3268 -0.6901  0.3189
   26GLOH   H06 8541   4.385   3.075   2.817 -0.5529 -1.5554  0.0630
   26GLOH   H07 8542   4.262   3.038   2.706 -1.9984  0.4325  2.0087
   26GLOH    O3 8543   4.270   3.233   2.776 -0.1750  0.2545  0.8598
   26GLOH   H01 8544   4.178   3.243   2.745  0.7004 -0.4206 -2.0723
   27GLOH   H03 8545   3.353   5.424   1.625 -1.8712 -0.6794 -0.1339
   27GLOH    O1 8546   3.326   5.473   1.704 -0.5166  0.5807 -0.4338
   27GLOH    C1 8547   3.428   5.514   1.794  0.3949 -0.8780  0.7430
   27GLOH   H02 8548   3.524   5.507   1.742 -0.2181 -1.6458 -0.2875
   27GLOH   H08 8549   3.428   5.447   1.879  0.9294 -1.8558 -0.0135
   27GLOH    C2 8550   3.403   5.656   1.850  0.4417 -0.1004  0.1615
   27GLOH   H04 8551   3.370   5.735   1.781 -1.2409  0.1383  1.2185
   27GLOH    O2 8552   3.293   5.669   1.937 -0.3667 -0.1120  0.5644
   27GLOH   H05 8553   3.298   5.761   1.967 -2.3753  0.0535  0.4893
   27GLOH    C3 8554   3.532   5.710   1.908 -0.1754  0.7371  0.2284
   27GLOH   H06 8555   3.535   5.819   1.904  0.4643  0.6845 -0.8195
   27GLOH   H07 8556   3.617   5.678   1.848 -0.5815  1.4979 -0.7743
   27GLOH    O3 8557   3.553   5.660   2.045  0.0305  0.0741 -0.2961
   27GLOH   H01 8558   3.480   5.695   2.099 -0.0639 -0.6639  0.0576
   28GLOH   H03 8559   3.661   9.772   1.516 -0.7238  0.7013 -2.0946
   28GLOH    O1 8560   3.733   9.711   1.490 -0.3332  0.2224  0.0230
   28GLOH    C1 8561   3.829   9.767   1.390 -0.2043 -0.2265  0.1946
   28GLOH   H02 8562   3.795   9.732   1.293  0.6698  0.5337 -0.3904
   28GLOH   H08 8563   3.924   9.713   1.393  0.2259  0.5744  1.9394
   28GLOH    C2 8564   3.858   9.918   1.382  0.7636  0.9187 -0.2447
   28GLOH   H04 8565   3.766   9.970   1.351  0.7551  0.8013 -0.4137
   28GLOH    O2 8566   3.896   9.975   1.508 -0.1614  0.0941 -0.5013
   28GLOH   H05 8567   3.920  10.068   1.492 -1.2185  0.2835 -0.9987
   28GLOH    C3 8568   3.964   9.940   1.275 -0.5952 -0.7263 -0.1002
   28GLOH   H06 8569   4.062   9.902   1.302 -0.6082  0.2766  1.4142
   28GLOH   H07 8570   3.979  10.048   1.274  2.1209 -1.0378  2.0074
   28GLOH    O3 8571   3.920   9.905   1.145  0.4085 -0.2669 -0.0701
   28GLOH   H01 8572   3.858   9.971   1.109 -1.4730 -0.6230  2.4062
   29GLOH   H03 8573   2.001   1.828   0.926  0.1114  1.6024  1.2703
   29GLOH    O1 8574   2.030   1.890   0.856  0.3860 -0.1360 -0.1752
   29GLOH    C1 8575   2.160   1.950   0.881 -0.8010 -0.3318 -0.8768
   29GLOH   H02 8576   2.230   1.877   0.920 -2.0681  0.1320  2.3530
   29GLOH   H08 8577   2.154   2.020   0.964 -0.2871 -0.3913 -0.7878
   29GLOH    C2 8578   2.244   2.015   0.770  0.4309 -0.4289  0.4386
   29GLOH   H04 8579   2.276   1.939   0.697 -3.2028 -2.1195  0.4558
   29GLOH    O2 8580   2.148   2.094   0.694  0.2373  0.2636  0.0696
   29GLOH   H05 8581   2.092   2.144   0.755 -0.3840 -0.1907 -0.1255
   29GLOH    C3 8582   2.365   2.083   0.825  0.1938 -0.3433 -0.6939
   29GLOH   H06 8583   2.406   2.023   0.905 -1.3876 -0.9708 -0.3436
   29GLOH   H07 8584   2.322   2.166   0.882 -0.0503 -0.4947 -0.6571
   29GLOH    O3 8585   2.459   2.123   0.727 -0.1612  0.7948  0.4296
   29GLOH   H01 8586   2.450   2.065   0.649 -1.4846 -0.2853  1.3608
   30GLOH   H03 8587   2.403   4.961   1.788  0.8287 -0.2080 -1.1550
   30GLOH    O1 8588   2.451   4.980   1.871 -0.6951 -0.5115 -0.1945
   30GLOH    C1 8589   2.376   4.921   1.980  0.1900 -0.7808 -0.2558
   30GLOH   H02 8590   2.344   4.821   1.950  0.4805 -1.1048  0.5015
   30GLOH   H08 8591   2.288   4.983   2.000  1.5663  1.3586 -0.7029
   30GLOH    C2 8592   2.458   4.933   2.109  0.9701  0.0271 -0.6983
   30GLOH   H04 8593   2.459   5.041   2.127 -0.8047 -0.1722  0.7965
   30GLOH    O2 8594   2.393   4.860   2.215  0.2018  0.0003  0.3651
   30GLOH   H05 8595   2.448   4.861   2.294 -2.6472 -0.4495  2.4557
   30GLOH    C3 8596   2.602   4.872   2.092 -0.1137 -0.2169 -0.8023
   30GLOH   H06 8597   2.595   4.764   2.081  0.6238 -0.2370 -1.0804
   30GLOH   H07 8598   2.664   4.893   2.179 -1.5706  0.0178  0.1956
   30GLOH    O3 8599   2.668   4.934   1.981 -0.1672 -0.3972 -0.0722
   30GLOH   H01 8600   2.598   4.964   1.920  0.7466 -1.3334 -1.6125
   31GLOH   H03 8601   4.804   1.487   2.552 -1.0537  0.7266  1.2742
   31GLOH    O1 8602   4.899   1.494   2.569 -0.9347  0.3101  0.8132
   31GLOH    C1 8603   4.943   1.626   2.619 -0.1658  0.7936  0.0460
   31GLOH   H02 8604   4.914   1.634   2.724  2.5350 -0.1914  0.9176
   31GLOH   H08 8605   4.899   1.707   2.561 -1.7593 -0.9717 -1.2458
   31GLOH    C2 8606   5.097   1.648   2.626 -0.0234 -0.0540 -0.5038
   31GLOH   H04 8607   5.144   1.643   2.527  0.3055  0.3365 -0.3719
   31GLOH    O2 8608   5.103   1.784   2.673  0.5158 -0.4015  0.3358
   31GLOH   H05 8609   5.164   1.839   2.620  0.7045  0.3168  1.2854
   31GLOH    C3 8610   5.171   1.545   2.713 -0.2965  0.4194 -0.0574
   31GLOH   H06 8611   5.161   1.580   2.816  0.3045  1.2449 -0.2641
   31GLOH   H07 8612   5.277   1.554   2.688 -0.3952 -0.7111 -0.8829
   31GLOH    O3 8613   5.125   1.410   2.688 -0.2384  0.5733  0.4238
   31GLOH   H01 8614   5.054   1.408   2.621 -0.4753  0.1580  0.6871
   32GLOH   H03 8615   3.179   0.323   0.272 -0.3021 -0.0878 -0.8613
   32GLOH    O1 8616   3.182   0.419   0.291 -0.2019 -0.1607 -0.5016
   32GLOH    C1 8617   3.060   0.467   0.343 -0.0274 -0.0478  0.2604
   32GLOH   H02 8618   3.023   0.396   0.418  0.8423 -0.7856 -0.0005
   32GLOH   H08 8619   2.992   0.466   0.257  0.5035  2.9307 -0.2330
   32GLOH    C2 8620   3.046   0.610   0.403  0.1944  0.7226 -0.5793
   32GLOH   H04 8621   3.078   0.691   0.335  0.5293  0.1452 -1.1130
   32GLOH    O2 8622   2.904   0.651   0.409 -0.1476  0.5995  0.9744
   32GLOH   H05 8623   2.863   0.649   0.321  0.8794 -0.0115  0.5033
   32GLOH    C3 8624   3.125   0.636   0.533  0.5252 -0.2272  0.5145
   32GLOH   H06 8625   3.118   0.550   0.599  0.2367  0.1668  1.0051
   32GLOH   H07 8626   3.101   0.725   0.592  1.7320  0.7196 -0.4009
   32GLOH    O3 8627   3.270   0.646   0.502  0.0914 -0.5564 -0.4701
   32GLOH   H01 8628   3.305   0.555   0.491 -0.7766 -0.9478 -0.0424
   33GLOH   H03 8629   2.862   5.858   0.279 -1.2588 -0.5507 -1.5151
   33GLOH    O1 8630   2.922   5.793   0.239  0.1638  0.0030 -0.3117
   33GLOH    C1 8631   2.971   5.713   0.349  0.1343 -0.3246  0.7816
   33GLOH   H02 8632   3.028   5.625   0.317  0.1426 -0.1630  0.3426
   33GLOH   H08 8633   2.880   5.684   0.401  0.7017  0.3378  2.1673
   33GLOH    C2 8634   3.057   5.799   0.449  0.3829 -0.5573  0.0302
   33GLOH   H04 8635   2.996   5.874   0.499  0.6935  0.1173 -0.5925
   33GLOH    O2 8636   3.119   5.730   0.554 -0.0574  0.5365 -0.2555
   33GLOH   H05 8637   3.198   5.692   0.513  0.0111  0.2661  0.1256
   33GLOH    C3 8638   3.164   5.871   0.361 -0.0295  0.7993 -0.3318
   33GLOH   H06 8639   3.232   5.927   0.425 -1.9584 -0.1031  2.5859
   33GLOH   H07 8640   3.117   5.946   0.298 -0.8830  1.0654  0.6144
   33GLOH    O3 8641   3.239   5.782   0.274  0.1754  0.9744  0.4712
   33GLOH   H01 8642   3.290   5.723   0.334  1.8699 -1.4728 -3.1917
   34GLOH   H03 8643   3.712   0.364   1.171 -0.5279  0.2386 -1.5825
   34GLOH    O1 8644   3.686   0.270   1.171  0.5617 -0.0789 -0.0578
   34GLOH    C1 8645   3.558   0.245   1.230  0.2256 -0.1273 -0.0124
   34GLOH   H02 8646   3.543   0.305   1.320 -0.7226  0.3354 -0.4805
   34GLOH   H08 8647   3.548   0.142   1.265 -1.0462 -0.0960 -0.2604
   34GLOH    C2 8648   3.439   0.265   1.135  0.0179  0.5249 -0.5315
   34GLOH   H04 8649   3.452   0.187   1.058  1.5362  0.6573 -0.4332
   34GLOH    O2 8650   3.313   0.245   1.197  0.0568  0.3969  0.2896
   34GLOH   H05 8651   3.261   0.200   1.128 -1.3598  1.7358  0.4677
   34GLOH    C3 8652   3.443   0.401   1.067 -0.5260 -0.8646 -0.2248
   34GLOH   H06 8653   3.463   0.482   1.137  1.6091 -1.8978  0.4116
   34GLOH   H07 8654   3.349   0.428   1.020 -0.5542  0.0742  0.3448
   34GLOH    O3 8655   3.550   0.386   0.972 -0.0921 -0.2240 -0.5841
   34GLOH   H01 8656   3.514   0.352   0.888 -0.6000  0.9198 -0.8365
   35GLOH   H03 8657   2.770   5.133   1.636 -0.0002  2.1274  0.0292
   35GLOH    O1 8658   2.866   5.116   1.639 -0.3393 -0.0793 -0.4059
   35GLOH    C1 8659   2.908   5.227   1.726 -0.1149 -0.2092  0.8525
   35GLOH   H02 8660   2.923   5.194   1.829  1.3738 -0.6310  0.5138
   35GLOH   H08 8661   2.834   5.307   1.731 -0.8032 -0.8947  1.8911
   35GLOH    C2 8662   3.051   5.280   1.688 -0.6683  0.4432 -0.1531
   35GLOH   H04 8663   3.059   5.294   1.579  0.4357 -1.1832 -0.2870
   35GLOH    O2 8664   3.069   5.405   1.757  0.2061  0.1725  0.5843
   35GLOH   H05 8665   3.152   5.444   1.725  0.6049 -2.3644 -1.7006
   35GLOH    C3 8666   3.153   5.174   1.741 -0.3731  0.3791  0.7323
   35GLOH   H06 8667   3.142   5.177   1.850 -0.6954 -0.4363  0.7275
   35GLOH   H07 8668   3.256   5.200   1.716 -0.0530 -1.2292  0.3730
   35GLOH    O3 8669   3.135   5.042   1.690 -0.2570 -0.0119 -0.0594
   35GLOH   H01 8670   3.064   5.012   1.750 -0.2782  1.2663  0.5628
   36GLOH   H03 8671   3.619   7.529   2.899 -0.0012  0.4048  0.3377
   36GLOH    O1 8672   3.527   7.513   2.871  0.0743 -0.0023  0.3239
   36GLOH    C1 8673   3.495   7.387   2.929 -0.1124 -0.3739  0.0294
   36GLOH   H02 8674   3.486   7.399   3.037 -0.3518  0.7099 -0.1007
   36GLOH   H08 8675   3.572   7.314   2.905 -0.0965 -0.1303 -0.6977
   36GLOH    C2 8676   3.363   7.334   2.871  0.0609  0.8182 -0.4735
   36GLOH   H04 8677   3.375   7.303   2.766 -1.3645  2.4213 -1.1473
   36GLOH    O2 8678   3.327   7.217   2.947 -0.0333  0.4075 -0.4400
   36GLOH   H05 8679   3.246   7.184   2.904 -0.4276 -0.6980  1.1385
   36GLOH    C3 8680   3.256   7.446   2.873  0.2369  0.3395 -0.5120
   36GLOH   H06 8681   3.224   7.475   2.974 -1.3234 -1.3220 -0.5066
   36GLOH   H07 8682   3.165   7.401   2.834  1.0408 -1.2349 -0.5947
   36GLOH    O3 8683   3.287   7.560   2.793  0.5298 -0.3138  0.1962
   36GLOH   H01 8684   3.375   7.592   2.822  0.5561 -0.3386  0.1444
   37GLOH   H03 8685   4.763   3.795   2.289 -0.6166 -3.1205 -0.7750
   37GLOH    O1 8686   4.858   3.771   2.286 -0.0048 -0.8083 -0.3245
   37GLOH    C1 8687   4.904   3.747   2.152 -0.3307  0.1655 -0.7760
   37GLOH   H02 8688   5.004   3.789   2.145 -0.3369  1.3379  4.2250
   37GLOH   H08 8689   4.841   3.798   2.079 -0.1255 -0.7332 -1.5932
   37GLOH    C2 8690   4.908   3.598   2.114 -0.0974 -0.2926 -0.2342
   37GLOH   H04 8691   4.812   3.550   2.138  0.6000 -2.1685 -1.1441
   37GLOH    O2 8692   4.942   3.572   1.981 -0.1799 -0.2537 -0.4616
   37GLOH   H05 8693   4.878   3.513   1.937 -0.5266 -0.2847  0.0934
   37GLOH    C3 8694   5.018   3.534   2.198  0.3517 -0.0221  0.7271
   37GLOH   H06 8695   5.095   3.611   2.204  0.0163  0.3918 -0.2389
   37GLOH   H07 8696   5.060   3.449   2.145  1.3849  1.4132 -0.8004
   37GLOH    O3 8697   4.971   3.513   2.333  0.2525 -0.4862  0.0411
   37GLOH   H01 8698   4.951   3.602   2.365  1.7956  0.7611 -2.3048
   38GLOH   H03 8699   2.784   6.763   2.447 -0.8249  2.0995 -0.4912
   38GLOH    O1 8700   2.859   6.749   2.386 -0.6902 -0.6895  0.2735
   38GLOH    C1 8701   2.920   6.622   2.403 -0.0796 -0.3228  0.7521
   38GLOH   H02 8702   2.926   6.600   2.510 -0.8696 -2.3433  0.4048
   38GLOH   H08 8703   3.026   6.632   2.381 -0.2848  0.8234  0.2814
   38GLOH    C2 8704   2.852   6.512   2.320  0.0765 -0.1068  0.1473
   38GLOH   H04 8705   2.822   6.556   2.224  0.1589  0.4299  0.3634
   38GLOH    O2 8706   2.938   6.393   2.309 -0.3017  0.1064 -0.0488
   38GLOH   H05 8707   3.026   6.416   2.275 -0.8882  0.6247 -1.2550
   38GLOH    C3 8708   2.715   6.472   2.378 -0.1297 -0.2591 -0.2749
   38GLOH   H06 8709   2.645   6.555   2.379 -0.6286 -0.6989  1.3573
   38GLOH   H07 8710   2.715   6.443   2.483 -0.7430 -0.3030 -0.2897
   38GLOH    O3 8711   2.653   6.366   2.304 -0.2618  0.0126  0.0461
   38GLOH   H01 8712   2.618   6.408   2.223  2.3004  1.0283 -0.5972
   39GLOH   H03 8713   2.295   5.332   0.620  0.2606 -1.1403  0.2849
   39GLOH    O1 8714   2.392   5.340   0.633  0.2241 -0.5546  0.1688
   39GLOH    C1 8715   2.461   5.320   0.509 -0.0832 -0.1336 -0.0208
   39GLOH   H02 8716   2.567   5.344   0.517  0.0301 -0.2033 -1.2162
   39GLOH   H08 8717   2.427   5.389   0.433  0.2566 -0.4185 -0.4354
   39GLOH    C2 8718   2.438   5.186   0.444  0.3453  0.3788  0.4394
   39GLOH   H04 8719   2.334   5.165   0.414  0.6274  0.5879 -0.7328
   39GLOH    O2 8720   2.523   5.187   0.326  0.8971  0.0852  0.0070
   39GLOH   H05 8721   2.612   5.150   0.341  1.8909  2.0149 -1.0164
   39GLOH    C3 8722   2.477   5.073   0.535  0.5740  0.1587  0.4117
   39GLOH   H06 8723   2.573   5.088   0.584  0.8940 -2.2581  0.5976
   39GLOH   H07 8724   2.479   4.987   0.469  3.4769  0.3537  0.2167
   39GLOH    O3 8725   2.380   5.037   0.642  0.1437  0.0359 -0.0179
   39GLOH   H01 8726   2.384   5.105   0.712 -0.1452 -0.8135  0.8328
   40GLOH   H03 8727   4.131   0.395   1.287 -1.6699  0.4226  0.7215
   40GLOH    O1 8728   4.180   0.342   1.352  0.1709  0.2791 -0.7259
   40GLOH    C1 8729   4.321   0.382   1.363  0.1802 -0.4168 -0.0231
   40GLOH   H02 8730   4.380   0.322   1.432  0.3987  0.3209  0.4445
   40GLOH   H08 8731   4.332   0.482   1.406  1.7126 -1.1060  1.2228
   40GLOH    C2 8732   4.387   0.376   1.223 -0.1403 -0.2219 -0.0084
   40GLOH   H04 8733   4.318   0.425   1.152  1.4839 -0.3172 -1.6864
   40GLOH    O2 8734   4.513   0.436   1.216 -0.5073 -0.1908 -0.3038
   40GLOH   H05 8735   4.505   0.532   1.229 -1.9574 -0.3451  0.0312
   40GLOH    C3 8736   4.401   0.226   1.179  0.4551  0.2732 -0.3626
   40GLOH   H06 8737   4.465   0.177   1.252 -0.4792 -0.0004  0.2845
   40GLOH   H07 8738   4.447   0.212   1.081  1.0847  1.8182 -0.2963
   40GLOH    O3 8739   4.270   0.167   1.179  0.4001 -0.5492  0.8408
   40GLOH   H01 8740   4.212   0.202   1.249 -0.8226 -4.0862  1.6816
   41GLOH   H03 8741   2.298   9.563   1.279  2.0113  0.6630 -0.1987
   41GLOH    O1 8742   2.296   9.636   1.343 -0.5768  0.2074  0.2829
   41GLOH    C1 8743   2.359   9.593   1.468  0.1846 -0.0730 -0.1333
   41GLOH   H02 8744   2.434   9.521   1.437  0.3218 -0.0121  0.0612
   41GLOH   H08 8745   2.279   9.550   1.528  0.5260  0.9524  1.0550
   41GLOH    C2 8746   2.430   9.703   1.544 -0.7444 -0.1509  0.2257
   41GLOH   H04 8747   2.522   9.738   1.495 -0.7194  1.0207  1.0820
   41GLOH    O2 8748   2.346   9.813   1.560  0.3602 -0.1076 -0.1536
   41GLOH   H05 8749   2.293   9.840   1.483  2.2063 -0.5675 -1.6374
   41GLOH    C3 8750   2.483   9.676   1.680  0.1075 -0.2594  0.1077
   41GLOH   H06 8751   2.526   9.576   1.676 -1.0983 -0.7316 -1.5525
   41GLOH   H07 8752   2.407   9.669   1.758  1.2434 -1.1483  1.1554
   41GLOH    O3 8753   2.590   9.766   1.711 -0.1338 -0.6208 -0.6531
   41GLOH   H01 8754   2.553   9.855   1.727  0.9076 -0.6628  2.3053
   42GLOH   H03 8755   3.449   8.089   1.220 -1.1709 -1.1718  1.6517
   42GLOH    O1 8756   3.523   8.043   1.264  0.6893 -0.3109 -0.4321
   42GLOH    C1 8757   3.644   8.118   1.250  0.1056 -0.4372 -0.2771
   42GLOH   H02 8758   3.651   8.202   1.319  2.4104 -0.0802 -0.9281
   42GLOH   H08 8759   3.637   8.170   1.155  0.2693  2.0475  1.0353
   42GLOH    C2 8760   3.772   8.033   1.257  0.3593  0.2018  0.0584
   42GLOH   H04 8761   3.754   7.954   1.184  1.9046  1.1711 -1.4097
   42GLOH    O2 8762   3.892   8.118   1.226  0.4623  0.4310 -0.7162
   42GLOH   H05 8763   3.919   8.100   1.134 -1.5542 -2.5973 -0.8049
   42GLOH    C3 8764   3.782   7.964   1.400 -0.3309 -0.7939 -0.4434
   42GLOH   H06 8765   3.820   8.036   1.472 -1.4569 -2.6379  2.0604
   42GLOH   H07 8766   3.863   7.890   1.398  0.0717 -0.3433 -0.8687
   42GLOH    O3 8767   3.664   7.910   1.461  0.2961  0.2363 -0.9143
   42GLOH   H01 8768   3.588   7.934   1.404 -0.2922 -0.9297 -0.6288
   43GLOH   H03 8769   4.379   1.322   2.581  0.4453  1.7447 -2.1983
   43GLOH    O1 8770   4.464   1.286   2.549  0.4007 -0.1065 -0.3991
   43GLOH    C1 8771   4.451   1.291   2.404 -0.2597  0.3594  0.1913
   43GLOH   H02 8772   4.374   1.361   2.371 -2.1555 -1.0534  1.5326
   43GLOH   H08 8773   4.416   1.192   2.376 -0.3310  0.7529 -1.1633
   43GLOH    C2 8774   4.577   1.349   2.336 -0.5267 -0.6040  0.4144
   43GLOH   H04 8775   4.646   1.264   2.329 -2.1054 -1.7872 -1.2658
   43GLOH    O2 8776   4.545   1.385   2.202 -0.0517  0.0876  0.0139
   43GLOH   H05 8777   4.451   1.406   2.189  0.7806  1.9665 -3.5097
   43GLOH    C3 8778   4.631   1.473   2.414 -0.5982  0.7054 -0.7578
   43GLOH   H06 8779   4.553   1.549   2.407 -0.0134  1.3219 -0.5746
   43GLOH   H07 8780   4.720   1.519   2.371  0.4366  0.1326  0.7273
   43GLOH    O3 8781   4.657   1.440   2.548  0.2106  0.3526  0.0162
   43GLOH   H01 8782   4.594   1.371   2.575 -2.3040  2.2028 -0.9240
   44GLOH   H03 8783   3.245   5.032   2.148  0.0279 -0.0494 -0.5234
   44GLOH    O1 8784   3.275   4.939   2.148  0.3066  0.0418 -0.1640
   44GLOH    C1 8785   3.376   4.920   2.050  0.9293  0.0238 -0.5154
   44GLOH   H02 8786   3.462   4.980   2.081 -1.3813  1.9644  2.3797
   44GLOH   H08 8787   3.350   4.957   1.950 -2.9254  1.4774  0.9559
   44GLOH    C2 8788   3.412   4.773   2.032  0.2032 -0.2600  0.6499
   44GLOH   H04 8789   3.320   4.713   2.021 -0.8907  1.7450 -1.6835
   44GLOH    O2 8790   3.488   4.765   1.908 -0.0424 -0.2935  0.3060
   44GLOH   H05 8791   3.455   4.831   1.844  2.2364  0.1197 -0.5236
   44GLOH    C3 8792   3.486   4.719   2.153 -0.3938  0.2776 -0.2749
   44GLOH   H06 8793   3.433   4.767   2.235 -0.5954 -0.6225  0.1243
   44GLOH   H07 8794   3.586   4.761   2.143 -0.5047  0.6618  0.2068
   44GLOH    O3 8795   3.494   4.577   2.165  0.5351  0.0793  0.0935
   44GLOH   H01 8796   3.513   4.541   2.077  0.0540 -1.5437  0.6265
   45GLOH   H03 8797   1.768   3.303   1.168 -0.3639 -0.7075 -0.4159
   45GLOH    O1 8798   1.810   3.326   1.083 -0.3645  0.2710 -0.1670
   45GLOH    C1 8799   1.952   3.304   1.114  0.0967 -0.2043  0.4626
   45GLOH   H02 8800   1.986   3.392   1.169  1.9798  0.5132 -1.8109
   45GLOH   H08 8801   2.016   3.309   1.026  1.1382 -0.3577  1.1940
   45GLOH    C2 8802   1.967   3.172   1.194 -0.1552  0.2378 -0.3795
   45GLOH   H04 8803   1.943   3.094   1.120  1.6322 -0.3675 -0.3400
   45GLOH    O2 8804   2.106   3.157   1.221  0.7270 -0.4353  0.0683
   45GLOH   H05 8805   2.121   3.067   1.254  3.3071 -0.0567 -0.0052
   45GLOH    C3 8806   1.878   3.165   1.315  0.0242  0.4144 -0.2462
   45GLOH   H06 8807   1.927   3.238   1.379  2.8583 -0.3973 -1.3925
   45GLOH   H07 8808   1.889   3.066   1.358  1.7824  0.0500 -1.4588
   45GLOH    O3 8809   1.744   3.190   1.277 -0.0738 -0.3065 -0.1870
   45GLOH   H01 8810   1.698   3.172   1.361  0.5054  1.3470  0.5126
   46GLOH   H03 8811   3.815   0.282   0.697  1.1835  0.2710  1.0109
   46GLOH    O1 8812   3.752   0.209   0.713  0.0298  1.0673  0.2495
   46GLOH    C1 8813   3.813   0.082   0.740  0.6873  0.1878  0.1476
   46GLOH   H02 8814   3.899   0.086   0.808  0.2385  0.1777  0.7231
   46GLOH   H08 8815   3.842   0.030   0.649  0.1247 -0.8920  0.5785
   46GLOH    C2 8816   3.709  -0.008   0.811 -0.4352 -0.9234  0.2184
   46GLOH   H04 8817   3.616  -0.017   0.752 -0.1217 -0.8957 -0.2857
   46GLOH    O2 8818   3.763  -0.141   0.833  0.0555 -0.4073  0.2463
   46GLOH   H05 8819   3.696  -0.202   0.797 -1.6277  2.3183 -1.4562
   46GLOH    C3 8820   3.659   0.053   0.945  0.1662  1.1981  0.2326
   46GLOH   H06 8821   3.574  -0.003   0.984 -1.2343  2.3089 -1.2105
   46GLOH   H07 8822   3.614   0.145   0.908 -1.1654  0.2912 -0.4608
   46GLOH    O3 8823   3.758   0.075   1.046 -0.1509 -0.0333  0.5229
   46GLOH   H01 8824   3.742   0.162   1.086 -0.4925 -0.6766  1.8052
   47GLOH   H03 8825   2.992   7.470   1.971 -1.2565 -0.1809  0.1311
   47GLOH    O1 8826   2.969   7.396   1.912 -0.7349 -0.3226  0.1083
   47GLOH    C1 8827   2.861   7.441   1.826  0.1004 -0.6331 -1.0835
   47GLOH   H02 8828   2.854   7.550   1.824  0.8918 -0.4975  1.3607
   47GLOH   H08 8829   2.768   7.399   1.865  0.9378 -2.2945 -0.8404
   47GLOH    C2 8830   2.865   7.383   1.682 -0.1855 -0.1693 -0.6930
   47GLOH   H04 8831   2.838   7.276   1.687  2.0027 -0.7215  0.1612
   47GLOH    O2 8832   2.767   7.453   1.605 -0.0583  0.0246  0.1702
   47GLOH   H05 8833   2.704   7.390   1.568 -0.1130 -0.6979  1.4570
   47GLOH    C3 8834   3.002   7.382   1.612 -0.2044  0.4249  0.2392
   47GLOH   H06 8835   3.076   7.349   1.685 -0.6251 -2.4955 -0.5770
   47GLOH   H07 8836   3.017   7.486   1.583 -1.2328 -0.4484 -3.5859
   47GLOH    O3 8837   2.989   7.297   1.492  0.0685 -0.9270 -0.3338
   47GLOH   H01 8838   2.937   7.346   1.426  1.6241  0.3696 -0.6398
   48GLOH   H03 8839   3.063   9.738   1.333 -0.4137  1.0771  0.1781
   48GLOH    O1 8840   3.121   9.795   1.278  0.2380  0.2232 -0.0436
   48GLOH    C1 8841   3.194   9.868   1.374  0.2179 -0.5550 -0.1823
   48GLOH   H02 8842   3.240   9.809   1.455  0.2289  1.2387  1.1428
   48GLOH   H08 8843   3.135   9.945   1.424 -0.7166 -2.0992  1.1508
   48GLOH    C2 8844   3.313   9.936   1.306 -0.0397 -0.1281 -0.1700
   48GLOH   H04 8845   3.265  10.014   1.244  0.3176 -0.2579 -0.6079
   48GLOH    O2 8846   3.395   9.994   1.408  0.2837 -0.5435  0.0379
   48GLOH   H05 8847   3.365  10.086   1.414  2.1237  0.0260  0.9690
   48GLOH    C3 8848   3.404   9.840   1.229  0.2457  0.2973  0.7943
   48GLOH   H06 8849   3.447   9.778   1.308 -2.7090  0.5899  2.6846
   48GLOH   H07 8850   3.476   9.901   1.175 -0.4466  1.4698  1.1839
   48GLOH    O3 8851   3.338   9.759   1.135  0.0875  0.0944 -0.6917
   48GLOH   H01 8852   3.246   9.752   1.166  0.9206 -0.1910  1.8211
   49GLOH   H03 8853   5.532   3.026   1.385  0.2468 -0.4000  0.2267
   49GLOH    O1 8854   5.596   2.997   1.318 -0.0839 -0.5069 -0.0415
   49GLOH    C1 8855   5.703   3.096   1.323 -0.3894 -0.0635 -0.3310
   49GLOH   H02 8856   5.782   3.067   1.253 -1.1696 -4.0041  0.3211
   49GLOH   H08 8857   5.742   3.095   1.424 -0.0225  0.0388 -0.4698
   49GLOH    C2 8858   5.640   3.233   1.292 -0.3970 -0.1898  0.7740
   49GLOH   H04 8859   5.555   3.219   1.225  0.9255  0.4889 -1.0784
   49GLOH    O2 8860   5.601   3.298   1.410  0.4055  0.9002 -0.3634
   49GLOH   H05 8861   5.521   3.258   1.448  1.0535 -0.1490 -0.0938
   49GLOH    C3 8862   5.738   3.316   1.210  0.1949 -1.0811 -0.7394
   49GLOH   H06 8863   5.836   3.315   1.258  1.5865  0.5064 -3.4681
   49GLOH   H07 8864   5.710   3.420   1.222 -2.9153 -1.7305 -1.7320
   49GLOH    O3 8865   5.748   3.276   1.078 -0.0616 -0.0163  0.1722
   49GLOH   H01 8866   5.659   3.289   1.040 -0.8563 -0.3217  1.8843
   50GLOH   H03 8867   3.658   5.452   0.966  0.6512  0.2760 -0.4194
   50GLOH    O1 8868   3.656   5.541   1.006 -0.1102  0.1460 -0.1559
   50GLOH    C1 8869   3.772   5.559   1.091  0.4204 -0.5601  0.6057
   50GLOH   H02 8870   3.761   5.660   1.129  0.7339  0.0941 -0.9719
   50GLOH   H08 8871   3.864   5.548   1.033  0.7497  3.0133  0.3361
   50GLOH    C2 8872   3.766   5.460   1.204  0.2763  0.1190 -0.3869
   50GLOH   H04 8873   3.771   5.356   1.169 -0.5942 -0.3238  0.7766
   50GLOH    O2 8874   3.865   5.489   1.304 -0.0308  0.0916 -0.3320
   50GLOH   H05 8875   3.907   5.405   1.331 -0.8844 -0.2027  0.0868
   50GLOH    C3 8876   3.624   5.483   1.268 -0.6095  0.2783  0.4587
   50GLOH   H06 8877   3.549   5.453   1.195 -0.4089  2.7738 -0.8310
   50GLOH   H07 8878   3.604   5.588   1.288  1.0138  0.3033  2.1003
   50GLOH    O3 8879   3.610   5.395   1.382 -0.0753 -0.1650 -0.5557
   50GLOH   H01 8880   3.689   5.412   1.436 -0.7431 -0.1959  0.4378
   51GLOH   H03 8881   4.170   5.115   1.853 -0.5678  1.1749 -2.6208
   51GLOH    O1 8882   4.224   5.041   1.821 -0.1155  0.4307 -0.2337
   51GLOH    C1 8883   4.268   5.067   1.685 -0.5244 -0.0313 -0.5571
   51GLOH   H02 8884   4.286   4.970   1.640 -0.7539 -0.3536  0.0463
   51GLOH   H08 8885   4.367   5.112   1.678 -1.3357  1.8838  0.0626
   51GLOH    C2 8886   4.155   5.143   1.609  0.8766 -0.1749  0.2731
   51GLOH   H04 8887   4.127   5.237   1.658 -0.6092 -0.9250  0.8993
   51GLOH    O2 8888   4.206   5.162   1.481  0.2150 -0.4413  0.7178
   51GLOH   H05 8889   4.130   5.181   1.423  0.1009  0.1577  1.0650
   51GLOH    C3 8890   4.032   5.051   1.604  0.0914  0.4601 -0.0420
   51GLOH   H06 8891   4.023   5.013   1.706  0.1577  1.3991  0.3189
   51GLOH   H07 8892   4.052   4.959   1.548  1.2698  0.1014  0.9442
   51GLOH    O3 8893   3.908   5.110   1.571  0.0245 -0.2021  0.5786
   51GLOH   H01 8894   3.835   5.046   1.580 -0.4201  0.0154 -1.2179
   52GLOH   H03 8895   2.684   7.837   0.862  0.2387 -0.9024  1.1458
   52GLOH    O1 8896   2.591   7.854   0.838  0.3283 -0.5179  1.0557
   52GLOH    C1 8897   2.574   7.867   0.699  1.1935  0.5641  0.6388
   52GLOH   H02 8898   2.643   7.944   0.664 -0.4135  1.6645 -0.1874
   52GLOH   H08 8899   2.481   7.917   0.673  0.5141 -1.0501 -0.0837
   52GLOH    C2 8900   2.591   7.730   0.624 -0.2795 -0.3414  0.1093
   52GLOH   H04 8901   2.556   7.743   0.521 -0.4809  0.8756  0.3265
   52GLOH    O2 8902   2.734   7.701   0.639 -0.6238  0.1259  0.7050
   52GLOH   H05 8903   2.763   7.613   0.609  3.9686  1.8585 -0.3138
   52GLOH    C3 8904   2.520   7.613   0.693 -0.3203 -0.2722  0.7851
   52GLOH   H06 8905   2.562   7.600   0.793 -0.1968  1.1009  0.9323
   52GLOH   H07 8906   2.559   7.530   0.636 -0.2663 -0.0607  0.5126
   52GLOH    O3 8907   2.373   7.615   0.702  0.4229  0.2939  0.8533
   52GLOH   H01 8908   2.341   7.689   0.646  0.8471  0.3225  0.6389
   53GLOH   H03 8909   2.495   4.130   1.343  1.0486 -1.5903  0.3798
   53GLOH    O1 8910   2.453   4.096   1.425  0.0974 -0.3909  0.3967
   53GLOH    C1 8911   2.480   4.171   1.543  0.6164 -0.6985  0.0780
   53GLOH   H02 8912   2.429   4.125   1.628 -0.8226 -1.4635 -1.1616
   53GLOH   H08 8913   2.452   4.276   1.535 -0.8306 -0.7849  3.0516
   53GLOH    C2 8914   2.631   4.162   1.577 -0.4958 -0.0642  0.6062
   53GLOH   H04 8915   2.659   4.056   1.568  1.2095  0.4810 -1.0112
   53GLOH    O2 8916   2.703   4.238   1.480 -0.8219 -0.4682  0.7403
   53GLOH   H05 8917   2.778   4.189   1.444 -1.5725 -0.7768 -0.4151
   53GLOH    C3 8918   2.654   4.212   1.718  0.6853 -0.6993 -0.1184
   53GLOH   H06 8919   2.662   4.320   1.711  3.1026 -0.9578 -2.1427
   53GLOH   H07 8920   2.751   4.167   1.738  0.3432 -1.7267 -0.6779
   53GLOH    O3 8921   2.563   4.173   1.827 -0.5403  0.0570 -0.2416
   53GLOH   H01 8922   2.611   4.125   1.897 -0.4361  0.0210 -0.3371
   54GLOH   H03 8923   4.929   3.956   0.806  2.0814  0.6602 -0.5443
   54GLOH    O1 8924   4.977   3.889   0.858  0.6942  0.5193  0.5818
   54GLOH    C1 8925   5.098   3.871   0.785 -0.2448 -0.1520 -0.4974
   54GLOH   H02 8926   5.099   3.953   0.712  0.4719  1.8152  1.6745
   54GLOH   H08 8927   5.109   3.779   0.727  3.7945  0.9729 -1.7337
   54GLOH    C2 8928   5.220   3.892   0.886  0.9397  0.6346 -0.1346
   54GLOH   H04 8929   5.210   3.998   0.916 -0.6531  0.6750 -0.7642
   54GLOH    O2 8930   5.221   3.804   1.002 -0.2440 -0.0158 -0.0641
   54GLOH   H05 8931   5.141   3.834   1.049  1.3424  2.5915  1.1150
   54GLOH    C3 8932   5.350   3.866   0.817  0.0277  0.3957 -0.0656
   54GLOH   H06 8933   5.352   3.759   0.794  1.2948  0.2636  0.6085
   54GLOH   H07 8934   5.427   3.886   0.892 -1.7102 -0.8849  2.1095
   54GLOH    O3 8935   5.361   3.938   0.689  0.1710  0.4599 -0.2622
   54GLOH   H01 8936   5.337   4.028   0.716  0.7766  0.1591  1.3751
   55GLOH   H03 8937   3.079   7.120   1.102 -0.0520  0.2774 -4.5321
   55GLOH    O1 8938   3.136   7.199   1.095  0.7744  0.1707 -0.2878
   55GLOH    C1 8939   3.182   7.231   1.228  0.3937 -0.6433 -0.7435
   55GLOH   H02 8940   3.280   7.185   1.232  0.6821 -0.1344 -1.7957
   55GLOH   H08 8941   3.124   7.185   1.308  1.0190  0.2404  0.2125
   55GLOH    C2 8942   3.195   7.380   1.253  1.1059 -0.3886 -0.1238
   55GLOH   H04 8943   3.096   7.425   1.238 -0.1779 -2.6364  1.2524
   55GLOH    O2 8944   3.226   7.392   1.389  0.1321 -0.3138 -0.1604
   55GLOH   H05 8945   3.169   7.330   1.438  0.8795 -1.0043 -0.1476
   55GLOH    C3 8946   3.288   7.444   1.163 -0.3692  0.2390  0.9095
   55GLOH   H06 8947   3.386   7.402   1.185 -0.3749 -0.1414  0.2234
   55GLOH   H07 8948   3.276   7.550   1.187 -2.5493  0.2198  0.0406
   55GLOH    O3 8949   3.243   7.428   1.030 -0.2663  0.4259  0.6622
   55GLOH   H01 8950   3.198   7.341   1.025  1.2132 -0.3106 -0.0456
   56GLOH   H03 8951   4.168   0.721   1.009 -0.3816  1.0488 -0.3862
   56GLOH    O1 8952   4.168   0.744   1.104 -0.3947 -0.3707 -0.0192
   56GLOH    C1 8953   4.172   0.889   1.113  0.4539  0.1362 -0.4732
   56GLOH   H02 8954   4.218   0.933   1.025 -0.4896 -0.4447 -1.2685
   56GLOH   H08 8955   4.221   0.924   1.204  0.6739 -0.5040 -0.3417
   56GLOH    C2 8956   4.030   0.947   1.129  0.3695  0.3489 -0.2222
   56GLOH   H04 8957   3.990   0.890   1.214 -0.6077  1.0091 -0.2385
   56GLOH    O2 8958   4.044   1.087   1.159  0.0509 -0.9165  0.1383
   56GLOH   H05 8959   4.078   1.098   1.250 -1.3464 -1.2535  0.7128
   56GLOH    C3 8960   3.956   0.921   0.998  0.0675 -0.7804  0.2874
   56GLOH   H06 8961   3.943   0.813   0.993 -1.9635 -0.6105  1.1521
   56GLOH   H07 8962   4.016   0.942   0.910 -0.0009 -0.8733  0.2183
   56GLOH    O3 8963   3.829   0.979   0.980 -0.0076 -0.1333 -0.2033
   56GLOH   H01 8964   3.762   0.921   1.020 -0.3686 -0.3905 -1.1587
   57GLOH   H03 8965   2.494   5.984   1.133 -0.4828 -1.6602 -0.9930
   57GLOH    O1 8966   2.536   5.928   1.201  0.0002 -0.6253 -0.4195
   57GLOH    C1 8967   2.597   6.002   1.306  0.0853  0.3019 -0.7935
   57GLOH   H02 8968   2.645   5.932   1.375  3.8494  1.7094 -1.8609
   57GLOH   H08 8969   2.526   6.066   1.360  0.4453  0.4236 -0.4547
   57GLOH    C2 8970   2.715   6.077   1.234 -0.3534  0.6165 -0.4327
   57GLOH   H04 8971   2.670   6.139   1.154 -2.7807 -1.2042 -0.5223
   57GLOH    O2 8972   2.790   6.169   1.316  1.0328 -0.4201  0.3285
   57GLOH   H05 8973   2.732   6.246   1.327  1.3500 -0.6027  3.8635
   57GLOH    C3 8974   2.815   5.976   1.168  0.4816  0.3657 -0.5546
   57GLOH   H06 8975   2.758   5.908   1.104  1.8292  0.1624 -1.5442
   57GLOH   H07 8976   2.849   5.909   1.247 -2.0485  0.9941  1.1363
   57GLOH    O3 8977   2.923   6.029   1.096  0.1651  0.7175 -0.2028
   57GLOH   H01 8978   2.986   6.067   1.161  1.2293  0.4756 -1.0859
   58GLOH   H03 8979   3.293   8.139   1.867  0.3958 -0.7264  0.2477
   58GLOH    O1 8980   3.217   8.111   1.921 -0.1477  0.0240 -0.1133
   58GLOH    C1 8981   3.174   7.976   1.892 -0.5806  0.6701  0.6219
   58GLOH   H02 8982   3.251   7.901   1.909  0.5337  1.7860  0.6129
   58GLOH   H08 8983   3.143   7.982   1.788  1.1546 -2.7591 -0.1485
   58GLOH    C2 8984   3.049   7.935   1.971  0.6066 -0.3413 -0.3015
   58GLOH   H04 8985   2.970   8.006   1.942 -0.7841 -1.2626  1.1463
   58GLOH    O2 8986   3.004   7.797   1.945 -0.2336  0.3818 -0.1713
   58GLOH   H05 8987   3.010   7.779   1.849  0.5456  2.6722 -0.5759
   58GLOH    C3 8988   3.062   7.958   2.122 -0.0648  0.0352 -0.0830
   58GLOH   H06 8989   3.140   7.889   2.154  0.7100  2.0163  2.5140
   58GLOH   H07 8990   2.976   7.916   2.174 -1.2932  1.5696 -0.8475
   58GLOH    O3 8991   3.098   8.095   2.162 -0.1678  0.2618 -0.6940
   58GLOH   H01 8992   3.123   8.140   2.080 -0.5791  1.8764  0.0483
   59GLOH   H03 8993   5.047   4.398   0.391 -2.6369 -0.7759 -1.8874
   59GLOH    O1 8994   4.986   4.408   0.466  0.1238  0.5340  0.2370
   59GLOH    C1 8995   4.861   4.358   0.414  0.8186  0.3555 -0.3912
   59GLOH   H02 8996   4.807   4.442   0.372  2.0399  2.2083  1.6353
   59GLOH   H08 8997   4.796   4.322   0.495  0.6859  0.5405 -0.4158
   59GLOH    C2 8998   4.870   4.243   0.317 -0.1238  0.5537  0.1762
   59GLOH   H04 8999   4.929   4.162   0.364  0.2409  0.5538 -0.2750
   59GLOH    O2 9000   4.740   4.188   0.277  0.0351  0.0989  0.7958
   59GLOH   H05 9001   4.749   4.092   0.271  0.2871  0.1953 -0.6477
   59GLOH    C3 9002   4.954   4.294   0.200 -0.5143  0.1436 -0.0778
   59GLOH   H06 9003   4.902   4.369   0.140 -0.7095 -0.4177 -0.6262
   59GLOH   H07 9004   4.964   4.204   0.138 -0.1059 -1.0796  1.7230
   59GLOH    O3 9005   5.086   4.340   0.240 -0.1218  0.0294  0.0578
   59GLOH   H01 9006   5.141   4.263   0.218 -3.0276 -1.7110 -1.5253
   60GLOH   H03 9007   4.111   4.934   1.324 -0.5790 -1.6652  0.1385
   60GLOH    O1 9008   4.029   4.933   1.271 -0.4790  0.1586 -0.0830
   60GLOH    C1 9009   4.066   4.970   1.135  0.4210  0.1835 -0.3709
   60GLOH   H02 9010   3.983   4.971   1.065 -0.3062 -0.5560  0.4679
   60GLOH   H08 9011   4.124   4.888   1.093 -0.0167 -1.9401  2.9833
   60GLOH    C2 9012   4.130   5.110   1.128 -0.2096  0.2374  0.2984
   60GLOH   H04 9013   4.213   5.105   1.200 -0.4820 -2.2618  0.4896
   60GLOH    O2 9014   4.190   5.137   1.003 -0.2637 -0.3086  0.1308
   60GLOH   H05 9015   4.152   5.215   0.959 -0.5492 -0.2115  0.5379
   60GLOH    C3 9016   4.027   5.219   1.156 -0.1840 -0.3435  0.3550
   60GLOH   H06 9017   3.934   5.197   1.102 -0.9283 -1.8110  2.1629
   60GLOH   H07 9018   4.061   5.320   1.132  0.0824 -0.1924  1.3501
   60GLOH    O3 9019   3.989   5.215   1.294  0.3042  0.2992 -0.1668
   60GLOH   H01 9020   3.954   5.125   1.310 -0.7182  1.1963  2.9039
   61GLOH   H03 9021   1.743   3.679   0.457 -1.6071 -0.8028  0.1380
   61GLOH    O1 9022   1.734   3.698   0.552 -0.2363 -0.2902  0.1804
   61GLOH    C1 9023   1.844   3.778   0.598 -0.2230  0.2255  0.2500
   61GLOH   H02 9024   1.814   3.882   0.611  0.8147  0.4104  1.2265
   61GLOH   H08 9025   1.924   3.780   0.523 -2.5226  0.0358 -2.2921
   61GLOH    C2 9026   1.896   3.725   0.733  0.2540  0.3778  0.3189
   61GLOH   H04 9027   1.903   3.615   0.730  2.3069  0.4887 -0.0689
   61GLOH    O2 9028   2.026   3.779   0.747 -0.5586  0.3255  0.1000
   61GLOH   H05 9029   2.089   3.723   0.698  3.3429  3.0319  1.8127
   61GLOH    C3 9030   1.812   3.775   0.852 -0.0364  0.2713  0.8113
   61GLOH   H06 9031   1.776   3.873   0.822 -1.6993 -1.2358 -2.3405
   61GLOH   H07 9032   1.877   3.783   0.939 -0.5450  0.0075  1.2139
   61GLOH    O3 9033   1.695   3.699   0.889  0.3685  0.2003  0.3804
   61GLOH   H01 9034   1.681   3.639   0.813  0.4361  1.8059 -0.9210
   62GLOH   H03 9035   3.665   5.053   1.149 -0.4315 -2.0133 -0.8749
   62GLOH    O1 9036   3.613   5.078   1.071  0.2157  0.3409 -0.5932
   62GLOH    C1 9037   3.488   5.137   1.110  0.0853 -0.2191  0.6596
   62GLOH   H02 9038   3.484   5.245   1.093 -0.4579 -0.4661 -0.8091
   62GLOH   H08 9039   3.471   5.124   1.217 -1.3749  0.4412  0.5280
   62GLOH    C2 9040   3.360   5.064   1.053  0.1337 -0.7100 -0.5058
   62GLOH   H04 9041   3.368   4.955   1.055 -1.1299 -0.8086 -0.5900
   62GLOH    O2 9042   3.251   5.119   1.121  0.3481  0.5147 -0.1501
   62GLOH   H05 9043   3.238   5.208   1.083 -0.9136  0.8877  1.0676
   62GLOH    C3 9044   3.345   5.101   0.905  0.1186 -0.0245 -0.2455
   62GLOH   H06 9045   3.443   5.077   0.865 -0.5693 -1.5837 -1.0260
   62GLOH   H07 9046   3.336   5.209   0.890  0.2429  0.3735  2.2620
   62GLOH    O3 9047   3.250   5.020   0.839  0.0313 -0.3744 -0.0307
   62GLOH   H01 9048   3.239   5.054   0.748 -1.0411 -1.1444 -0.2013
   63GLOH   H03 9049   4.136   3.903   1.312 -1.0298  0.1286 -0.2986
   63GLOH    O1 9050   4.080   3.933   1.386 -0.4405 -0.4261  0.3777
   63GLOH    C1 9051   4.155   4.036   1.456 -0.1189  0.4202 -0.2915
   63GLOH   H02 9052   4.102   4.131   1.452 -2.1371 -0.6162  0.6769
   63GLOH   H08 9053   4.252   4.052   1.411 -0.0110  1.8158  0.4321
   63GLOH    C2 9054   4.177   3.996   1.604  0.1589 -0.1720  0.0759
   63GLOH   H04 9055   4.232   4.076   1.656  1.0782 -1.2736  0.8088
   63GLOH    O2 9056   4.052   3.972   1.677 -0.8875 -0.1218 -0.9682
   63GLOH   H05 9057   4.009   3.885   1.676 -0.5081 -0.4064  2.4494
   63GLOH    C3 9058   4.270   3.875   1.607  0.2460  0.2512 -0.6819
   63GLOH   H06 9059   4.245   3.804   1.528  0.0669  2.7134 -2.8968
   63GLOH   H07 9060   4.261   3.828   1.705 -0.1025 -1.0560 -1.3332
   63GLOH    O3 9061   4.406   3.919   1.586  0.0570 -0.1643 -0.2851
   63GLOH   H01 9062   4.440   3.948   1.673 -0.9252 -0.6554  0.2714
   64GLOH   H03 9063   4.314   3.556   0.403 -0.7686  0.5427 -0.0574
   64GLOH    O1 9064   4.313   3.654   0.403 -0.0069  0.5494 -0.6367
   64GLOH    C1 9065   4.230   3.691   0.505 -0.1892 -0.6599  0.5074
   64GLOH   H02 9066   4.292   3.715   0.590  0.2677  1.8793 -0.4954
   64GLOH   H08 9067   4.160   3.612   0.530  1.0650 -1.9230  0.0880
   64GLOH    C2 9068   4.146   3.812   0.451 -0.0069 -0.2254 -0.3086
   64GLOH   H04 9069   4.208   3.886   0.399 -0.7509 -2.8854 -5.1981
   64GLOH    O2 9070   4.046   3.767   0.360  0.1616  0.5057  0.0722
   64GLOH   H05 9071   4.082   3.714   0.287  0.3355  1.2370 -0.3841
   64GLOH    C3 9072   4.080   3.875   0.576  0.4923  0.1860  1.0610
   64GLOH   H06 9073   4.027   3.804   0.640  0.2301 -1.0732 -0.5100
   64GLOH   H07 9074   4.015   3.955   0.541  3.0997  1.0473 -2.0429
   64GLOH    O3 9075   4.180   3.931   0.660  0.2363 -0.1592 -0.0505
   64GLOH   H01 9076   4.208   4.015   0.620  0.2713 -1.2561 -2.3994
   65GLOH   H03 9077   2.794   9.013   2.794  0.5291 -0.5075 -0.7328
   65GLOH    O1 9078   2.770   9.105   2.774  0.1066 -0.4686 -0.0672
   65GLOH    C1 9079   2.714   9.170   2.888  0.5079 -0.5252 -0.3100
   65GLOH   H02 9080   2.719   9.279   2.880  0.9325 -0.3464  1.9826
   65GLOH   H08 9081   2.767   9.143   2.980 -2.0083  1.1310  1.6977
   65GLOH    C2 9082   2.563   9.139   2.910  0.5036 -0.4793  0.3563
   65GLOH   H04 9083   2.546   9.031   2.901  0.0596 -0.3239 -0.7552
   65GLOH    O2 9084   2.515   9.194   3.036  0.1899 -0.0302 -0.0576
   65GLOH   H05 9085   2.523   9.291   3.028 -1.7010  0.1285 -0.4985
   65GLOH    C3 9086   2.484   9.204   2.797  0.4936  0.5596 -0.1804
   65GLOH   H06 9087   2.524   9.173   2.701 -0.0804  2.6263 -1.0976
   65GLOH   H07 9088   2.513   9.309   2.802 -1.4461  1.0827  0.6027
   65GLOH    O3 9089   2.337   9.191   2.806  0.6886  0.7610  0.3721
   65GLOH   H01 9090   2.307   9.186   2.899  3.0666  0.7499  1.1761
   66GLOH   H03 9091   3.391   7.936   2.812  0.8485 -1.7224 -0.2382
   66GLOH    O1 9092   3.452   7.942   2.736  0.5243  0.5810 -0.3514
   66GLOH    C1 9093   3.583   7.914   2.788 -1.1892  0.3342 -0.3197
   66GLOH   H02 9094   3.655   7.976   2.734 -1.5974  0.8135 -0.3182
   66GLOH   H08 9095   3.609   7.809   2.781 -2.3759  0.0782 -0.9465
   66GLOH    C2 9096   3.593   7.959   2.937 -0.1675 -0.0050  0.2892
   66GLOH   H04 9097   3.501   7.918   2.982  0.0973 -1.3413 -0.3784
   66GLOH    O2 9098   3.709   7.904   2.999 -0.1606  0.5883 -0.4415
   66GLOH   H05 9099   3.728   7.946   3.085  0.0155 -0.8660  0.2496
   66GLOH    C3 9100   3.593   8.112   2.956  0.6661 -0.0873 -0.4634
   66GLOH   H06 9101   3.490   8.139   2.935  0.4566 -0.9217 -0.5444
   66GLOH   H07 9102   3.662   8.167   2.892  0.4641  0.9810  0.2330
   66GLOH    O3 9103   3.611   8.152   3.094  0.5824  0.4422  0.2633
   66GLOH   H01 9104   3.686   8.109   3.139  1.1264  1.1510  0.0347
   67GLOH   H03 9105   3.237   5.210   0.067 -0.2320 -0.9463  0.6980
   67GLOH    O1 9106   3.249   5.273   0.140 -0.2748  0.1848 -0.2629
   67GLOH    C1 9107   3.139   5.355   0.174  0.3000 -0.0770  0.5445
   67GLOH   H02 9108   3.085   5.389   0.086 -2.3415  1.3532  2.6233
   67GLOH   H08 9109   3.171   5.447   0.225 -1.8990 -1.3785  4.5077
   67GLOH    C2 9110   3.029   5.281   0.254 -0.1435 -0.3796  0.3641
   67GLOH   H04 9111   2.952   5.358   0.267  0.4049  0.5391 -1.6393
   67GLOH    O2 9112   2.968   5.176   0.181 -0.2388  0.1767  0.8786
   67GLOH   H05 9113   2.903   5.221   0.124  0.9149  2.4730  1.3328
   67GLOH    C3 9114   3.097   5.221   0.378 -0.2639  0.0022 -0.4956
   67GLOH   H06 9115   3.175   5.152   0.348 -0.0236  0.6067 -1.3042
   67GLOH   H07 9116   3.020   5.165   0.431  0.2227 -0.5882 -0.4149
   67GLOH    O3 9117   3.162   5.323   0.459 -0.8994  0.1509 -0.5561
   67GLOH   H01 9118   3.256   5.310   0.438 -0.2057  1.5546  1.4512
   68GLOH   H03 9119   2.451   5.207   2.883  0.4630 -0.4314 -0.0860
   68GLOH    O1 9120   2.409   5.241   2.802  0.0400  0.4621  0.5121
   68GLOH    C1 9121   2.398   5.382   2.811 -0.2566 -0.8649  0.0878
   68GLOH   H02 9122   2.433   5.424   2.716 -0.2053  1.1289  0.9540
   68GLOH   H08 9123   2.460   5.423   2.891 -0.6424  0.9668 -0.5151
   68GLOH    C2 9124   2.257   5.447   2.811 -0.1361 -0.0050 -0.2769
   68GLOH   H04 9125   2.247   5.550   2.846  0.5359 -0.2144  0.5348
   68GLOH    O2 9126   2.195   5.454   2.679  0.0370  0.1429 -0.2833
   68GLOH   H05 9127   2.239   5.524   2.628 -1.0106  0.9650 -0.0655
   68GLOH    C3 9128   2.170   5.368   2.902  0.0320  0.0807  0.3327
   68GLOH   H06 9129   2.220   5.336   2.994 -2.6827 -1.0231  1.4758
   68GLOH   H07 9130   2.141   5.281   2.843  2.1061  1.2977 -2.5968
   68GLOH    O3 9131   2.056   5.436   2.951 -0.3631 -0.0356 -0.0850
   68GLOH   H01 9132   2.008   5.480   2.878 -1.1422 -1.6558 -0.5679
   69GLOH   H03 9133   2.331   3.712   0.954 -0.8100  0.5810  1.0387
   69GLOH    O1 9134   2.361   3.791   1.002 -0.0831  0.4612  0.7931
   69GLOH    C1 9135   2.238   3.864   1.031 -0.4158 -0.1985  0.2630
   69GLOH   H02 9136   2.229   3.904   1.132 -1.4937  1.0040 -0.2998
   69GLOH   H08 9137   2.151   3.798   1.028 -0.1220 -0.6102  0.6712
   69GLOH    C2 9138   2.201   3.985   0.936 -0.2478 -0.3700  0.3090
   69GLOH   H04 9139   2.267   4.069   0.965 -0.0941 -1.0403  1.9604
   69GLOH    O2 9140   2.206   3.949   0.794 -0.3165 -0.2028  0.3175
   69GLOH   H05 9141   2.132   3.888   0.776  0.1125 -1.0622  1.4262
   69GLOH    C3 9142   2.064   4.028   0.979 -0.3534 -0.3428  0.4009
   69GLOH   H06 9143   2.003   3.946   0.941 -0.1776 -1.1981  1.9124
   69GLOH   H07 9144   2.042   4.117   0.920 -1.1461  0.8517  2.4606
   69GLOH    O3 9145   2.056   4.057   1.119 -0.3641  0.2123  0.0976
   69GLOH   H01 9146   2.011   3.976   1.151 -0.7407 -0.4993 -2.1012
   70GLOH   H03 9147   3.312   7.162   0.433  2.0237 -0.5721  0.2141
   70GLOH    O1 9148   3.300   7.165   0.530  0.3061 -0.2923  0.0138
   70GLOH    C1 9149   3.174   7.203   0.586 -0.5085 -0.7043  0.8928
   70GLOH   H02 9150   3.153   7.303   0.548  0.1224 -0.6421  0.7139
   70GLOH   H08 9151   3.184   7.198   0.694 -2.0690  1.7168  1.1862
   70GLOH    C2 9152   3.056   7.110   0.552  0.8615 -0.7355 -0.2894
   70GLOH   H04 9153   2.966   7.172   0.564  1.3165  0.0183 -0.7068
   70GLOH    O2 9154   3.047   7.076   0.416  0.3309  0.0462  0.7874
   70GLOH   H05 9155   2.952   7.074   0.398  0.2270  1.6291  1.0338
   70GLOH    C3 9156   3.054   6.987   0.648  0.2060  0.1366 -0.0982
   70GLOH   H06 9157   3.076   7.017   0.750 -1.6134 -1.3072  0.7475
   70GLOH   H07 9158   3.136   6.919   0.625  0.1434 -0.6872  2.0456
   70GLOH    O3 9159   2.926   6.924   0.645 -0.4139  1.0061  0.2527
   70GLOH   H01 9160   2.927   6.871   0.563 -3.2791 -1.6240  1.7866
   71GLOH   H03 9161   3.154   1.318   2.133  0.1596 -2.0452  0.3250
   71GLOH    O1 9162   3.140   1.358   2.221 -0.1031  0.1040 -0.6539
   71GLOH    C1 9163   3.162   1.495   2.231  0.5811  0.2181  0.0969
   71GLOH   H02 9164   3.080   1.528   2.294 -1.0695 -4.1467  0.4641
   71GLOH   H08 9165   3.137   1.547   2.139 -0.9108 -2.3852 -1.0309
   71GLOH    C2 9166   3.302   1.529   2.282  0.6194  0.6098 -0.0481
   71GLOH   H04 9167   3.376   1.501   2.205  1.1722 -0.6004  0.9025
   71GLOH    O2 9168   3.329   1.665   2.307 -0.0800 -0.3422  0.1523
   71GLOH   H05 9169   3.261   1.696   2.368 -0.2383 -2.1746  0.9454
   71GLOH    C3 9170   3.345   1.452   2.411  0.2416 -0.6696  0.0354
   71GLOH   H06 9171   3.278   1.489   2.489  0.3485  1.3526 -0.8231
   71GLOH   H07 9172   3.447   1.482   2.433  0.3241 -0.8138 -0.1521
   71GLOH    O3 9173   3.328   1.310   2.408 -0.4159 -0.1545 -0.3813
   71GLOH   H01 9174   3.335   1.279   2.315  0.4433 -1.0059 -0.0349
   72GLOH   H03 9175   4.090  10.112   2.363  2.9193  1.2040  1.9562
   72GLOH    O1 9176   4.066  10.044   2.429  0.5204  0.2975  0.1964
   72GLOH    C1 9177   3.998   9.935   2.354  0.1845  0.4140 -0.0667
   72GLOH   H02 9178   4.061   9.859   2.309 -2.2109 -2.0990  0.6976
   72GLOH   H08 9179   3.928   9.982   2.286  0.1984  0.4890 -0.0293
   72GLOH    C2 9180   3.914   9.859   2.458  0.6037 -0.4251  0.1607
   72GLOH   H04 9181   3.834   9.928   2.492 -0.1967 -1.4113  0.3146
   72GLOH    O2 9182   3.853   9.749   2.393 -0.4092  0.6848  0.0341
   72GLOH   H05 9183   3.822   9.690   2.463 -0.2760  1.5668  0.8548
   72GLOH    C3 9184   3.992   9.811   2.578 -0.3575  0.1494 -0.0595
   72GLOH   H06 9185   4.039   9.901   2.617 -1.1678  1.4979 -2.1430
   72GLOH   H07 9186   4.068   9.740   2.545 -1.3293 -0.3992 -1.1761
   72GLOH    O3 9187   3.905   9.758   2.681  0.5021  0.2253  0.2612
   72GLOH   H01 9188   3.952   9.677   2.710 -0.8663 -0.1788  1.4206
   73GLOH   H03 9189   3.826   0.491   1.815 -0.2851 -0.8447  0.1023
   73GLOH    O1 9190   3.812   0.474   1.720 -0.1332 -0.0661 -0.0653
   73GLOH    C1 9191   3.907   0.372   1.682  0.2932  0.0351  0.5606
   73GLOH   H02 9192   3.914   0.295   1.758 -1.3707  0.4823  1.1903
   73GLOH   H08 9193   4.009   0.413   1.680  1.2595 -2.3060  0.8927
   73GLOH    C2 9194   3.876   0.302   1.547 -0.3627 -0.1868 -0.3010
   73GLOH   H04 9195   3.856   0.381   1.473 -0.5402  0.8835  0.8780
   73GLOH    O2 9196   3.973   0.212   1.503 -0.4963 -0.8767  0.3013
   73GLOH   H05 9197   4.048   0.268   1.479 -0.6095  0.1184  2.1392
   73GLOH    C3 9198   3.743   0.225   1.557 -0.4759  0.2968  0.2597
   73GLOH   H06 9199   3.754   0.137   1.620  0.0277 -0.2213 -0.5328
   73GLOH   H07 9200   3.711   0.193   1.458 -2.0251 -1.4621  1.2980
   73GLOH    O3 9201   3.651   0.316   1.610  0.1382 -0.6077 -0.3123
   73GLOH   H01 9202   3.690   0.377   1.674 -1.0897 -0.2698  0.1234
   74GLOH   H03 9203   5.277   3.374   0.487 -1.1298  1.1786 -0.7805
   74GLOH    O1 9204   5.259   3.294   0.435  0.0326  0.0938  0.4461
   74GLOH    C1 9205   5.226   3.329   0.299 -0.3438 -0.3260 -0.0346
   74GLOH   H02 9206   5.304   3.378   0.242 -1.7610  2.1117  0.0553
   74GLOH   H08 9207   5.139   3.395   0.292  0.0788  0.0447 -2.1916
   74GLOH    C2 9208   5.176   3.212   0.216  0.3079  1.2507 -0.1790
   74GLOH   H04 9209   5.077   3.185   0.256  1.7630 -1.2969  1.8904
   74GLOH    O2 9210   5.154   3.222   0.074  0.0895 -0.4709 -0.6597
   74GLOH   H05 9211   5.105   3.141   0.049 -0.8407 -0.0893 -0.0923
   74GLOH    C3 9212   5.265   3.083   0.241 -0.2388  0.0607  0.1450
   74GLOH   H06 9213   5.358   3.109   0.192 -0.8116 -0.0291 -1.0064
   74GLOH   H07 9214   5.217   2.998   0.192  0.8824 -2.4695  3.2543
   74GLOH    O3 9215   5.307   3.052   0.377  0.0100 -0.3897 -0.0117
   74GLOH   H01 9216   5.291   3.137   0.421  0.9486 -0.8547  1.2364
   75GLOH   H03 9217   2.717   4.367   2.904 -0.1121  0.8118  0.2481
   75GLOH    O1 9218   2.717   4.383   2.808  0.3042  0.6129  0.2099
   75GLOH    C1 9219   2.731   4.527   2.791 -0.3888  0.1063  0.2115
   75GLOH   H02 9220   2.797   4.559   2.872 -0.8297  1.3250  0.1107
   75GLOH   H08 9221   2.638   4.581   2.806 -1.2312 -1.1961 -0.2435
   75GLOH    C2 9222   2.780   4.565   2.654  0.2713  0.0640  0.8709
   75GLOH   H04 9223   2.710   4.524   2.580 -0.4856  0.6575  1.2500
   75GLOH    O2 9224   2.796   4.711   2.631  0.2662  0.2946  0.3391
   75GLOH   H05 9225   2.727   4.768   2.668 -0.1999 -1.7305  2.6890
   75GLOH    C3 9226   2.914   4.489   2.626  0.4047  0.7328 -0.0968
   75GLOH   H06 9227   2.984   4.510   2.708  0.5847  0.0186 -0.0698
   75GLOH   H07 9228   2.954   4.526   2.531 -0.8209  1.3715 -0.3667
   75GLOH    O3 9229   2.895   4.346   2.613 -1.0367 -0.0073 -0.2574
   75GLOH   H01 9230   2.836   4.325   2.688  0.9795  0.9007  1.6254
   76GLOH   H03 9231   3.412   7.873   2.334 -1.7068 -1.3726  0.1517
   76GLOH    O1 9232   3.395   7.868   2.238 -0.1412  0.0909 -0.2195
   76GLOH    C1 9233   3.440   7.991   2.179  0.0770 -0.3308  0.2129
   76GLOH   H02 9234   3.365   8.068   2.163  0.7803  0.3216  0.0071
   76GLOH   H08 9235   3.466   7.965   2.076 -0.2501 -0.0560  0.0597
   76GLOH    C2 9236   3.562   8.041   2.263  0.6105  0.9134 -1.0942
   76GLOH   H04 9237   3.641   7.964   2.262 -0.0592  0.0303  3.3114
   76GLOH    O2 9238   3.630   8.155   2.204  0.6492  0.0171  0.2200
   76GLOH   H05 9239   3.588   8.188   2.123  0.4042  2.4810  1.3052
   76GLOH    C3 9240   3.534   8.059   2.410 -0.5352 -0.0263 -0.5298
   76GLOH   H06 9241   3.453   8.130   2.427 -1.4191 -1.3845  1.0790
   76GLOH   H07 9242   3.620   8.106   2.458 -1.6765  2.4667 -0.8267
   76GLOH    O3 9243   3.497   7.930   2.466  0.2307 -0.8828  0.5943
   76GLOH   H01 9244   3.487   7.935   2.563  1.6981  0.2031  0.7037
   77GLOH   H03 9245   2.318   9.002   1.416  2.8499  0.0190  2.6002
   77GLOH    O1 9246   2.384   9.042   1.356  0.3102  0.6133  0.0810
   77GLOH    C1 9247   2.422   9.167   1.417 -0.0721 -0.4719 -0.0824
   77GLOH   H02 9248   2.331   9.211   1.459  2.0958  2.7857  1.3168
   77GLOH   H08 9249   2.460   9.237   1.343  1.7373 -0.8448  0.4665
   77GLOH    C2 9250   2.518   9.157   1.539 -0.4163 -0.1310  0.3431
   77GLOH   H04 9251   2.616   9.140   1.493  0.4518 -0.1519  2.1703
   77GLOH    O2 9252   2.519   9.284   1.614  0.0701 -0.4749 -0.1954
   77GLOH   H05 9253   2.435   9.306   1.658  0.1283 -1.5831  0.4737
   77GLOH    C3 9254   2.490   9.035   1.632 -0.0981  0.0509 -0.3199
   77GLOH   H06 9255   2.558   9.049   1.716  0.1045  0.5711 -0.5746
   77GLOH   H07 9256   2.530   8.945   1.585 -0.0636 -0.0926 -0.0227
   77GLOH    O3 9257   2.354   9.017   1.669 -0.2314 -0.0401 -0.2309
   77GLOH   H01 9258   2.328   8.923   1.663  0.9498 -0.3630 -0.3389
   78GLOH   H03 9259   4.486   3.560   2.249  2.2283 -1.4444 -0.0704
   78GLOH    O1 9260   4.512   3.587   2.159  0.6449 -0.4068 -0.2396
   78GLOH    C1 9261   4.398   3.585   2.068  0.5000 -0.1711 -0.3739
   78GLOH   H02 9262   4.331   3.668   2.092 -0.0763 -1.0324  1.0333
   78GLOH   H08 9263   4.330   3.500   2.075 -2.2056  1.8754 -0.8863
   78GLOH    C2 9264   4.429   3.608   1.919  0.2354 -0.1292  0.3414
   78GLOH   H04 9265   4.490   3.524   1.883  2.9235  2.1071 -0.5321
   78GLOH    O2 9266   4.306   3.615   1.844  0.0724 -0.3885  0.0828
   78GLOH   H05 9267   4.340   3.623   1.753 -0.1497 -1.1054 -0.0672
   78GLOH    C3 9268   4.525   3.727   1.905 -0.3984  0.4194 -0.1661
   78GLOH   H06 9269   4.475   3.812   1.951  0.8406  1.9596 -1.6551
   78GLOH   H07 9270   4.547   3.752   1.801 -0.0711 -0.7070 -0.3798
   78GLOH    O3 9271   4.650   3.691   1.962 -0.1443 -0.2533 -0.1603
   78GLOH   H01 9272   4.620   3.632   2.034 -2.2536  2.0175  0.9044
   79GLOH   H03 9273   4.218   0.654   2.148 -0.2896  0.2421 -1.8734
   79GLOH    O1 9274   4.297   0.596   2.146 -0.2081  0.2500  0.1998
   79GLOH    C1 9275   4.349   0.605   2.007 -0.4083  0.2535 -0.2354
   79GLOH   H02 9276   4.448   0.565   1.987 -0.0672  1.7460 -1.6453
   79GLOH   H08 9277   4.343   0.711   1.981  1.2647  0.1999 -0.8799
   79GLOH    C2 9278   4.259   0.528   1.909  0.0834  0.1645  0.7635
   79GLOH   H04 9279   4.153   0.560   1.911  0.2710  0.8452  0.2115
   79GLOH    O2 9280   4.301   0.547   1.771 -0.5567  0.1346 -0.2153
   79GLOH   H05 9281   4.320   0.641   1.755  0.7369 -0.1068 -0.1300
   79GLOH    C3 9282   4.282   0.378   1.935  0.3403  0.5328  0.1345
   79GLOH   H06 9283   4.383   0.357   1.901  0.4418 -0.9731  1.2877
   79GLOH   H07 9284   4.227   0.314   1.866 -2.1987  0.3959  2.1703
   79GLOH    O3 9285   4.267   0.349   2.073  0.2878 -0.1509  0.9186
   79GLOH   H01 9286   4.290   0.430   2.121  0.4397 -1.0401  2.3644
   80GLOH   H03 9287   3.551   9.317   1.721 -0.0759 -0.1914 -0.1402
   80GLOH    O1 9288   3.497   9.360   1.790  0.1011  0.0659 -0.1632
   80GLOH    C1 9289   3.398   9.440   1.722  0.0871  0.2122  1.1603
   80GLOH   H02 9290   3.298   9.411   1.755 -0.1769  0.9349  1.0043
   80GLOH   H08 9291   3.405   9.424   1.615 -0.4916  1.4590  0.9302
   80GLOH    C2 9292   3.407   9.596   1.760 -0.2320  0.2994 -0.3256
   80GLOH   H04 9293   3.507   9.628   1.726  0.5765  0.1288  1.8639
   80GLOH    O2 9294   3.303   9.679   1.693 -0.5905  0.1018 -0.2103
   80GLOH   H05 9295   3.345   9.760   1.661 -1.6369  0.7701  0.1009
   80GLOH    C3 9296   3.418   9.612   1.910  0.0194 -0.8408 -0.0108
   80GLOH   H06 9297   3.323   9.575   1.947  0.0428  0.5944  1.5308
   80GLOH   H07 9298   3.415   9.719   1.930 -0.6098 -0.5590 -1.5351
   80GLOH    O3 9299   3.534   9.544   1.962 -0.0185 -0.2308 -0.2584
   80GLOH   H01 9300   3.529   9.452   1.930  3.0569 -0.3556 -0.5504
   81GLOH   H03 9301   2.206   4.435   1.004  0.0257  1.3770  0.4322
   81GLOH    O1 9302   2.259   4.450   0.923 -0.2597 -0.0991 -0.0393
   81GLOH    C1 9303   2.366   4.357   0.901  0.0530 -0.0684  0.0382
   81GLOH   H02 9304   2.328   4.283   0.831  0.7262  0.0360 -0.4407
   81GLOH   H08 9305   2.397   4.307   0.993 -0.0489 -0.7062 -0.2689
   81GLOH    C2 9306   2.488   4.422   0.826 -0.0426 -0.3629  0.9457
   81GLOH   H04 9307   2.528   4.503   0.889  1.5169  0.4737 -1.0614
   81GLOH    O2 9308   2.594   4.324   0.802 -0.2419 -0.5722  0.3287
   81GLOH   H05 9309   2.552   4.243   0.769  2.7268 -1.5337 -1.2664
   81GLOH    C3 9310   2.438   4.487   0.692 -0.3875 -0.0729  0.3236
   81GLOH   H06 9311   2.388   4.412   0.630 -1.1888  1.3054 -0.7122
   81GLOH   H07 9312   2.517   4.521   0.625 -0.4525 -1.1473 -0.3185
   81GLOH    O3 9313   2.340   4.584   0.722  0.2377 -0.4303 -0.5142
   81GLOH   H01 9314   2.287   4.557   0.799 -2.7084  1.3662 -1.8375
   82GLOH   H03 9315   3.774   9.031   2.129  0.8609  0.5472  1.4248
   82GLOH    O1 9316   3.731   9.112   2.096 -0.4442 -0.6809  0.0364
   82GLOH    C1 9317   3.786   9.147   1.963 -0.7170  0.3181 -0.9322
   82GLOH   H02 9318   3.706   9.132   1.890 -1.7851  0.3933  0.1977
   82GLOH   H08 9319   3.877   9.091   1.940 -0.9536 -0.3826 -0.1677
   82GLOH    C2 9320   3.829   9.288   1.949  0.3244  0.1075  0.3258
   82GLOH   H04 9321   3.738   9.350   1.939 -1.5551 -2.0828  2.9341
   82GLOH    O2 9322   3.903   9.337   2.062 -0.4361  0.3203 -0.1162
   82GLOH   H05 9323   3.833   9.361   2.125  0.1935  1.8007  0.0448
   82GLOH    C3 9324   3.917   9.311   1.828  0.3462 -0.4119  0.5933
   82GLOH   H06 9325   4.009   9.252   1.826 -0.0089 -0.9424 -0.7650
   82GLOH   H07 9326   3.949   9.415   1.837  1.9094 -0.8200 -0.0477
   82GLOH    O3 9327   3.843   9.296   1.705 -0.4926 -0.8128 -0.5120
   82GLOH   H01 9328   3.811   9.384   1.678  0.9241  0.1512  0.8708
   83GLOH   H03 9329   2.153   0.361   3.055 -0.4748 -2.2065  0.6917
   83GLOH    O1 9330   2.093   0.373   2.979  0.3985 -0.5467  0.2300
   83GLOH    C1 9331   2.034   0.242   2.961  0.6563 -0.4437  0.7786
   83GLOH   H02 9332   1.950   0.251   2.893  1.4109  0.0057 -0.1081
   83GLOH   H08 9333   1.989   0.215   3.057 -1.3615  1.5589  0.4352
   83GLOH    C2 9334   2.133   0.131   2.923  0.6267 -0.1638  0.1570
   83GLOH   H04 9335   2.228   0.133   2.979  1.5678  1.4543 -1.4565
   83GLOH    O2 9336   2.079   0.005   2.961 -0.2958 -0.5008  0.4147
   83GLOH   H05 9337   2.033  -0.020   2.879 -0.6931  0.6016  0.2811
   83GLOH    C3 9338   2.155   0.138   2.768  0.2340  0.8519 -0.0038
   83GLOH   H06 9339   2.222   0.059   2.734  0.7749  2.2619 -2.2622
   83GLOH   H07 9340   2.217   0.224   2.743  2.3962 -1.1790 -1.9419
   83GLOH    O3 9341   2.045   0.144   2.684 -0.9883  0.1285 -0.2918
   83GLOH   H01 9342   2.084   0.152   2.595  0.1666 -1.7249  0.0086
   84GLOH   H03 9343   3.338   4.500   0.187  0.2622 -0.0328 -1.0513
   84GLOH    O1 9344   3.249   4.462   0.201  0.5228 -0.3093 -0.1248
   84GLOH    C1 9345   3.184   4.516   0.309 -0.1169  0.2730  1.1205
   84GLOH   H02 9346   3.078   4.494   0.298  0.0748 -0.4801  0.7550
   84GLOH   H08 9347   3.191   4.624   0.297  0.5454 -0.1340 -2.8194
   84GLOH    C2 9348   3.236   4.489   0.450 -0.4121 -0.3840 -0.0951
   84GLOH   H04 9349   3.264   4.382   0.447 -0.0574 -0.4600  3.4175
   84GLOH    O2 9350   3.355   4.565   0.478 -0.1726 -0.0821  0.4894
   84GLOH   H05 9351   3.347   4.649   0.429 -0.5223 -1.5429 -2.0392
   84GLOH    C3 9352   3.121   4.499   0.553 -0.3635 -0.0717 -0.8574
   84GLOH   H06 9353   3.078   4.598   0.533  0.6040  0.1172 -2.0791
   84GLOH   H07 9354   3.161   4.503   0.654 -0.2178 -2.0853 -0.8202
   84GLOH    O3 9355   3.013   4.400   0.540 -0.6741  0.1933 -0.1277
   84GLOH   H01 9356   2.945   4.407   0.609  0.7649  1.6519  1.1852
   85GLOH   H03 9357   3.525   3.711   1.378 -1.2058 -0.9349  0.9730
   85GLOH    O1 9358   3.522   3.761   1.462 -0.5198 -0.0317  0.4687
   85GLOH    C1 9359   3.625   3.863   1.447  0.2323 -0.1137  0.4060
   85GLOH   H02 9360   3.585   3.950   1.498  1.2166  1.0850 -0.8496
   85GLOH   H08 9361   3.626   3.898   1.344  2.2300 -3.8756 -0.9623
   85GLOH    C2 9362   3.772   3.837   1.488 -0.2748  0.3920  0.3941
   85GLOH   H04 9363   3.810   3.753   1.428  0.6516  1.6087 -0.7583
   85GLOH    O2 9364   3.848   3.960   1.458  0.1707 -0.1480 -0.4819
   85GLOH   H05 9365   3.944   3.946   1.445  0.7157  0.3184  2.5846
   85GLOH    C3 9366   3.791   3.796   1.638  0.4587 -0.3933 -0.2264
   85GLOH   H06 9367   3.723   3.712   1.655 -0.2922  0.4003  0.7589
   85GLOH   H07 9368   3.758   3.882   1.697  0.9569  0.7696 -1.6065
   85GLOH    O3 9369   3.918   3.764   1.684 -0.5139 -0.6439 -0.1212
   85GLOH   H01 9370   3.953   3.687   1.636 -1.0905 -0.9406 -0.0747
   86GLOH   H03 9371   3.222   7.624   2.684  1.7114 -0.7758 -2.1681
   86GLOH    O1 9372   3.171   7.682   2.624  0.3079 -0.0777 -0.3519
   86GLOH    C1 9373   3.243   7.666   2.500 -0.5843  0.0741 -0.2721
   86GLOH   H02 9374   3.257   7.558   2.498 -0.2055  0.1288 -0.4647
   86GLOH   H08 9375   3.340   7.714   2.494 -1.1758  1.3650  0.2045
   86GLOH    C2 9376   3.150   7.710   2.379  0.1090  0.3075 -0.3164
   86GLOH   H04 9377   3.123   7.816   2.386 -0.4095  0.0679  1.8553
   86GLOH    O2 9378   3.221   7.681   2.254  0.6049  0.5001 -0.5801
   86GLOH   H05 9379   3.290   7.748   2.244  0.3387  1.2864  2.2908
   86GLOH    C3 9380   3.024   7.623   2.393  0.1684  0.2207 -0.2240
   86GLOH   H06 9381   3.060   7.520   2.387 -0.0129  0.1812 -0.6155
   86GLOH   H07 9382   2.962   7.644   2.306 -0.8135 -0.6250  0.2581
   86GLOH    O3 9383   2.946   7.641   2.515 -0.3475 -0.1696 -0.5449
   86GLOH   H01 9384   3.016   7.667   2.577  0.7821 -0.1269 -1.7995
   87GLOH   H03 9385   4.111   5.364   0.298 -2.3556 -0.0436  0.3806
   87GLOH    O1 9386   4.128   5.376   0.394  0.4886 -0.1848 -0.0577
   87GLOH    C1 9387   4.263   5.323   0.418  0.4248  0.2617 -0.3993
   87GLOH   H02 9388   4.281   5.328   0.525 -2.3942 -1.7348  0.2010
   87GLOH   H08 9389   4.341   5.386   0.374  1.4089 -0.2147  0.6145
   87GLOH    C2 9390   4.274   5.177   0.363  0.3908  0.0718 -0.2603
   87GLOH   H04 9391   4.266   5.182   0.253  0.3070  0.5557 -0.2323
   87GLOH    O2 9392   4.405   5.118   0.395  0.3171  0.3060 -0.2164
   87GLOH   H05 9393   4.425   5.130   0.489  0.0857 -2.4569  0.2245
   87GLOH    C3 9394   4.153   5.090   0.412  0.2743 -0.1426 -0.5875
   87GLOH   H06 9395   4.156   5.004   0.345  1.0908 -0.6030  0.0283
   87GLOH   H07 9396   4.058   5.141   0.395 -1.0137 -1.7983  1.3543
   87GLOH    O3 9397   4.157   5.049   0.546 -0.1530  0.3275  0.3846
   87GLOH   H01 9398   4.194   4.959   0.550 -2.4951 -0.6147  2.7404
   88GLOH   H03 9399   5.547   2.881   1.200 -0.1554 -0.3056  0.9799
   88GLOH    O1 9400   5.495   2.819   1.146  0.0066  0.4004  0.0061
   88GLOH    C1 9401   5.528   2.825   1.000 -0.1414 -0.5948  0.5123
   88GLOH   H02 9402   5.632   2.802   0.980 -0.2571  0.2470 -1.1977
   88GLOH   H08 9403   5.514   2.925   0.958 -1.5179 -0.2694  1.7148
   88GLOH    C2 9404   5.440   2.729   0.915 -0.8241 -0.1229 -0.3513
   88GLOH   H04 9405   5.337   2.764   0.935 -0.6896  0.4658 -0.6737
   88GLOH    O2 9406   5.477   2.756   0.779  0.1798  0.0090  0.1624
   88GLOH   H05 9407   5.404   2.717   0.728  1.1440 -0.7421 -0.6667
   88GLOH    C3 9408   5.448   2.582   0.965 -0.0715 -0.5250  0.4312
   88GLOH   H06 9409   5.554   2.556   0.961 -0.5321 -2.1562 -2.0617
   88GLOH   H07 9410   5.384   2.515   0.909 -0.9532  0.7949 -0.1479
   88GLOH    O3 9411   5.403   2.586   1.100  0.2168 -0.2695  0.3405
   88GLOH   H01 9412   5.443   2.663   1.145 -0.0285 -0.3787  0.7460
   89GLOH   H03 9413   2.652   6.529   0.795 -0.0153 -0.6092  1.5229
   89GLOH    O1 9414   2.565   6.500   0.761  0.2844  0.1908  0.0556
   89GLOH    C1 9415   2.589   6.513   0.619  0.5907 -0.4051 -0.8644
   89GLOH   H02 9416   2.673   6.447   0.595  1.3630 -0.1653  1.1122
   89GLOH   H08 9417   2.611   6.616   0.592 -0.6729  0.6997  2.0924
   89GLOH    C2 9418   2.476   6.474   0.529  0.0556  0.0056  0.3262
   89GLOH   H04 9419   2.454   6.366   0.529 -0.5077  0.1043 -2.0543
   89GLOH    O2 9420   2.347   6.528   0.573  0.2564  0.5103 -0.3133
   89GLOH   H05 9421   2.304   6.447   0.605  0.5175  0.2560 -0.6102
   89GLOH    C3 9422   2.501   6.513   0.377 -0.3323 -0.0860 -0.1376
   89GLOH   H06 9423   2.517   6.618   0.353 -2.7128  0.5379  0.7950
   89GLOH   H07 9424   2.410   6.493   0.320 -0.1017  0.8193 -0.8240
   89GLOH    O3 9425   2.613   6.446   0.324  0.1613 -0.1120 -0.1694
   89GLOH   H01 9426   2.676   6.506   0.280 -0.7214 -0.0579 -1.3937
   90GLOH   H03 9427   2.099   5.976   2.478 -2.2378  0.5581 -1.1220
   90GLOH    O1 9428   2.106   6.046   2.546 -0.0818 -0.5419 -0.1624
   90GLOH    C1 9429   2.007   6.012   2.648  0.3871 -0.7093 -0.6751
   90GLOH   H02 9430   2.032   5.915   2.691  1.4501  0.1242  0.6238
   90GLOH   H08 9431   1.907   6.004   2.605 -0.7679  0.4252  1.7613
   90GLOH    C2 9432   2.008   6.115   2.761  0.2928  0.0669 -0.5558
   90GLOH   H04 9433   1.956   6.207   2.731 -1.4791 -0.4289  0.8401
   90GLOH    O2 9434   1.921   6.060   2.862 -0.4286 -0.0716  0.1835
   90GLOH   H05 9435   1.895   6.133   2.920  1.8828  2.8748 -2.3511
   90GLOH    C3 9436   2.144   6.162   2.812 -0.7905  0.5864 -0.1326
   90GLOH   H06 9437   2.189   6.080   2.868  0.3600  1.8025  0.7555
   90GLOH   H07 9438   2.132   6.244   2.883  1.2382  1.1647 -0.4085
   90GLOH    O3 9439   2.235   6.196   2.706 -0.2957  0.1062 -0.3222
   90GLOH   H01 9440   2.202   6.158   2.623 -1.3358 -0.2860  0.2487
   91GLOH   H03 9441   3.800   8.481   2.411 -2.9815  0.6358 -0.8985
   91GLOH    O1 9442   3.793   8.571   2.450  0.2240  0.5421 -0.0014
   91GLOH    C1 9443   3.831   8.557   2.589 -0.0657 -0.5447  0.3401
   91GLOH   H02 9444   3.759   8.597   2.660 -2.5800 -1.1267 -1.8183
   91GLOH   H08 9445   3.923   8.612   2.609  0.0772 -0.4666 -0.4855
   91GLOH    C2 9446   3.864   8.416   2.635 -1.0811  0.0819 -0.0946
   91GLOH   H04 9447   3.930   8.367   2.562 -0.4018 -0.2850  0.7601
   91GLOH    O2 9448   3.938   8.424   2.755 -0.2448  0.0930 -0.5351
   91GLOH   H05 9449   3.977   8.336   2.767  0.4955  0.1750 -2.2458
   91GLOH    C3 9450   3.733   8.335   2.650  0.3478  0.0307 -0.2428
   91GLOH   H06 9451   3.681   8.366   2.741 -0.2346  0.9176 -0.8656
   91GLOH   H07 9452   3.747   8.229   2.668  1.4169  0.3423  0.7654
   91GLOH    O3 9453   3.641   8.345   2.537  0.3734  0.2479 -0.0518
   91GLOH   H01 9454   3.695   8.329   2.457  0.3717 -0.2195  0.0393
   92GLOH   H03 9455   3.742   9.373   1.234  1.3880  0.9304 -0.0840
   92GLOH    O1 9456   3.792   9.296   1.202  0.3903  0.0759  0.3875
   92GLOH    C1 9457   3.712   9.234   1.104 -0.3143 -0.5042 -0.5574
   92GLOH   H02 9458   3.612   9.224   1.146 -1.2900  1.1147 -2.4052
   92GLOH   H08 9459   3.763   9.144   1.070  0.1426 -0.9256  1.2041
   92GLOH    C2 9460   3.693   9.318   0.978  0.3036 -0.0151  0.1962
   92GLOH   H04 9461   3.787   9.364   0.946  0.2603  0.1209  0.2630
   92GLOH    O2 9462   3.619   9.249   0.871 -0.2475  0.2336 -0.3201
   92GLOH   H05 9463   3.638   9.154   0.885 -1.3190  0.1913  0.9807
   92GLOH    C3 9464   3.616   9.444   1.013  0.2903 -0.0239  0.0104
   92GLOH   H06 9465   3.509   9.421   1.023  0.2541  0.5242  0.9940
   92GLOH   H07 9466   3.616   9.517   0.932  2.5629 -0.4297 -0.3654
   92GLOH    O3 9467   3.662   9.510   1.127  0.7403 -0.4349 -0.2895
   92GLOH   H01 9468   3.736   9.568   1.099  0.7200  0.1034  0.7470
   93GLOH   H03 9469   4.044   5.414   0.536  0.2929 -1.1573  0.9044
   93GLOH    O1 9470   3.966   5.410   0.594 -0.0598  0.3441  0.5744
   93GLOH    C1 9471   3.925   5.277   0.642 -1.3909  0.4281 -0.0637
   93GLOH   H02 9472   3.914   5.211   0.556  1.5467  0.5110 -0.5618
   93GLOH   H08 9473   3.828   5.277   0.692 -1.2009 -2.9298  0.4633
   93GLOH    C2 9474   4.020   5.218   0.752 -0.0532 -0.2776 -0.0445
   93GLOH   H04 9475   4.122   5.188   0.727 -0.1831  0.0170 -0.9557
   93GLOH    O2 9476   4.028   5.318   0.859  0.3826  0.1401 -0.0915
   93GLOH   H05 9477   3.964   5.388   0.838  1.1764  0.8988 -0.0109
   93GLOH    C3 9478   3.955   5.088   0.806 -0.4090  1.0977  1.0757
   93GLOH   H06 9479   3.855   5.108   0.842 -1.2587  0.6444 -0.9284
   93GLOH   H07 9480   4.015   5.047   0.888  0.1630  2.2923  1.2548
   93GLOH    O3 9481   3.953   4.992   0.696  0.2589  0.3735  0.8125
   93GLOH   H01 9482   4.024   5.018   0.634 -1.0851  1.7828 -0.1634
   94GLOH   H03 9483   2.876   6.714   2.038 -0.7241  0.4266 -0.3195
   94GLOH    O1 9484   2.962   6.729   2.082 -0.7170 -0.2181 -0.1115
   94GLOH    C1 9485   3.007   6.860   2.057  0.1566 -0.5643  0.1557
   94GLOH   H02 9486   2.999   6.884   1.951  0.5048 -0.1476  0.2208
   94GLOH   H08 9487   3.112   6.873   2.084  0.1370 -1.2282  0.5511
   94GLOH    C2 9488   2.916   6.965   2.127 -0.5030 -0.2438 -0.5065
   94GLOH   H04 9489   2.812   6.939   2.100 -0.6686 -0.2398  0.1318
   94GLOH    O2 9490   2.935   6.960   2.271  0.5655 -0.1487  0.3886
   94GLOH   H05 9491   2.932   6.868   2.304  2.0288 -0.5078 -0.4215
   94GLOH    C3 9492   2.947   7.115   2.088  0.6845 -0.2501 -0.2081
   94GLOH   H06 9493   3.051   7.141   2.108  1.0725 -0.8574 -1.3433
   94GLOH   H07 9494   2.886   7.183   2.146  0.5164 -0.2617 -0.3726
   94GLOH    O3 9495   2.918   7.155   1.952  0.3653 -0.6104  0.2029
   94GLOH   H01 9496   2.953   7.246   1.945  0.3826 -0.7518 -2.1196
   95GLOH   H03 9497   2.922   9.263   1.312 -0.1368  0.8369 -1.1410
   95GLOH    O1 9498   2.853   9.201   1.283 -0.0854  0.4023 -0.3212
   95GLOH    C1 9499   2.885   9.141   1.159 -0.0532  0.2179  0.2568
   95GLOH   H02 9500   2.844   9.040   1.148 -1.3799  0.9739 -2.1940
   95GLOH   H08 9501   2.992   9.127   1.150 -0.3299 -0.3999 -2.8084
   95GLOH    C2 9502   2.844   9.228   1.040 -0.0834 -0.0964 -0.8637
   95GLOH   H04 9503   2.901   9.323   1.042 -1.3844  0.7103 -1.5907
   95GLOH    O2 9504   2.889   9.156   0.921 -0.0897 -0.5579 -0.0213
   95GLOH   H05 9505   2.843   9.071   0.925 -0.0714 -0.4483  5.3156
   95GLOH    C3 9506   2.693   9.267   1.037 -0.4593 -0.2484 -0.3110
   95GLOH   H06 9507   2.639   9.181   0.999 -1.3582  0.2573 -0.1959
   95GLOH   H07 9508   2.686   9.349   0.965 -1.5937 -1.3635 -1.4877
   95GLOH    O3 9509   2.653   9.313   1.167 -0.3147 -0.0224  0.3246
   95GLOH   H01 9510   2.691   9.251   1.232 -0.8898 -1.7619 -0.9626
   96GLOH   H03 9511   4.150   9.359   2.438 -2.6881 -0.3907 -0.1609
   96GLOH    O1 9512   4.161   9.356   2.534  0.7109 -0.0953 -0.4956
   96GLOH    C1 9513   4.112   9.482   2.600 -0.2046  0.1759  0.2293
   96GLOH   H02 9514   4.019   9.522   2.560  0.6325  1.4520 -0.4465
   96GLOH   H08 9515   4.184   9.563   2.587  0.0649 -0.2003 -0.6116
   96GLOH    C2 9516   4.094   9.457   2.751 -0.4580  0.4003  0.0447
   96GLOH   H04 9517   4.190   9.414   2.784 -1.0873  0.4128  1.9542
   96GLOH    O2 9518   4.062   9.583   2.814  0.4521 -0.3294 -0.2757
   96GLOH   H05 9519   4.038   9.571   2.907 -0.5692 -1.4889 -0.6657
   96GLOH    C3 9520   3.989   9.353   2.777  0.1209  0.3951 -0.4497
   96GLOH   H06 9521   3.971   9.347   2.885  0.1017  1.2999 -0.4002
   96GLOH   H07 9522   4.025   9.254   2.750 -1.5504 -0.2081 -0.5347
   96GLOH    O3 9523   3.860   9.367   2.715 -0.2176 -0.1849  0.3468
   96GLOH   H01 9524   3.808   9.286   2.733 -0.2431 -0.0433  0.9153
   97GLOH   H03 9525   3.822   9.212   0.259 -0.0915  1.0508 -0.0646
   97GLOH    O1 9526   3.846   9.227   0.352 -0.0902 -0.4018  0.1704
   97GLOH    C1 9527   3.778   9.332   0.422  0.2326  0.3682 -0.2803
   97GLOH   H02 9528   3.670   9.322   0.418  0.2167  0.4842 -0.1351
   97GLOH   H08 9529   3.800   9.428   0.375 -1.5641  1.5842  1.2727
   97GLOH    C2 9530   3.816   9.352   0.573  0.2063  0.6188  0.1928
   97GLOH   H04 9531   3.794   9.250   0.609 -1.7087  1.0386  0.2879
   97GLOH    O2 9532   3.959   9.384   0.588 -0.3634 -0.0541 -0.3877
   97GLOH   H05 9533   4.011   9.302   0.586 -0.8879 -0.4087  0.7227
   97GLOH    C3 9534   3.721   9.458   0.638 -0.0797  0.1254 -0.0512
   97GLOH   H06 9535   3.718   9.551   0.581  1.5728  0.9449  1.1468
   97GLOH   H07 9536   3.760   9.485   0.737 -1.1600  1.1690  0.1053
   97GLOH    O3 9537   3.586   9.408   0.658  0.1660  0.2884 -0.0273
   97GLOH   H01 9538   3.587   9.322   0.704  2.1078 -0.2367 -1.0312
   98GLOH   H03 9539   2.537   1.488   1.230 -0.4749  0.8175 -0.1075
   98GLOH    O1 9540   2.484   1.439   1.296 -0.0206  0.2532 -0.1559
   98GLOH    C1 9541   2.570   1.401   1.402 -0.2353  0.1719  0.8216
   98GLOH   H02 9542   2.631   1.318   1.366 -0.2944 -0.3079  1.7937
   98GLOH   H08 9543   2.516   1.350   1.481 -0.7931  1.3208  1.1923
   98GLOH    C2 9544   2.667   1.512   1.458  0.2932 -0.0151 -0.0319
   98GLOH   H04 9545   2.740   1.541   1.381 -0.4881  1.5002 -0.2366
   98GLOH    O2 9546   2.603   1.632   1.507 -0.6588 -0.0249 -0.2592
   98GLOH   H05 9547   2.677   1.693   1.523  0.2992 -0.3985 -3.0084
   98GLOH    C3 9548   2.743   1.450   1.574  0.4435 -0.1853 -0.1339
   98GLOH   H06 9549   2.684   1.451   1.666 -0.6465 -1.3751 -0.8113
   98GLOH   H07 9550   2.826   1.518   1.598  0.1845  0.1491 -0.1857
   98GLOH    O3 9551   2.805   1.321   1.547  0.2601  0.6853 -0.3419
   98GLOH   H01 9552   2.847   1.286   1.628  1.9190 -0.2387 -1.5923
   99GLOH   H03 9553   2.034   1.445   1.833  0.2946  2.8182  0.3042
   99GLOH    O1 9554   1.950   1.429   1.880  0.4581  0.2630 -0.2054
   99GLOH    C1 9555   1.967   1.405   2.024 -0.0290  0.1204  0.0218
   99GLOH   H02 9556   1.906   1.465   2.090 -0.1098 -0.8878  0.8726
   99GLOH   H08 9557   2.069   1.426   2.055 -0.0149  1.9260 -1.1485
   99GLOH    C2 9558   1.940   1.263   2.055  0.3340 -0.6989 -0.4102
   99GLOH   H04 9559   1.981   1.204   1.971 -1.6812  1.1547 -2.7673
   99GLOH    O2 9560   2.000   1.214   2.178  0.4454  0.3689  0.3632
   99GLOH   H05 9561   1.989   1.117   2.182 -2.1353  0.6860  2.3039
   99GLOH    C3 9562   1.791   1.222   2.043  0.1115 -0.6354 -0.6296
   99GLOH   H06 9563   1.727   1.274   2.114 -1.8510 -4.2363  0.3278
   99GLOH   H07 9564   1.791   1.115   2.061  0.2407 -0.6662 -0.8190
   99GLOH    O3 9565   1.741   1.262   1.911 -0.5204 -0.3305 -0.4903
   99GLOH   H01 9566   1.808   1.329   1.887 -0.0409 -0.8632 -0.6555
  100GLOH   H03 9567   3.040   2.144   1.673 -1.1908  0.1188 -0.5986
  100GLOH    O1 9568   3.033   2.146   1.770 -0.0311  0.2787 -0.5078
  100GLOH    C1 9569   3.113   2.038   1.827  0.1842  0.1732 -0.3506
  100GLOH   H02 9570   3.047   1.968   1.878  1.1884 -1.5240 -1.3207
  100GLOH   H08 9571   3.185   2.079   1.898  0.1262 -0.9048  0.3426
  100GLOH    C2 9572   3.200   1.965   1.724 -0.0314  0.0636 -0.2552
  100GLOH   H04 9573   3.142   1.903   1.655  0.6644  1.4820 -2.1792
  100GLOH    O2 9574   3.296   2.046   1.646  0.1015 -0.8633  0.3199
  100GLOH   H05 9575   3.288   2.004   1.558 -1.7750 -2.0178  0.9876
  100GLOH    C3 9576   3.292   1.866   1.788  0.1448  0.3406 -0.5395
  100GLOH   H06 9577   3.373   1.924   1.831  0.6770 -1.1825  0.5796
  100GLOH   H07 9578   3.338   1.807   1.709 -2.3219 -0.2854 -1.5733
  100GLOH    O3 9579   3.214   1.791   1.878 -0.1473 -0.3978 -0.1649
  100GLOH   H01 9580   3.209   1.838   1.963  0.7094  2.5066 -1.6665
  101GLOH   H03 9581   5.320   4.411   0.231 -2.1281 -1.0923  0.8950
  101GLOH    O1 9582   5.358   4.396   0.319  0.0458  0.6211  0.2953
  101GLOH    C1 9583   5.493   4.343   0.307 -0.0532  0.5299  0.5975
  101GLOH   H02 9584   5.567   4.420   0.329 -0.5220  0.7861  1.2936
  101GLOH   H08 9585   5.517   4.314   0.205  1.1938 -0.2522  1.0977
  101GLOH    C2 9586   5.507   4.217   0.393  0.4617 -0.2838  0.0308
  101GLOH   H04 9587   5.420   4.155   0.366  1.0756 -1.1319  0.0010
  101GLOH    O2 9588   5.625   4.149   0.373  0.0513 -0.1427 -0.2972
  101GLOH   H05 9589   5.699   4.201   0.408 -0.2910  1.4086 -1.7766
  101GLOH    C3 9590   5.502   4.250   0.545 -0.1627 -0.5230  0.3058
  101GLOH   H06 9591   5.597   4.293   0.577  1.0592 -2.6307 -0.4272
  101GLOH   H07 9592   5.497   4.155   0.597  2.0937 -0.0900  1.3715
  101GLOH    O3 9593   5.381   4.329   0.566 -0.1931 -0.5014 -0.5701
  101GLOH   H01 9594   5.380   4.410   0.512 -1.6812  0.1262  0.3495
  102GLOH   H03 9595   4.689   4.036   1.850 -0.4588 -0.6462  0.2809
  102GLOH    O1 9596   4.766   4.034   1.910 -0.0844 -0.2211 -0.1848
  102GLOH    C1 9597   4.730   4.074   2.038 -0.2805 -0.2412 -1.4584
  102GLOH   H02 9598   4.736   3.983   2.098  0.6275  2.1840  2.2894
  102GLOH   H08 9599   4.629   4.114   2.039  0.1969  0.9958 -0.9419
  102GLOH    C2 9600   4.835   4.175   2.089 -0.1369 -0.3913  0.9512
  102GLOH   H04 9601   4.837   4.258   2.017 -2.8760 -0.9249  0.2132
  102GLOH    O2 9602   4.801   4.212   2.226 -0.2000  0.1534 -0.4992
  102GLOH   H05 9603   4.707   4.231   2.216 -0.6792 -0.9059  1.7410
  102GLOH    C3 9604   4.969   4.109   2.099 -0.6664  0.9595  0.3706
  102GLOH   H06 9605   4.956   4.031   2.174 -0.3443  0.1425 -0.4099
  102GLOH   H07 9606   5.043   4.181   2.134  1.0022 -1.1246  1.2758
  102GLOH    O3 9607   5.006   4.041   1.974  0.0073  0.0886 -0.0705
  102GLOH   H01 9608   4.922   4.002   1.941  0.2231 -2.6600  2.4820
  103GLOH   H03 9609   4.422   8.732   0.644 -0.2215  3.6267 -0.1012
  103GLOH    O1 9610   4.462   8.732   0.733 -0.0303 -0.9475 -0.0674
  103GLOH    C1 9611   4.552   8.847   0.737 -0.0984  0.3919 -0.2803
  103GLOH   H02 9612   4.639   8.834   0.673 -0.0685 -0.2912 -0.1060
  103GLOH   H08 9613   4.593   8.864   0.836  0.2692  0.4934 -0.4496
  103GLOH    C2 9614   4.493   8.973   0.683  1.1305 -0.4952 -0.2509
  103GLOH   H04 9615   4.558   9.060   0.703  1.7209 -1.0945  0.4791
  103GLOH    O2 9616   4.459   8.974   0.548 -0.2896 -0.5936 -0.9975
  103GLOH   H05 9617   4.417   9.058   0.523 -0.8320 -1.0666 -1.6872
  103GLOH    C3 9618   4.364   9.007   0.760  0.2343  0.1988 -0.4472
  103GLOH   H06 9619   4.287   8.938   0.729  1.4321 -0.8565 -1.0982
  103GLOH   H07 9620   4.331   9.107   0.732 -1.5414 -0.3046 -0.2184
  103GLOH    O3 9621   4.370   9.003   0.907 -0.5608  0.2312 -0.3227
  103GLOH   H01 9622   4.402   8.914   0.932  2.6815  1.5519  0.4740
  104GLOH   H03 9623   2.054   1.065   0.966 -0.3695  1.7250 -2.5720
  104GLOH    O1 9624   2.090   1.148   1.002  0.0280  0.5897 -0.2060
  104GLOH    C1 9625   2.233   1.155   0.980  0.4339 -0.7948 -0.0209
  104GLOH   H02 9626   2.269   1.056   0.952  3.0297  0.2779 -0.5971
  104GLOH   H08 9627   2.291   1.195   1.062  0.2310 -1.1030  0.2748
  104GLOH    C2 9628   2.269   1.248   0.863 -0.3045  0.0383 -0.0535
  104GLOH   H04 9629   2.210   1.212   0.777  0.9139  0.2178 -0.9849
  104GLOH    O2 9630   2.244   1.385   0.882  0.7821  0.2280 -0.7141
  104GLOH   H05 9631   2.150   1.409   0.884  0.3804 -1.2319 -1.3160
  104GLOH    C3 9632   2.412   1.236   0.815 -0.1103  0.2467 -0.3160
  104GLOH   H06 9633   2.478   1.266   0.897 -0.3488  2.5385 -0.9286
  104GLOH   H07 9634   2.425   1.305   0.731 -2.4077  0.1158 -0.7952
  104GLOH    O3 9635   2.440   1.102   0.768  0.0337 -0.0374  0.1853
  104GLOH   H01 9636   2.524   1.094   0.718  0.4572 -1.4170  1.0811
  105GLOH   H03 9637   4.320   2.464   1.575 -0.5457 -1.3503  0.2242
  105GLOH    O1 9638   4.368   2.409   1.640  0.1744 -0.1231  0.7525
  105GLOH    C1 9639   4.342   2.274   1.599  0.1051  0.1367 -0.2515
  105GLOH   H02 9640   4.425   2.206   1.617  1.1634  1.6941  0.8365
  105GLOH   H08 9641   4.336   2.277   1.490 -0.0215  1.5773 -0.2206
  105GLOH    C2 9642   4.209   2.220   1.641 -0.2627 -0.3344  0.3149
  105GLOH   H04 9643   4.131   2.280   1.592 -0.2281  1.4129  2.3111
  105GLOH    O2 9644   4.204   2.079   1.614 -0.0567  0.0508  0.2139
  105GLOH   H05 9645   4.114   2.057   1.587  0.9490 -0.4908 -2.9217
  105GLOH    C3 9646   4.195   2.243   1.793 -0.1954  0.2444 -0.1252
  105GLOH   H06 9647   4.288   2.211   1.840 -0.1116  1.4988  0.5875
  105GLOH   H07 9648   4.120   2.175   1.832  0.5749 -2.0719 -2.5191
  105GLOH    O3 9649   4.172   2.377   1.843  0.0585  0.0247  0.0881
  105GLOH   H01 9650   4.259   2.417   1.822 -1.6959  3.8052 -0.5793
  106GLOH   H03 9651   4.295   9.171   0.108 -1.0411  0.4598 -0.4245
  106GLOH    O1 9652   4.249   9.130   0.183  0.3435 -0.3726 -0.0212
  106GLOH    C1 9653   4.256   8.987   0.159  0.7571  0.4299  1.1527
  106GLOH   H02 9654   4.353   8.956   0.199  1.5622 -1.5751 -2.1188
  106GLOH   H08 9655   4.262   8.962   0.053  1.5528 -0.1267  1.3207
  106GLOH    C2 9656   4.138   8.907   0.215 -0.5371  0.6971  0.2205
  106GLOH   H04 9657   4.044   8.951   0.178 -1.0317  1.2017  2.0242
  106GLOH    O2 9658   4.159   8.768   0.173 -0.2509 -0.6039 -0.3866
  106GLOH   H05 9659   4.083   8.722   0.211  2.4361 -2.8886  2.4306
  106GLOH    C3 9660   4.127   8.930   0.368  0.5363 -0.1085  0.2400
  106GLOH   H06 9661   4.098   9.035   0.377 -1.2387 -0.5322 -0.3571
  106GLOH   H07 9662   4.220   8.913   0.422 -0.0477 -0.8104  1.0305
  106GLOH    O3 9663   4.021   8.849   0.435  0.5940 -0.5069  0.4974
  106GLOH   H01 9664   4.061   8.760   0.445 -1.1872 -1.1489  1.9974
  107GLOH   H03 9665   5.075   2.731   1.950  0.2311 -0.3785  1.8293
  107GLOH    O1 9666   5.134   2.807   1.970 -0.4469  0.5226  0.4869
  107GLOH    C1 9667   5.100   2.882   2.083 -0.1888 -0.2877  0.1829
  107GLOH   H02 9668   5.003   2.931   2.076 -1.0601 -1.9700  0.1713
  107GLOH   H08 9669   5.176   2.958   2.097  0.1099 -0.7880  1.3334
  107GLOH    C2 9670   5.119   2.800   2.214  0.0971  0.0316  0.5750
  107GLOH   H04 9671   5.207   2.739   2.192 -0.4036 -0.2393 -0.7583
  107GLOH    O2 9672   5.123   2.880   2.334  0.2169 -0.0405 -0.0214
  107GLOH   H05 9673   5.041   2.927   2.356  0.0491  0.8204 -2.2570
  107GLOH    C3 9674   5.014   2.683   2.228 -0.5125 -0.2594 -0.2370
  107GLOH   H06 9675   5.031   2.625   2.319 -2.0221 -1.2873 -0.5892
  107GLOH   H07 9676   5.028   2.612   2.146 -0.1442 -0.8927  0.3664
  107GLOH    O3 9677   4.884   2.737   2.235  0.7718 -0.5205  0.1881
  107GLOH   H01 9678   4.900   2.823   2.279  1.9950 -0.0821 -1.0656
  108GLOH   H03 9679   2.928   1.788   0.669 -1.4124 -1.4660 -0.2243
  108GLOH    O1 9680   2.926   1.851   0.596 -0.0727 -0.2028  0.7925
  108GLOH    C1 9681   2.795   1.883   0.547 -0.2625 -0.0417  0.8231
  108GLOH   H02 9682   2.809   1.955   0.467 -0.4121 -1.2959 -0.3590
  108GLOH   H08 9683   2.730   1.932   0.620  0.0484  0.2638  0.8954
  108GLOH    C2 9684   2.730   1.753   0.492  0.5177 -0.8717 -0.6482
  108GLOH   H04 9685   2.692   1.695   0.577 -0.1308  0.6434  0.1190
  108GLOH    O2 9686   2.614   1.783   0.414 -0.3664  0.1065 -0.2335
  108GLOH   H05 9687   2.597   1.703   0.362  2.5906 -0.4781 -0.3839
  108GLOH    C3 9688   2.823   1.653   0.427  0.3734 -0.5966  0.0363
  108GLOH   H06 9689   2.766   1.561   0.411 -1.2469 -0.0096  2.2470
  108GLOH   H07 9690   2.895   1.615   0.499  1.5590  0.7901 -0.3707
  108GLOH    O3 9691   2.902   1.695   0.313 -0.2236  0.1133  0.1442
  108GLOH   H01 9692   2.970   1.754   0.350 -0.7631  0.7397  0.1456
  109GLOH   H03 9693   3.100   1.641   1.868  1.6071 -2.6069  0.8527
  109GLOH    O1 9694   3.010   1.604   1.866  0.4108  0.1760  0.4696
  109GLOH    C1 9695   2.925   1.674   1.956 -0.2506 -0.2267 -0.0896
  109GLOH   H02 9696   2.940   1.781   1.941 -1.1238 -0.2812 -1.4907
  109GLOH   H08 9697   2.957   1.660   2.059 -1.3030 -0.5586  0.1999
  109GLOH    C2 9698   2.781   1.634   1.944  0.3838 -0.0768  0.0222
  109GLOH   H04 9699   2.737   1.675   2.036  0.6926 -1.2721  0.7160
  109GLOH    O2 9700   2.722   1.698   1.829  0.0864  0.4645  0.2339
  109GLOH   H05 9701   2.625   1.699   1.834  0.1504 -1.0838  2.5506
  109GLOH    C3 9702   2.747   1.485   1.949  0.1490  0.4240 -0.0243
  109GLOH   H06 9703   2.782   1.451   1.852 -1.0971 -2.1099  0.3788
  109GLOH   H07 9704   2.640   1.468   1.963  0.0590  0.7696 -0.3117
  109GLOH    O3 9705   2.815   1.424   2.057  0.0937  0.7297 -0.2050
  109GLOH   H01 9706   2.770   1.452   2.139 -3.1644  1.9083 -2.2843
  110GLOH   H03 9707   2.306   1.080   1.467 -0.3324 -0.7451 -1.5986
  110GLOH    O1 9708   2.230   1.099   1.526  0.5205 -0.7701 -0.4690
  110GLOH    C1 9709   2.213   1.244   1.533  1.0367  0.1424  0.0850
  110GLOH   H02 9710   2.164   1.286   1.445  0.5381 -0.3241  0.1345
  110GLOH   H08 9711   2.309   1.295   1.536  0.7712  0.6472  0.2136
  110GLOH    C2 9712   2.132   1.291   1.659  0.2115 -0.0048  0.2160
  110GLOH   H04 9713   2.175   1.265   1.757  0.2929  1.5525  0.6020
  110GLOH    O2 9714   2.114   1.429   1.665  0.3817  0.1782 -0.1913
  110GLOH   H05 9715   2.198   1.477   1.654  0.3413  0.1021 -0.8459
  110GLOH    C3 9716   1.998   1.223   1.654 -0.1024 -0.8244  0.2381
  110GLOH   H06 9717   1.968   1.215   1.550  1.4393 -1.3724 -0.1747
  110GLOH   H07 9718   1.919   1.279   1.704  0.0692  0.2793 -0.7310
  110GLOH    O3 9719   2.022   1.089   1.697  0.0911  0.2588 -0.3063
  110GLOH   H01 9720   2.104   1.057   1.655 -0.0423 -0.6181  0.0998
  111GLOH   H03 9721   3.201   4.949   2.606  1.1201  0.1144 -0.8183
  111GLOH    O1 9722   3.184   4.861   2.646  0.8336  0.5733  0.0798
  111GLOH    C1 9723   3.117   4.780   2.547  0.2175  0.3650  0.0237
  111GLOH   H02 9724   3.032   4.831   2.504 -0.2833 -1.0752 -0.7476
  111GLOH   H08 9725   3.085   4.686   2.594  0.3172  0.0675 -0.4977
  111GLOH    C2 9726   3.208   4.766   2.420 -0.1958 -0.3864 -0.4394
  111GLOH   H04 9727   3.244   4.867   2.399 -0.5085 -0.5915 -2.0369
  111GLOH    O2 9728   3.331   4.690   2.427  0.0693 -0.6910 -0.1552
  111GLOH   H05 9729   3.312   4.603   2.389 -0.7460 -0.5328 -0.1166
  111GLOH    C3 9730   3.127   4.725   2.297 -1.0436 -0.3627  0.0526
  111GLOH   H06 9731   3.063   4.644   2.332  1.5902 -1.5563  2.3324
  111GLOH   H07 9732   3.191   4.689   2.215  1.1020 -1.8012  2.2735
  111GLOH    O3 9733   3.055   4.829   2.237 -0.8818 -0.6754 -0.6197
  111GLOH   H01 9734   3.117   4.876   2.177  0.3049  0.0641  1.1404
  112GLOH   H03 9735   3.297   5.912   2.684 -0.3757 -0.3230 -0.4909
  112GLOH    O1 9736   3.260   5.996   2.652 -0.2734  0.0138  0.2709
  112GLOH    C1 9737   3.305   6.120   2.716 -0.5709 -0.4410  0.2327
  112GLOH   H02 9738   3.399   6.158   2.677 -1.2025  1.0487  0.1046
  112GLOH   H08 9739   3.333   6.100   2.820  1.6460  2.5155  0.2824
  112GLOH    C2 9740   3.199   6.230   2.713 -0.4040  0.3232 -0.1852
  112GLOH   H04 9741   3.105   6.203   2.764 -0.0528 -0.7857 -0.0983
  112GLOH    O2 9742   3.256   6.349   2.770  0.0855 -0.6370 -0.2345
  112GLOH   H05 9743   3.201   6.376   2.846  1.8544  0.7716  0.5822
  112GLOH    C3 9744   3.153   6.251   2.566 -0.0171  0.0300 -0.6163
  112GLOH   H06 9745   3.226   6.311   2.511 -0.4703 -0.3330 -1.6241
  112GLOH   H07 9746   3.071   6.322   2.576 -0.2097 -0.3554  0.7007
  112GLOH    O3 9747   3.097   6.131   2.506  0.2232 -0.1536 -0.2376
  112GLOH   H01 9748   3.153   6.057   2.535  2.5734  2.3207  1.8602
  113GLOH   H03 9749   3.459   9.059   0.707  0.1245  0.3847  0.6470
  113GLOH    O1 9750   3.397   9.019   0.770 -0.1803 -0.1519  0.0072
  113GLOH    C1 9751   3.270   8.998   0.715  0.5131 -0.2172  0.0240
  113GLOH   H02 9752   3.280   8.951   0.617  1.4968  1.9691 -0.9643
  113GLOH   H08 9753   3.213   9.089   0.698 -1.2608 -1.2465  0.3062
  113GLOH    C2 9754   3.181   8.909   0.807 -0.3396  0.2186 -0.4753
  113GLOH   H04 9755   3.086   8.891   0.755 -1.2664  0.7331  0.9921
  113GLOH    O2 9756   3.223   8.772   0.790  0.2420  0.2125 -0.1643
  113GLOH   H05 9757   3.182   8.746   0.705  0.3323 -0.6347  0.0443
  113GLOH    C3 9758   3.175   8.976   0.940 -0.6930 -0.0756  0.3782
  113GLOH   H06 9759   3.260   8.951   1.004  0.8681  1.1422 -1.1497
  113GLOH   H07 9760   3.103   8.917   0.996  0.1706  0.2612  1.8618
  113GLOH    O3 9761   3.143   9.119   0.946  0.0081  0.1898  0.1240
  113GLOH   H01 9762   3.046   9.125   0.935  0.1733 -0.4725 -2.0287
  114GLOH   H03 9763   4.223   2.984   2.486  1.4963 -0.3961 -1.2656
  114GLOH    O1 9764   4.229   2.889   2.505  0.3603 -0.3852 -0.8765
  114GLOH    C1 9765   4.122   2.829   2.441 -0.1391 -0.8680 -0.1252
  114GLOH   H02 9766   4.128   2.721   2.427 -0.6715 -0.9548  0.2674
  114GLOH   H08 9767   4.117   2.860   2.337 -1.1507  0.7130  0.3708
  114GLOH    C2 9768   3.988   2.870   2.514 -0.1335 -0.6649  0.4082
  114GLOH   H04 9769   3.960   2.973   2.487 -1.2851 -0.2914  2.8791
  114GLOH    O2 9770   3.877   2.793   2.462  0.0250 -0.2517 -0.3718
  114GLOH   H05 9771   3.893   2.699   2.479 -0.2511  0.0998  1.9742
  114GLOH    C3 9772   3.990   2.851   2.663  0.4726  0.1578 -0.2494
  114GLOH   H06 9773   3.907   2.895   2.718 -0.7872 -2.9511  0.4186
  114GLOH   H07 9774   4.076   2.911   2.690 -0.7108  2.1208 -0.7215
  114GLOH    O3 9775   4.017   2.716   2.714  0.1835  0.5350 -0.5524
  114GLOH   H01 9776   4.005   2.719   2.810  0.5503 -3.5910 -0.3284
  115GLOH   H03 9777   4.220   0.821   0.227 -0.1531 -0.3496 -2.1468
  115GLOH    O1 9778   4.301   0.768   0.219  0.3421  0.1151 -0.3448
  115GLOH    C1 9779   4.330   0.709   0.346 -0.0104  0.0323 -0.3786
  115GLOH   H02 9780   4.413   0.638   0.339  1.3794  1.5751  0.0903
  115GLOH   H08 9781   4.246   0.654   0.388  0.5070  0.1466  0.8349
  115GLOH    C2 9782   4.366   0.807   0.459  0.8278 -0.0402 -0.3128
  115GLOH   H04 9783   4.302   0.895   0.443 -1.4044 -1.5777 -0.1907
  115GLOH    O2 9784   4.345   0.755   0.592  0.0262 -0.2447 -0.3104
  115GLOH   H05 9785   4.383   0.809   0.663 -2.3152  0.5344  0.3919
  115GLOH    C3 9786   4.510   0.856   0.437 -0.4046 -0.7444 -0.6932
  115GLOH   H06 9787   4.531   0.878   0.332  0.8437  0.0761 -0.2883
  115GLOH   H07 9788   4.582   0.781   0.468  0.6202 -0.2030 -1.7034
  115GLOH    O3 9789   4.528   0.982   0.516 -0.3739  0.8596  0.6084
  115GLOH   H01 9790   4.486   1.052   0.462 -0.4686  0.3495  0.0089
  116GLOH   H03 9791   4.668   1.749   0.116  0.1779 -0.6276 -1.0218
  116GLOH    O1 9792   4.720   1.831   0.112 -0.0675 -0.4405 -0.3262
  116GLOH    C1 9793   4.791   1.845   0.232  0.0285  0.0123 -0.0475
  116GLOH   H02 9794   4.864   1.926   0.243 -1.4957  1.3915  0.0240
  116GLOH   H08 9795   4.849   1.755   0.252 -0.2643  0.2184  1.8407
  116GLOH    C2 9796   4.692   1.866   0.354 -0.3544 -0.5163  0.0432
  116GLOH   H04 9797   4.758   1.846   0.440  0.0646  1.0632  0.1082
  116GLOH    O2 9798   4.640   2.005   0.353 -0.0157 -0.0367 -0.5240
  116GLOH   H05 9799   4.559   2.004   0.299 -0.4457 -0.1565  0.1131
  116GLOH    C3 9800   4.575   1.765   0.355 -0.1128 -0.1729 -0.8767
  116GLOH   H06 9801   4.499   1.792   0.428  2.6724  2.6552  1.1284
  116GLOH   H07 9802   4.627   1.680   0.398  1.4531  0.8288 -0.7318
  116GLOH    O3 9803   4.511   1.747   0.230  0.5468 -0.3679 -0.5788
  116GLOH   H01 9804   4.487   1.840   0.211 -0.1691  0.1271  2.4401
  117GLOH   H03 9805   2.258   0.956   2.252 -0.4787  0.5336  0.3082
  117GLOH    O1 9806   2.247   0.945   2.155 -0.0927 -0.0250  0.3232
  117GLOH    C1 9807   2.258   1.079   2.098 -0.0047  0.2909 -0.1652
  117GLOH   H02 9808   2.241   1.157   2.173  0.7513  2.6193 -2.3290
  117GLOH   H08 9809   2.185   1.103   2.021 -1.1153  0.5440  0.9415
  117GLOH    C2 9810   2.392   1.105   2.035  0.3180  0.4052 -0.4640
  117GLOH   H04 9811   2.476   1.061   2.091 -0.4238  0.9951  1.1463
  117GLOH    O2 9812   2.388   1.047   1.903  0.4582 -0.0474 -0.2951
  117GLOH   H05 9813   2.375   0.952   1.918  0.1596  0.2115  1.1960
  117GLOH    C3 9814   2.409   1.260   2.021 -0.2854 -0.7509 -0.1426
  117GLOH   H06 9815   2.316   1.302   1.982 -0.2764 -0.1784  0.4470
  117GLOH   H07 9816   2.489   1.281   1.950  0.7349 -1.5798  0.7307
  117GLOH    O3 9817   2.437   1.343   2.137 -0.0585  0.0826 -0.0739
  117GLOH   H01 9818   2.504   1.305   2.197 -2.0582  0.5214  2.5331
  118GLOH   H03 9819   3.231   8.897   2.642 -0.4788 -0.1460  0.6129
  118GLOH    O1 9820   3.253   8.950   2.721 -0.2156 -0.0546  0.4763
  118GLOH    C1 9821   3.164   9.063   2.726 -0.2368  0.2076  0.1549
  118GLOH   H02 9822   3.110   9.070   2.821 -0.2919 -0.1874  0.1537
  118GLOH   H08 9823   3.088   9.058   2.648 -0.9925  0.1707  0.8771
  118GLOH    C2 9824   3.238   9.193   2.700  0.5176 -0.8542  0.3807
  118GLOH   H04 9825   3.320   9.202   2.773  1.8868  0.7880 -1.3238
  118GLOH    O2 9826   3.305   9.192   2.570  0.2399 -0.1225 -0.1628
  118GLOH   H05 9827   3.392   9.150   2.581  0.9315  0.6952 -2.4481
  118GLOH    C3 9828   3.141   9.313   2.716  0.3942  0.1086  0.2443
  118GLOH   H06 9829   3.055   9.295   2.651  1.6450 -1.5278 -0.9997
  118GLOH   H07 9830   3.187   9.404   2.679  0.0780  1.0954  2.1822
  118GLOH    O3 9831   3.087   9.326   2.849  0.0018  0.0940 -1.0614
  118GLOH   H01 9832   3.020   9.398   2.848  0.2424  0.4590  2.2277
  119GLOH   H03 9833   5.066   3.602   2.668  1.1000  0.7199  2.6227
  119GLOH    O1 9834   5.098   3.684   2.626  0.5618 -0.1587  0.4484
  119GLOH    C1 9835   5.217   3.730   2.698 -0.6883 -0.9430 -0.4872
  119GLOH   H02 9836   5.254   3.822   2.652  0.1960 -0.2079  1.6212
  119GLOH   H08 9837   5.299   3.660   2.680  0.5109  0.1780  0.5030
  119GLOH    C2 9838   5.195   3.756   2.848  0.1827 -0.2345 -0.5590
  119GLOH   H04 9839   5.176   3.656   2.889  2.0876 -1.0297 -1.5462
  119GLOH    O2 9840   5.314   3.809   2.901 -0.1592  0.4932  0.1227
  119GLOH   H05 9841   5.313   3.796   2.997 -1.1137  1.0868  0.1981
  119GLOH    C3 9842   5.074   3.845   2.877  0.0077  0.2780 -0.6109
  119GLOH   H06 9843   4.994   3.804   2.815  0.4222  1.6442 -2.0852
  119GLOH   H07 9844   5.088   3.936   2.820 -3.3049  0.3162 -1.5003
  119GLOH    O3 9845   5.033   3.871   3.008  0.1443 -0.2544 -0.3148
  119GLOH   H01 9846   5.103   3.919   3.055  1.5301 -1.6961 -0.8321
  120GLOH   H03 9847   1.992   2.884   0.898 -0.2677 -0.2435 -1.8227
  120GLOH    O1 9848   2.087   2.904   0.890 -0.1428 -0.2839 -0.5281
  120GLOH    C1 9849   2.094   3.028   0.830 -0.2873 -0.1718  0.2576
  120GLOH   H02 9850   2.048   3.099   0.899 -0.8167  0.2808 -0.5495
  120GLOH   H08 9851   2.031   3.032   0.741  0.0876  2.0856  0.0551
  120GLOH    C2 9852   2.238   3.079   0.797  0.3235  0.0627  0.0593
  120GLOH   H04 9853   2.282   3.015   0.718 -1.1115  0.5691 -1.1898
  120GLOH    O2 9854   2.219   3.212   0.741  0.3628  0.5649  0.0229
  120GLOH   H05 9855   2.308   3.235   0.709 -0.2522  0.6720 -1.6552
  120GLOH    C3 9856   2.329   3.089   0.918 -0.2115  0.1753  0.5226
  120GLOH   H06 9857   2.278   3.152   0.992 -1.8229 -1.9992  1.3058
  120GLOH   H07 9858   2.429   3.118   0.887 -0.6966  0.3983 -0.8554
  120GLOH    O3 9859   2.323   2.962   0.986  0.2707  0.1788 -0.4619
  120GLOH   H01 9860   2.240   2.916   0.968  0.2348  0.2139 -0.3866
  121ACOH    H4 9861   4.394   8.714   0.888 -1.6282  2.0513 -1.1798
  121ACOH    O2 9862   4.337   8.715   0.966 -0.1047  0.6147 -0.0265
  121ACOH    C2 9863   4.320   8.583   0.993  0.0411  0.4754 -0.2376
  121ACOH    O1 9864   4.390   8.488   0.956 -0.4090 -0.7536  0.5782
  121ACOH    C1 9865   4.210   8.567   1.095  0.2692  0.5952  0.0315
  121ACOH    H1 9866   4.226   8.474   1.149  0.1635  0.7091  0.2558
  121ACOH    H2 9867   4.114   8.567   1.044 -0.1149  2.4894  0.7177
  121ACOH    H3 9868   4.210   8.651   1.164  2.0221 -0.3296  1.2267
  122ACOH    H4 9869   1.528   3.107   0.949  0.1729 -1.3163 -1.6153
  122ACOH    O2 9870   1.435   3.117   0.923 -0.1551  0.1333 -0.0137
  122ACOH    C2 9871   1.424   3.185   0.806  0.0769 -0.1771  0.0683
  122ACOH    O1 9872   1.503   3.239   0.733  0.6737  0.1609 -0.2022
  122ACOH    C1 9873   1.284   3.156   0.767 -0.4611  0.2295  0.5204
  122ACOH    H1 9874   1.251   3.205   0.676  0.1509 -0.0900  0.1254
  122ACOH    H2 9875   1.225   3.205   0.845  0.1037  2.1788 -0.2316
  122ACOH    H3 9876   1.265   3.049   0.759 -1.8769  0.4094  1.3181
  123ACOH    H4 9877   4.781   1.371   1.281  0.2226 -1.4574  0.8609
  123ACOH    O2 9878   4.844   1.432   1.322 -0.4028 -0.4758  0.3843
  123ACOH    C2 9879   4.793   1.472   1.436 -0.0622  0.1844  0.0400
  123ACOH    O1 9880   4.700   1.416   1.486  0.1349  0.1371 -0.2796
  123ACOH    C1 9881   4.845   1.595   1.504 -0.4324 -0.0581 -0.6987
  123ACOH    H1 9882   4.948   1.575   1.533 -1.0781  0.5645  2.1532
  123ACOH    H2 9883   4.782   1.625   1.588 -1.9397 -1.1630 -1.4155
  123ACOH    H3 9884   4.859   1.680   1.437 -0.4570  0.3547 -0.1795
  124ACOH    H4 9885   2.035   0.511   2.949 -1.4181 -0.8911  0.1765
  124ACOH    O2 9886   1.988   0.596   2.941 -0.2283 -0.2421 -0.0952
  124ACOH    C2 9887   1.938   0.617   2.817  0.9117  0.5846 -0.1869
  124ACOH    O1 9888   1.980   0.566   2.715  0.1735 -0.5002  0.7000
  124ACOH    C1 9889   1.863   0.745   2.807  0.6906  0.1030 -0.3746
  124ACOH    H1 9890   1.796   0.750   2.721  0.0753  0.8666  0.1344
  124ACOH    H2 9891   1.918   0.839   2.813 -0.5423  0.8294 -0.2205
  124ACOH    H3 9892   1.800   0.742   2.896  0.5471 -3.6461 -0.5179
  125ACOH    H4 9893   2.731   0.412   3.064 -1.1870  0.8956 -0.1184
  125ACOH    O2 9894   2.739   0.432   2.969 -0.1049 -0.0872 -0.2406
  125ACOH    C2 9895   2.743   0.320   2.893  0.6543  0.1491  0.0352
  125ACOH    O1 9896   2.688   0.216   2.921  0.2586  0.3760 -0.4751
  125ACOH    C1 9897   2.780   0.351   2.754  0.4768  0.4359  0.5320
  125ACOH    H1 9898   2.888   0.341   2.758  0.2703 -1.3763  2.5935
  125ACOH    H2 9899   2.731   0.440   2.714  0.1801  0.0177 -0.0473
  125ACOH    H3 9900   2.743   0.280   2.681  0.6995 -0.4149  1.2422
  126ACOH    H4 9901   4.648   0.341   1.185  0.2867  0.6461 -3.0410
  126ACOH    O2 9902   4.721   0.278   1.174 -0.0791 -0.3575 -0.0753
  126ACOH    C2 9903   4.791   0.321   1.068  0.0209 -0.3008  0.4217
  126ACOH    O1 9904   4.777   0.435   1.027 -0.1634  0.0339  0.6382
  126ACOH    C1 9905   4.898   0.229   1.031 -0.3391  0.3719  0.0422
  126ACOH    H1 9906   4.950   0.197   1.121  0.5724 -0.8499 -0.9078
  126ACOH    H2 9907   4.962   0.287   0.964 -0.3325  0.8589  0.4686
  126ACOH    H3 9908   4.854   0.138   0.991  0.2678 -0.2987  0.8871
  128ACOH    H4 9909   5.400   9.347   1.581 -0.2764 -0.6398  0.1324
  128ACOH    O2 9910   5.410   9.282   1.510  0.0723  0.3806 -0.7597
  128ACOH    C2 9911   5.283   9.251   1.489 -0.3452 -0.8011 -0.5912
  128ACOH    O1 9912   5.198   9.334   1.505 -0.2228  0.1691  0.4721
  128ACOH    C1 9913   5.268   9.139   1.399 -0.2395  0.0496 -0.4627
  128ACOH    H1 9914   5.325   9.150   1.306 -0.0411 -0.8013 -0.4472
  128ACOH    H2 9915   5.165   9.118   1.372  0.1289 -0.3458 -1.6312
  128ACOH    H3 9916   5.307   9.054   1.455  2.7105  1.7403  0.1923
  129ACOH    H4 9917   4.662   1.469   2.118  0.5863  0.1059  0.6356
  129ACOH    O2 9918   4.719   1.543   2.089  0.2882  0.0305 -0.1729
  129ACOH    C2 9919   4.767   1.530   1.965  0.3634  0.4373  0.2371
  129ACOH    O1 9920   4.745   1.436   1.894 -0.8063 -0.1367 -0.3543
  129ACOH    C1 9921   4.868   1.630   1.931 -0.2650  0.3619  0.0247
  129ACOH    H1 9922   4.903   1.613   1.829  2.7141  1.0685  0.8778
  129ACOH    H2 9923   4.950   1.627   2.002 -0.9127 -2.0245  0.7371
  129ACOH    H3 9924   4.830   1.732   1.936 -1.2574  0.0207 -0.4553
  130ACOH    H4 9925   4.180   0.192   2.083 -0.2941  0.5279 -0.8877
  130ACOH    O2 9926   4.172   0.095   2.083 -0.5016  0.5445 -0.1941
  130ACOH    C2 9927   4.086   0.065   1.987 -0.0179  0.1737  0.2350
  130ACOH    O1 9928   4.028   0.143   1.916 -0.1501  0.3391  0.0590
  130ACOH    C1 9929   4.054  -0.080   1.989 -0.6610 -0.4648 -0.0877
  130ACOH    H1 9930   3.998  -0.115   2.076 -0.1810  1.9454  1.2509
  130ACOH    H2 9931   4.152  -0.128   1.984 -0.5102 -0.1519 -0.1429
  130ACOH    H3 9932   4.004  -0.101   1.895 -0.1631  1.3678 -0.7805
  132ACOH    H4 9933   1.708   0.723   1.990 -0.4438  0.2156  1.5390
  132ACOH    O2 9934   1.619   0.689   1.972 -0.1608 -0.0963  0.7255
  132ACOH    C2 9935   1.636   0.564   1.923  0.2396  0.1655  0.4824
  132ACOH    O1 9936   1.736   0.494   1.930  0.3092  0.4467 -0.5481
  132ACOH    C1 9937   1.515   0.505   1.862 -0.1879 -0.0181  0.2500
  132ACOH    H1 9938   1.457   0.441   1.929 -1.9704  1.7931  0.4747
  132ACOH    H2 9939   1.550   0.450   1.774 -2.2209 -3.2431  1.3438
  132ACOH    H3 9940   1.450   0.587   1.830 -0.3489 -0.6010 -0.9640
  134ACOH    H4 9941   2.052   5.080   0.230 -0.2962 -0.0379  0.1405
  134ACOH    O2 9942   2.114   5.011   0.259 -0.3046 -0.1893 -0.2073
  134ACOH    C2 9943   2.090   4.990   0.391 -0.4817 -0.2358 -0.8525
  134ACOH    O1 9944   2.032   5.057   0.469 -0.6391  0.1183  0.2427
  134ACOH    C1 9945   2.150   4.855   0.427 -0.3098 -0.5840  0.7162
  134ACOH    H1 9946   2.209   4.872   0.516  1.3103 -0.9659 -0.2665
  134ACOH    H2 9947   2.215   4.822   0.346 -1.1272  1.0434 -0.6285
  134ACOH    H3 9948   2.073   4.786   0.461 -3.5785  2.1456 -0.8548
  136ACOH    H4 9949   2.034   4.628   1.806 -1.3733 -0.2837 -2.8804
  136ACOH    O2 9950   1.974   4.703   1.820 -0.0212  0.3060  0.2320
  136ACOH    C2 9951   1.924   4.721   1.696  0.4125  0.1134 -0.3910
  136ACOH    O1 9952   1.969   4.679   1.590  0.2533  0.0982  0.2027
  136ACOH    C1 9953   1.835   4.842   1.703  0.1333  0.9944 -0.2745
  136ACOH    H1 9954   1.787   4.864   1.608 -0.3346  2.1468  0.2309
  136ACOH    H2 9955   1.889   4.932   1.731  2.1070 -0.4399  0.6663
  136ACOH    H3 9956   1.764   4.821   1.783  0.7255 -2.7382 -0.6328
  137ACOH    H4 9957   3.717   7.701   1.097 -0.7852  2.2524  2.7936
  137ACOH    O2 9958   3.794   7.662   1.143 -0.0705  0.3547  0.0671
  137ACOH    C2 9959   3.740   7.593   1.244 -0.2006  0.1234  0.0707
  137ACOH    O1 9960   3.622   7.580   1.274  0.1052 -0.3949 -0.0181
  137ACOH    C1 9961   3.843   7.561   1.350  0.1839  0.0404  0.3963
  137ACOH    H1 9962   3.799   7.477   1.404  0.4477 -0.9687 -0.9109
  137ACOH    H2 9963   3.849   7.648   1.415  1.6020 -0.8095  1.4206
  137ACOH    H3 9964   3.938   7.544   1.299  0.4669  1.8930  0.2918
  140ACOH    H4 9965   2.955   5.041   0.804  0.0093 -0.3756 -0.7144
  140ACOH    O2 9966   2.890   5.087   0.749 -0.0631 -0.2253 -0.5045
  140ACOH    C2 9967   2.907   5.218   0.775  0.9877 -0.0085  0.0552
  140ACOH    O1 9968   2.974   5.273   0.858 -0.1257  0.0139 -0.3812
  140ACOH    C1 9969   2.815   5.304   0.693 -0.4880 -0.2074  0.3954
  140ACOH    H1 9970   2.821   5.270   0.590 -0.7871 -0.4728  0.4658
  140ACOH    H2 9971   2.851   5.407   0.691 -0.1937 -0.3262 -3.0048
  140ACOH    H3 9972   2.714   5.299   0.734 -1.3466  0.2344 -1.6347
  141ACOH    H4 9973   5.125   2.677   1.485  0.2101  0.5008 -0.6616
  141ACOH    O2 9974   5.203   2.676   1.542  0.0310 -0.5922 -0.4121
  141ACOH    C2 9975   5.290   2.776   1.518  0.0059  0.2480 -0.0748
  141ACOH    O1 9976   5.269   2.879   1.451  0.8904 -0.6279 -0.4654
  141ACOH    C1 9977   5.415   2.766   1.602  0.3262 -0.2259  0.4344
  141ACOH    H1 9978   5.393   2.823   1.692 -1.8099 -1.7695  0.9197
  141ACOH    H2 9979   5.500   2.808   1.548 -0.8314 -1.2285 -2.2650
  141ACOH    H3 9980   5.446   2.668   1.640 -0.9265 -0.2385  1.4637
  143ACOH    H4 9981   2.397   4.807   1.271 -0.6317  0.6800  0.3768
  143ACOH    O2 9982   2.334   4.800   1.197  0.1359  0.0798 -0.2375
  143ACOH    C2 9983   2.220   4.835   1.261 -0.1730  0.4102  0.9607
  143ACOH    O1 9984   2.207   4.904   1.357  0.2456  0.1549 -0.1383
  143ACOH    C1 9985   2.108   4.781   1.183  0.0719 -0.2459 -0.1366
  143ACOH    H1 9986   2.068   4.849   1.107 -2.5802  0.4563  1.8183
  143ACOH    H2 9987   2.025   4.763   1.252  1.1727 -0.4200  1.1610
  143ACOH    H3 9988   2.139   4.686   1.140  0.5284 -0.3740  0.4577
  144ACOH    H4 9989   1.671   2.338   0.775  2.1431  2.6922  1.0554
  144ACOH    O2 9990   1.600   2.404   0.769 -0.3188  0.0740 -0.2155
  144ACOH    C2 9991   1.585   2.427   0.641 -0.4609 -0.2801  0.1014
  144ACOH    O1 9992   1.647   2.387   0.545 -0.1036 -0.0103 -0.1230
  144ACOH    C1 9993   1.489   2.542   0.620 -0.0256  0.5700 -0.3539
  144ACOH    H1 9994   1.402   2.499   0.572  0.4301 -0.1258 -0.5676
  144ACOH    H2 9995   1.540   2.602   0.545 -0.8030  0.2583 -1.1317
  144ACOH    H3 9996   1.471   2.593   0.715  2.5524 -1.1597  1.1250
  145ACOH    H4 9997   1.917   4.566   1.426 -0.1623 -0.3279  0.6092
  145ACOH    O2 9998   1.894   4.518   1.345  0.4437  0.0380  0.2180
  145ACOH    C2 9999   1.785   4.580   1.293 -0.1651 -0.2797  0.0802
  145ACOH    O110000   1.709   4.649   1.351 -0.5154 -0.4711 -0.3903
  145ACOH    C110001   1.760   4.502   1.173 -1.0070  0.1156 -0.0464
  145ACOH    H110002   1.794   4.399   1.172  1.2146  0.7785 -3.4608
  145ACOH    H210003   1.813   4.554   1.093  0.3486 -1.1214  0.0273
  145ACOH    H310004   1.651   4.508   1.162 -1.1418 -0.1676  1.0570
  146ACOH    H410005   3.084   7.028   2.317  0.0539  0.7228  0.3196
  146ACOH    O210006   3.173   7.065   2.320  0.6618 -0.7148  0.5361
  146ACOH    C210007   3.154   7.188   2.375 -0.5819  0.4451 -0.0718
  146ACOH    O110008   3.060   7.260   2.362  0.2429 -0.0673  0.1921
  146ACOH    C110009   3.288   7.239   2.419 -0.7051 -0.1599  0.1272
  146ACOH    H110010   3.347   7.269   2.332 -1.4580 -1.3015 -0.7994
  146ACOH    H210011   3.334   7.159   2.477 -3.2582 -1.9740 -0.2633
  146ACOH    H310012   3.298   7.322   2.488  2.4273  0.0066 -0.4254
  147ACOH    H410013   3.031   6.443   1.229  3.6281 -0.9267 -0.9186
  147ACOH    O210014   3.069   6.517   1.278 -0.0265  0.2594  0.2851
  147ACOH    C210015   3.075   6.473   1.407  0.4786 -0.8390 -0.8088
  147ACOH    O110016   3.059   6.357   1.441 -0.1319  0.3642 -0.0083
  147ACOH    C110017   3.165   6.563   1.490  0.5027 -0.3094 -0.1670
  147ACOH    H110018   3.271   6.557   1.468  0.5738 -0.4593  0.2063
  147ACOH    H210019   3.162   6.536   1.596 -0.4272 -0.9243 -0.3450
  147ACOH    H310020   3.120   6.662   1.483 -1.8498 -1.2694  0.6689
  148ACOH    H410021   4.073   8.525   2.112 -0.7745  0.5115 -0.2294
  148ACOH    O210022   4.158   8.483   2.134 -0.8257  0.1673 -0.6658
  148ACOH    C210023   4.135   8.355   2.170  0.2018  0.3730 -0.0542
  148ACOH    O110024   4.031   8.298   2.151  0.0375 -0.1622  0.4422
  148ACOH    C110025   4.259   8.274   2.214  0.3993 -0.6666 -0.2832
  148ACOH    H110026   4.260   8.168   2.189  1.1066 -0.3571 -1.6497
  148ACOH    H210027   4.254   8.281   2.322  1.7619 -2.2405 -0.1043
  148ACOH    H310028   4.356   8.312   2.182  0.3251 -0.3549 -0.1453
  149ACOH    H410029   2.960   6.036   0.961 -0.0834 -0.4224 -0.8959
  149ACOH    O210030   2.991   6.056   0.871  0.5251 -0.6967 -0.7505
  149ACOH    C210031   2.909   6.145   0.817 -0.6300  0.1446  0.5338
  149ACOH    O110032   2.837   6.229   0.871 -0.1984  0.3789 -0.0065
  149ACOH    C110033   2.927   6.156   0.668 -0.4998  0.1758  0.5329
  149ACOH    H110034   3.032   6.140   0.646 -0.7997 -1.0911 -0.0439
  149ACOH    H210035   2.890   6.252   0.631 -1.9322  0.3193  2.2639
  149ACOH    H310036   2.875   6.072   0.622  2.5002 -2.2201  1.3580
  150ACOH    H410037   4.244   0.459   0.951  1.1444 -1.5488  0.7583
  150ACOH    O210038   4.330   0.501   0.932  0.2176  0.0032 -0.1045
  150ACOH    C210039   4.387   0.439   0.825  0.6474 -0.0887 -1.4454
  150ACOH    O110040   4.331   0.359   0.749 -0.1574 -0.1813 -0.1038
  150ACOH    C110041   4.512   0.505   0.782 -0.4087 -0.9450 -0.9336
  150ACOH    H110042   4.575   0.426   0.742  0.6274 -1.3970  1.4690
  150ACOH    H210043   4.569   0.564   0.854  0.3803 -0.5209 -1.8968
  150ACOH    H310044   4.495   0.572   0.698  0.8351  1.4932  0.6790
  151ACOH    H410045   4.740   3.521   1.699 -1.9079  0.0003  1.2020
  151ACOH    O210046   4.703   3.433   1.677  0.1622 -0.5636 -0.1925
  151ACOH    C210047   4.720   3.355   1.783  0.2103  0.3178  0.0425
  151ACOH    O110048   4.733   3.398   1.896  0.0071 -0.1707  0.3633
  151ACOH    C110049   4.681   3.217   1.740 -1.1609  0.1812  0.3667
  151ACOH    H110050   4.616   3.210   1.653 -0.1906  1.0991 -0.4533
  151ACOH    H210051   4.650   3.153   1.822 -0.6168 -1.1952 -0.4805
  151ACOH    H310052   4.776   3.171   1.710 -1.1805 -1.1443  2.2901
  152ACOH    H410053   5.129   3.920   1.933 -0.3517 -1.1275 -0.4820
  152ACOH    O210054   5.215   3.895   1.895 -0.0341 -0.5322 -0.1683
  152ACOH    C210055   5.194   3.809   1.796  0.5508 -0.2278  0.5011
  152ACOH    O110056   5.083   3.785   1.749 -0.4349  0.5829  0.3255
  152ACOH    C110057   5.321   3.779   1.725 -0.1013 -0.4742  0.1153
  152ACOH    H110058   5.402   3.843   1.758 -0.3387  0.2741 -0.7207
  152ACOH    H210059   5.305   3.798   1.618  0.8179  1.8864  0.3729
  152ACOH    H310060   5.356   3.676   1.736  0.9581 -0.1499 -0.1668
  153ACOH    H410061   2.037   7.796   0.772 -1.4562 -0.3009  0.0183
  153ACOH    O210062   2.066   7.878   0.815 -0.4028 -0.2192 -0.8550
  153ACOH    C210063   2.152   7.937   0.732  0.4778  0.0753  0.0279
  153ACOH    O110064   2.223   7.883   0.648 -0.2009  0.4674 -0.3183
  153ACOH    C110065   2.169   8.081   0.761  0.8750  0.6744 -0.2068
  153ACOH    H110066   2.240   8.097   0.842  0.3241  0.3262  0.3515
  153ACOH    H210067   2.079   8.134   0.792  0.4451  0.0947 -0.4575
  153ACOH    H310068   2.201   8.129   0.669 -0.4254 -1.6462 -1.9155
  154ACOH    H410069   2.314   4.164   1.445 -0.8565 -2.4048  2.0394
  154ACOH    O210070   2.226   4.205   1.451  0.1694  0.2266  0.2711
  154ACOH    C210071   2.136   4.105   1.465  0.0595  0.2560 -0.1899
  154ACOH    O110072   2.162   3.988   1.502  0.4006 -0.3565 -0.4153
  154ACOH    C110073   1.998   4.154   1.467  0.6693  0.2841 -0.2606
  154ACOH    H110074   1.989   4.243   1.529 -0.6367  0.7582 -1.1216
  154ACOH    H210075   1.933   4.080   1.515 -1.5757  2.5247  0.2891
  154ACOH    H310076   1.965   4.177   1.366  0.4245 -0.2709 -0.3105
  155ACOH    H410077   5.124   2.043   1.228  0.3621  1.0474 -1.4689
  155ACOH    O210078   5.182   1.985   1.176 -0.1803 -0.5896 -0.2693
  155ACOH    C210079   5.109   1.957   1.067  0.1717 -0.2610 -0.0434
  155ACOH    O110080   4.991   1.980   1.054 -0.4418 -0.3488 -0.6147
  155ACOH    C110081   5.186   1.860   0.980  0.3766 -0.7992 -0.4689
  155ACOH    H110082   5.159   1.891   0.879 -0.9644 -0.6076 -0.0653
  155ACOH    H210083   5.160   1.755   0.992 -0.1535 -0.9348 -2.5639
  155ACOH    H310084   5.293   1.872   0.995 -0.1977  1.6726  2.1378
  156ACOH    H410085   4.054   9.354   2.048  0.3798 -0.4259  1.7817
  156ACOH    O210086   4.151   9.364   2.053  0.3531  0.3352  0.9812
  156ACOH    C210087   4.192   9.404   2.173 -0.4575 -0.6740  0.4203
  156ACOH    O110088   4.117   9.420   2.271  0.1919 -0.2084  0.9205
  156ACOH    C110089   4.335   9.442   2.161 -0.4117  0.4584  0.5828
  156ACOH    H110090   4.388   9.389   2.240  2.5231  0.5312 -1.2707
  156ACOH    H210091   4.338   9.551   2.151  0.4765  0.1528 -2.9946
  156ACOH    H310092   4.377   9.401   2.069 -0.3484 -2.4847  1.8652
  157ACOH    H410093   5.160   2.876   1.845 -1.0511  0.9870  0.4545
  157ACOH    O210094   5.180   2.934   1.770  0.0519  0.2922  0.1955
  157ACOH    C210095   5.062   2.968   1.730 -0.8212  0.0054 -0.2935
  157ACOH    O110096   4.955   2.936   1.779 -0.3352  0.0412 -0.0165
  157ACOH    C110097   5.061   3.051   1.606  0.2518 -0.3383 -0.3112
  157ACOH    H110098   5.000   3.141   1.612 -0.4426 -0.6744 -1.9895
  157ACOH    H210099   5.012   2.990   1.530  1.8618  0.3271 -1.9242
  157ACOH    H310100   5.158   3.095   1.581 -1.5818  3.1066 -1.7356
  158ACOH    H410101   3.261   7.716   0.394  0.5479  3.5915 -2.4644
  158ACOH    O210102   3.354   7.688   0.390 -0.3854 -0.2362  0.4056
  158ACOH    C210103   3.392   7.649   0.510 -0.1316 -0.2261  0.1154
  158ACOH    O110104   3.319   7.631   0.609  0.6089  0.2867 -0.0321
  158ACOH    C110105   3.536   7.656   0.537  0.0457 -0.2979  0.3307
  158ACOH    H110106   3.581   7.752   0.511 -1.4631 -0.2887 -2.4241
  158ACOH    H210107   3.593   7.588   0.473 -1.4028 -0.0635 -1.2419
  158ACOH    H310108   3.564   7.637   0.640 -2.8763 -1.0885  0.9902
  160ACOH    H410109   3.717   7.733   0.313 -0.1454  0.2589 -1.3393
  160ACOH    O210110   3.729   7.639   0.293  0.3532 -0.1838  0.9359
  160ACOH    C210111   3.845   7.607   0.348  1.1602  0.3229  0.2084
  160ACOH    O110112   3.893   7.648   0.451  0.3655 -0.6309  0.0602
  160ACOH    C110113   3.893   7.476   0.302 -0.1998  0.6746 -0.0650
  160ACOH    H110114   3.988   7.450   0.348  1.1344  2.1759 -1.8779
  160ACOH    H210115   3.912   7.484   0.195 -1.0768  0.7540 -0.2196
  160ACOH    H310116   3.821   7.397   0.321  0.1186  0.3286 -0.2900
  161ACOH    H410117   2.392   5.266   1.133 -0.9542  0.8162  0.5508
  161ACOH    O210118   2.346   5.239   1.214 -0.3124  0.6116  0.8487
  161ACOH    C210119   2.234   5.307   1.209  0.1958 -0.6693  0.6076
  161ACOH    O110120   2.170   5.348   1.111 -0.3162  0.0350  0.3653
  161ACOH    C110121   2.172   5.304   1.347 -0.5698  0.6953 -0.7275
  161ACOH    H110122   2.077   5.250   1.348  0.8630 -1.9415 -0.1144
  161ACOH    H210123   2.163   5.405   1.387  0.2442  1.4788 -2.4822
  161ACOH    H310124   2.231   5.245   1.418 -2.1077 -0.0447 -0.0342
  162ACOH    H410125   2.386   1.476   2.124 -0.0821 -0.1869 -1.5329
  162ACOH    O210126   2.335   1.559   2.121 -0.2368 -0.2038  0.2139
  162ACOH    C210127   2.325   1.604   2.250  0.7030  1.0394  0.1077
  162ACOH    O110128   2.396   1.572   2.339  0.3049  0.1623  0.0724
  162ACOH    C110129   2.228   1.711   2.262  0.3163 -0.0994 -0.2995
  162ACOH    H110130   2.277   1.808   2.250  0.4142 -0.1251 -0.1097
  162ACOH    H210131   2.178   1.690   2.356  2.8078 -1.0052  0.8874
  162ACOH    H310132   2.161   1.691   2.178  1.8038  3.6182 -2.4985
  163ACOH    H410133   4.069   8.970   1.869 -0.0675 -0.1305  0.3542
  163ACOH    O210134   4.135   9.035   1.895  0.1959 -0.3019  0.1096
  163ACOH    C210135   4.202   8.998   2.007 -0.0747  0.1630 -0.8250
  163ACOH    O110136   4.158   8.921   2.091 -0.1985  0.4211  0.2207
  163ACOH    C110137   4.311   9.084   2.048 -0.0534  0.2749  0.1942
  163ACOH    H110138   4.276   9.129   2.141  1.0575  0.5411  0.4877
  163ACOH    H210139   4.336   9.150   1.965 -0.5254  0.8581  0.5172
  163ACOH    H310140   4.402   9.032   2.078 -0.6667 -1.4787 -0.9172
  164ACOH    H410141   4.472   4.961   0.860  0.4812 -0.2297 -1.8655
  164ACOH    O210142   4.554   5.012   0.873  0.0638  0.0001  0.0405
  164ACOH    C210143   4.555   5.071   0.756  0.4831  0.0597  0.3826
  164ACOH    O110144   4.460   5.113   0.691  0.4207  0.2186  0.2725
  164ACOH    C110145   4.688   5.130   0.734 -0.6200 -0.7110 -0.0969
  164ACOH    H110146   4.743   5.161   0.822  0.5093  1.2765 -1.4632
  164ACOH    H210147   4.687   5.215   0.665  3.6789 -0.6476 -0.2398
  164ACOH    H310148   4.757   5.058   0.690 -0.2878 -0.0899 -0.6118
  165ACOH    H410149   3.359   8.308   1.467  0.7728  0.1420  0.6430
  165ACOH    O210150   3.356   8.213   1.446 -0.1316  0.3315 -0.1320
  165ACOH    C210151   3.337   8.156   1.563 -0.3205 -0.1448 -0.0498
  165ACOH    O110152   3.276   8.210   1.657  0.8525 -0.0408 -0.3768
  165ACOH    C110153   3.335   8.007   1.541 -0.7743 -0.6355 -0.0990
  165ACOH    H110154   3.436   7.968   1.548 -0.3436  0.6535  0.9702
  165ACOH    H210155   3.289   7.987   1.444  1.2030  2.4568 -1.7776
  165ACOH    H310156   3.282   7.963   1.625 -2.2872  1.5224  0.1328
  166ACOH    H410157   3.043   5.637   1.346 -1.3375  1.0081  1.0070
  166ACOH    O210158   3.090   5.629   1.431  0.1217  0.1549  0.1364
  166ACOH    C210159   3.112   5.751   1.478 -0.1620  0.4784  0.3113
  166ACOH    O110160   3.068   5.860   1.451  0.2250 -0.0365  0.0435
  166ACOH    C110161   3.184   5.732   1.607 -0.5554 -0.5190  0.5031
  166ACOH    H110162   3.194   5.828   1.657 -0.8580 -0.8596  1.2254
  166ACOH    H210163   3.282   5.696   1.574  0.4716  2.3798  0.2983
  166ACOH    H310164   3.130   5.664   1.672  0.5946  0.6220  2.6911
  167ACOH    H410165   4.429   8.326   0.957 -1.2750 -0.3017  0.2130
  167ACOH    O210166   4.468   8.239   0.940 -0.1315  0.1876  0.3002
  167ACOH    C210167   4.382   8.187   0.851  0.0938  0.0750  0.3252
  167ACOH    O110168   4.294   8.238   0.784  0.1725 -0.4772 -0.3599
  167ACOH    C110169   4.418   8.041   0.829 -0.0320  0.1276  0.2827
  167ACOH    H110170   4.505   8.009   0.887  1.0713  0.2942 -1.2394
  167ACOH    H210171   4.441   8.016   0.725  0.6452  0.3993  0.3621
  167ACOH    H310172   4.336   7.973   0.852 -0.5716  0.6996  0.0670
  168ACOH    H410173   1.966   0.424   2.161 -1.2044 -0.4342 -1.5080
  168ACOH    O210174   1.906   0.461   2.228  0.4739 -0.7971  0.2383
  168ACOH    C210175   1.950   0.578   2.271 -0.1112  0.0654 -0.2773
  168ACOH    O110176   2.056   0.635   2.247  0.4631  0.2851  0.3498
  168ACOH    C110177   1.857   0.643   2.373 -0.7537  0.3782  0.3387
  168ACOH    H110178   1.845   0.578   2.460 -0.6648  1.4044  1.1183
  168ACOH    H210179   1.764   0.646   2.315 -0.5230 -1.0455 -0.1264
  168ACOH    H310180   1.886   0.742   2.407 -0.9548  0.6829 -0.3756
  169ACOH    H410181   5.592   4.009   0.410 -0.6349  0.8139  1.9512
  169ACOH    O210182   5.576   3.914   0.428  0.5075  0.2188 -0.0851
  169ACOH    C210183   5.630   3.878   0.545  0.2653 -0.0739 -0.0465
  169ACOH    O110184   5.675   3.950   0.636  0.0094  0.2317  0.2414
  169ACOH    C110185   5.634   3.733   0.563  0.2980  0.4476 -0.3501
  169ACOH    H110186   5.533   3.693   0.575  0.1520  1.3799  1.7177
  169ACOH    H210187   5.685   3.707   0.656 -0.1694 -1.8971 -0.7140
  169ACOH    H310188   5.673   3.685   0.473  2.5915 -1.8511  1.7781
  170ACOH    H410189   4.009   8.736   1.761 -2.6150 -1.9718  0.4134
  170ACOH    O210190   4.075   8.665   1.759 -0.1986  0.2008 -0.2494
  170ACOH    C210191   4.003   8.561   1.734 -0.0634  0.2898  0.2100
  170ACOH    O110192   3.882   8.548   1.723  0.0027 -0.2964  0.6329
  170ACOH    C110193   4.097   8.445   1.733  0.2662  1.4179 -0.6322
  170ACOH    H110194   4.161   8.441   1.820  1.1326 -2.2663 -1.3652
  170ACOH    H210195   4.158   8.443   1.643  3.9428  2.4142  1.7546
  170ACOH    H310196   4.040   8.352   1.733 -0.4463  1.8304  1.3528
  171ACOH    H410197   5.710   3.402   1.453  2.6830 -2.5001 -0.0999
  171ACOH    O210198   5.775   3.466   1.486 -0.0937  0.5167 -0.2132
  171ACOH    C210199   5.711   3.584   1.511 -0.2619  0.7148  0.4584
  171ACOH    O110200   5.595   3.606   1.491  0.9810  0.3718  0.1206
  171ACOH    C110201   5.818   3.689   1.535 -0.1430 -0.0096  0.4823
  171ACOH    H110202   5.833   3.752   1.447  2.8855  0.8976  1.5650
  171ACOH    H210203   5.910   3.638   1.565  0.5140  0.2020 -1.0770
  171ACOH    H310204   5.783   3.760   1.609 -0.3785  0.5385 -0.1539
  172ACOH    H410205   3.975   5.598   1.317 -0.2330  1.1415  1.8181
  172ACOH    O210206   4.065   5.635   1.314 -0.0724  0.6835 -0.5429
  172ACOH    C210207   4.131   5.570   1.411  0.1322 -0.9667  0.2256
  172ACOH    O110208   4.086   5.482   1.479  0.1328 -0.4441  0.8105
  172ACOH    C110209   4.268   5.610   1.415 -0.1612 -0.5456  0.4891
  172ACOH    H110210   4.288   5.706   1.464  3.3123 -0.6090 -0.6875
  172ACOH    H210211   4.308   5.614   1.314 -2.8028  2.3962 -0.5577
  172ACOH    H310212   4.322   5.540   1.478  0.5153 -0.3950  0.0794
  173ACOH    H410213   4.919   4.311   2.313 -0.1893 -1.1180  0.7736
  173ACOH    O210214   5.005   4.327   2.355 -0.2843 -0.0606  0.5840
  173ACOH    C210215   5.000   4.304   2.481 -0.0562  0.4767 -0.9025
  173ACOH    O110216   4.899   4.309   2.548 -0.7811 -0.2156  0.1700
  173ACOH    C110217   5.141   4.309   2.536 -0.4277  0.2661  0.4125
  173ACOH    H110218   5.132   4.333   2.642 -1.1913  3.0466 -0.2368
  173ACOH    H210219   5.209   4.372   2.479  0.1027 -2.0646 -1.6109
  173ACOH    H310220   5.187   4.212   2.523 -2.1200 -0.5076  0.0397
  174ACOH    H410221   5.859   3.235   0.983 -0.0051  0.9109 -0.8814
  174ACOH    O210222   5.939   3.229   0.928  0.2461 -0.5542 -0.3814
  174ACOH    C210223   5.910   3.275   0.802 -0.7910 -0.3052 -0.1011
  174ACOH    O110224   5.816   3.327   0.753  0.3777  0.0888 -0.3964
  174ACOH    C110225   6.035   3.245   0.725 -0.5475  0.3390 -0.0687
  174ACOH    H110226   6.097   3.330   0.698 -2.8021  1.7730 -0.9149
  174ACOH    H210227   5.992   3.212   0.630 -0.3260 -2.0964  0.6364
  174ACOH    H310228   6.098   3.163   0.759 -0.8150  0.4136  0.6066
  175ACOH    H410229   5.340   2.109   0.822  0.2094  1.2041 -0.7046
  175ACOH    O210230   5.390   2.113   0.905 -0.6315 -0.2139 -0.1248
  175ACOH    C210231   5.319   2.201   0.981 -0.1207  0.8605  0.4739
  175ACOH    O110232   5.210   2.250   0.968 -0.3499  0.4468  0.8045
  175ACOH    C110233   5.391   2.222   1.109 -0.1349  0.3819 -0.8735
  175ACOH    H110234   5.486   2.272   1.092  0.0516 -0.2446 -1.6843
  175ACOH    H210235   5.410   2.124   1.153 -0.2115  0.8388  0.2077
  175ACOH    H310236   5.332   2.284   1.177 -0.5200  0.0082 -0.8658
  176ACOH    H410237   1.948   8.123   1.247 -1.8819 -0.0826 -1.1713
  176ACOH    O210238   1.914   8.214   1.245 -0.4847  0.4857  0.2018
  176ACOH    C210239   1.915   8.272   1.362 -0.1398  0.4831  0.8353
  176ACOH    O110240   1.905   8.216   1.471  0.2213  0.1696  0.2814
  176ACOH    C110241   1.898   8.422   1.362  0.3389  0.0675 -0.0552
  176ACOH    H110242   1.958   8.455   1.278  1.4357 -0.7750  0.3852
  176ACOH    H210243   1.933   8.479   1.448  1.6156 -0.1751 -0.4114
  176ACOH    H310244   1.796   8.454   1.340  1.3839  1.9501 -2.2658
  177ACOH    H410245   2.068   1.305   2.278  0.0294  0.8155 -0.6669
  177ACOH    O210246   2.101   1.374   2.338 -0.0936  0.2067  0.1099
  177ACOH    C210247   2.057   1.368   2.462 -0.5544  0.0173  0.3966
  177ACOH    O110248   1.959   1.300   2.498  0.1382 -0.5560 -0.7910
  177ACOH    C110249   2.092   1.497   2.522  0.3029  0.4720 -0.3213
  177ACOH    H110250   2.022   1.577   2.498 -1.2592 -0.2641  1.7383
  177ACOH    H210251   2.191   1.535   2.495  1.3515 -2.4848 -0.8715
  177ACOH    H310252   2.095   1.477   2.629  1.1612  0.7069 -0.2950
  178ACOH    H410253   4.535   4.355   1.770 -0.1781  0.9082 -0.6531
  178ACOH    O210254   4.595   4.386   1.700  0.7951  0.0109 -0.2353
  178ACOH    C210255   4.506   4.400   1.598 -0.4632 -0.1117  0.4940
  178ACOH    O110256   4.384   4.403   1.593  0.4805 -0.3971 -0.1144
  178ACOH    C110257   4.572   4.430   1.465  0.0875 -0.3589  0.4448
  178ACOH    H110258   4.560   4.536   1.442  0.8491 -0.6590 -1.3788
  178ACOH    H210259   4.530   4.382   1.377  0.6957  1.9234 -1.1168
  178ACOH    H310260   4.676   4.400   1.471 -0.0161 -0.8169  0.0111
  179ACOH    H410261   4.411   0.903   2.196 -0.0359 -1.1731 -0.9239
  179ACOH    O210262   4.504   0.927   2.186 -0.3605  0.6308  0.0307
  179ACOH    C210263   4.519   0.991   2.070 -0.6001 -0.3409  0.0343
  179ACOH    O110264   4.469   0.970   1.962  0.2130  0.3154 -0.5059
  179ACOH    C110265   4.650   1.057   2.068 -0.7327 -0.1814  0.1609
  179ACOH    H110266   4.674   1.097   1.969  0.0859  0.6467  0.6917
  179ACOH    H210267   4.732   0.989   2.091 -0.3975 -0.6841 -2.3144
  179ACOH    H310268   4.662   1.137   2.141  1.8368  0.2763 -0.7078
  181ACOH    H410269   5.811   4.113   0.678 -0.7742  1.9314  1.3260
  181ACOH    O210270   5.897   4.159   0.684  0.3716  0.0597 -0.0126
  181ACOH    C210271   5.925   4.238   0.575 -0.5675 -0.2323 -0.0451
  181ACOH    O110272   5.871   4.260   0.465  0.3545 -0.4183 -0.6425
  181ACOH    C110273   6.049   4.315   0.601  0.1926  0.2765  0.4110
  181ACOH    H110274   6.044   4.410   0.547 -0.5214  1.1154  1.9371
  181ACOH    H210275   6.134   4.256   0.565  1.2444 -0.0383  3.2778
  181ACOH    H310276   6.064   4.330   0.708  1.4387 -1.2276  0.4695
  182ACOH    H410277   3.633   7.329   0.666 -0.2352 -0.4779 -0.2888
  182ACOH    O210278   3.714   7.281   0.691  0.2884  0.8362  0.5929
  182ACOH    C210279   3.750   7.203   0.592  0.4240  0.3752  0.1293
  182ACOH    O110280   3.694   7.193   0.485 -0.2977  0.4281  0.1707
  182ACOH    C110281   3.884   7.140   0.617 -0.3433  0.7322 -0.1901
  182ACOH    H110282   3.891   7.049   0.558 -0.8754  0.4512  0.1738
  182ACOH    H210283   3.895   7.112   0.722  1.6061  0.4491 -0.4549
  182ACOH    H310284   3.962   7.210   0.586  2.6623 -1.2148  2.6260
  183ACOH    H410285   2.839   9.500   2.341 -0.3355  0.1446  2.5419
  183ACOH    O210286   2.927   9.536   2.363  0.0832  0.3334  0.6376
  183ACOH    C210287   3.018   9.494   2.274  0.0252 -0.3353 -0.0208
  183ACOH    O110288   3.004   9.499   2.153 -0.0715  0.0394  0.0224
  183ACOH    C110289   3.146   9.458   2.343 -0.0199 -0.3393 -0.7058
  183ACOH    H110290   3.211   9.412   2.269 -0.8345  1.3061 -2.5090
  183ACOH    H210291   3.138   9.402   2.436  1.6903  1.3607  0.5270
  183ACOH    H310292   3.184   9.555   2.375  1.0831 -0.4723 -1.5870
  184ACOH    H410293   1.822   0.510   0.515 -0.9439 -0.5202  0.2864
  184ACOH    O210294   1.800   0.450   0.441  0.1146 -0.1738 -0.3235
  184ACOH    C210295   1.694   0.508   0.377 -0.2373 -0.4153 -0.3890
  184ACOH    O110296   1.646   0.619   0.397 -0.0023  0.0603  0.2888
  184ACOH    C110297   1.666   0.438   0.255 -0.1493  0.4311  0.4401
  184ACOH    H110298   1.694   0.506   0.175  0.4009 -0.6217 -0.2716
  184ACOH    H210299   1.561   0.410   0.251  0.1795 -0.7310 -0.1080
  184ACOH    H310300   1.732   0.351   0.255  1.6519  1.7718  0.5329
  185ACOH    H410301   4.487   8.869   0.451  0.0004  1.3870 -0.5320
  185ACOH    O210302   4.497   8.802   0.381  0.2692  0.2254  0.5995
  185ACOH    C210303   4.410   8.701   0.400  0.0685 -0.4932 -0.6170
  185ACOH    O110304   4.323   8.682   0.483 -0.2775  0.4892  0.5824
  185ACOH    C110305   4.446   8.594   0.307 -0.4845 -0.1949  0.3013
  185ACOH    H110306   4.360   8.569   0.246  1.8609 -0.1800 -3.1395
  185ACOH    H210307   4.469   8.501   0.360 -0.3430 -1.4405 -1.8766
  185ACOH    H310308   4.533   8.605   0.243 -0.3576 -1.4286  0.2474
  186ACOH    H410309   3.081   6.646   2.042  0.5992 -0.4605  0.5483
  186ACOH    O210310   3.154   6.607   1.992  0.0104 -0.2961 -0.4402
  186ACOH    C210311   3.193   6.506   2.073  0.3655  0.0261 -0.6805
  186ACOH    O110312   3.148   6.483   2.184  0.4412 -0.1142  0.0731
  186ACOH    C110313   3.325   6.461   2.034 -0.6665  0.1690  0.1886
  186ACOH    H110314   3.377   6.544   1.986  0.0331  0.1676  0.9355
  186ACOH    H210315   3.315   6.386   1.956 -0.2654  0.2858  0.0227
  186ACOH    H310316   3.387   6.433   2.119  0.7768  0.6209 -0.6852
  187ACOH    H410317   2.767   6.637   1.062  0.4226 -2.0577  1.2411
  187ACOH    O210318   2.863   6.644   1.048  0.0990  0.7053  0.1953
  187ACOH    C210319   2.893   6.602   0.924  0.0456  0.5839 -0.0492
  187ACOH    O110320   2.819   6.570   0.839 -0.4527 -0.1622  0.3196
  187ACOH    C110321   3.041   6.605   0.902  0.5210  0.1912 -0.3384
  187ACOH    H110322   3.078   6.518   0.958 -0.5020 -0.8752 -1.3070
  187ACOH    H210323   3.088   6.697   0.938  0.2056 -0.2700  1.3068
  187ACOH    H310324   3.070   6.584   0.800  2.1697  0.1125  0.1275
  188ACOH    H410325   5.130   3.728   2.467 -0.1778  0.9167  0.0740
  188ACOH    O210326   5.188   3.761   2.396  0.2791  0.1026  0.0652
  188ACOH    C210327   5.152   3.882   2.365 -0.0284 -0.2272 -0.0503
  188ACOH    O110328   5.111   3.955   2.450  0.3442 -0.3169 -0.0757
  188ACOH    C110329   5.229   3.925   2.246  0.5810 -0.6118  0.3981
  188ACOH    H110330   5.238   3.852   2.166  2.3000 -1.1318  1.0535
  188ACOH    H210331   5.330   3.943   2.285  0.0207  0.7849  1.2405
  188ACOH    H310332   5.182   4.015   2.206 -1.0712 -2.3856 -1.7981
  189ACOH    H410333   1.816   1.517   1.636  0.0075 -1.5929 -3.3301
  189ACOH    O210334   1.732   1.481   1.668  0.4039  0.3864  0.1750
  189ACOH    C210335   1.681   1.401   1.571 -0.0484  0.1200 -0.8120
  189ACOH    O110336   1.737   1.380   1.466 -0.1853 -0.0788 -0.5773
  189ACOH    C110337   1.555   1.326   1.615 -0.1053  0.9591 -0.1587
  189ACOH    H110338   1.481   1.346   1.537 -1.9623  1.4150  1.6756
  189ACOH    H210339   1.515   1.368   1.707  0.5287  1.1197  0.0446
  189ACOH    H310340   1.570   1.218   1.622 -0.6947  0.7594 -1.7112
  190ACOH    H410341   3.674   5.560   2.090  0.7632  1.5338 -0.7736
  190ACOH    O210342   3.751   5.502   2.081  0.0275  0.3113  0.5660
  190ACOH    C210343   3.737   5.404   2.172 -0.3547 -0.3564 -0.3615
  190ACOH    O110344   3.650   5.386   2.251  0.2663 -0.0440  0.0052
  190ACOH    C110345   3.843   5.307   2.159 -0.1189  0.9714 -0.3588
  190ACOH    H110346   3.941   5.353   2.147  0.0626  0.6384 -0.1656
  190ACOH    H210347   3.828   5.245   2.071  0.7340 -0.7100  0.6460
  190ACOH    H310348   3.847   5.244   2.248  2.3767 -1.8335 -2.3864
  191ACOH    H410349   5.126   1.335   0.135 -1.4541  1.4147  0.5935
  191ACOH    O210350   5.134   1.283   0.217 -0.7798  0.4097 -0.1104
  191ACOH    C210351   5.027   1.321   0.292 -0.0060 -0.2915  0.3039
  191ACOH    O110352   4.960   1.424   0.277  0.2326 -0.3180 -0.4349
  191ACOH    C110353   5.019   1.228   0.402 -0.2241  0.5017 -1.5238
  191ACOH    H110354   5.099   1.246   0.473 -0.8965  1.8261 -1.0839
  191ACOH    H210355   5.022   1.126   0.363 -1.0402  0.0303 -0.3830
  191ACOH    H310356   4.927   1.240   0.459  0.1459 -1.6213 -0.4287
  192ACOH    H410357   4.008   8.156   3.101 -0.4685  0.8920 -3.2403
  192ACOH    O210358   4.042   8.075   3.060  0.3983 -0.2509 -0.4111
  192ACOH    C210359   4.026   8.075   2.918 -0.4035  0.3840 -0.1421
  192ACOH    O110360   4.020   8.179   2.857  0.7490  0.0860 -0.4365
  192ACOH    C110361   4.023   7.934   2.861  0.2644 -0.3208  0.2876
  192ACOH    H110362   3.943   7.930   2.787  0.5420  1.0201 -0.0849
  192ACOH    H210363   3.991   7.867   2.942 -1.8987 -0.0402 -0.3145
  192ACOH    H310364   4.122   7.911   2.822 -0.3625  1.0655 -2.2151
  193SOL     OW10365   3.024   2.629   1.297 -0.1093 -0.2224  0.1573
  193SOL    HW110366   3.099   2.661   1.355 -1.9971  0.3471  2.3519
  193SOL    HW210367   2.970   2.562   1.347 -1.6433  0.1096 -1.0240
  194SOL     OW10368   2.793   1.790   1.586 -1.1708  0.0398 -0.3680
  194SOL    HW110369   2.771   1.887   1.571  3.0780  1.2517  0.5587
  194SOL    HW210370   2.812   1.775   1.683 -1.3818 -1.6789 -0.5743
  198SOL     OW10371   2.952   4.126   1.527 -0.2666 -0.2958 -0.1542
  198SOL    HW110372   2.930   4.066   1.603 -0.2133  0.0472  0.1355
  198SOL    HW210373   3.023   4.084   1.470  0.4619 -0.0877  0.5871
  200SOL     OW10374   2.268   6.272   0.701 -0.0768  0.0162  0.0223
  200SOL    HW110375   2.254   6.258   0.799  0.0685  0.9218  0.1763
  200SOL    HW210376   2.331   6.202   0.666  0.9161  0.4774  0.8514
  201SOL     OW10377   3.523   8.514   2.241  0.3654  0.2511  0.5005
  201SOL    HW110378   3.581   8.449   2.291  1.4382  1.2370  0.5751
  201SOL    HW210379   3.549   8.514   2.144 -0.2242 -0.0617  0.3403
  202SOL     OW10380   2.665   0.930   1.912 -0.0009  0.3949  0.4005
  202SOL    HW110381   2.742   0.993   1.923  0.4041  0.0449 -0.4110
  202SOL    HW210382   2.587   0.980   1.872  0.1345  0.5166  0.2867
  203SOL     OW10383   3.592   3.709   0.880 -0.3759 -0.6501 -0.0209
  203SOL    HW110384   3.624   3.655   0.803 -0.6869 -1.4686  0.4186
  203SOL    HW210385   3.574   3.803   0.850  0.7486 -0.6282 -0.6476
  204SOL     OW10386   3.918   0.361   0.574  0.2756  0.5539 -0.4193
  204SOL    HW110387   3.964   0.444   0.541  1.2358  0.1465 -0.1398
  204SOL    HW210388   3.987   0.298   0.611 -0.6315  0.4031  1.0428
  205SOL     OW10389   3.406   8.507   0.661  0.3962  0.3537 -0.3557
  205SOL    HW110390   3.318   8.478   0.699  0.3700  2.2126  1.0945
  205SOL    HW210391   3.429   8.450   0.582 -2.2194  0.0126 -0.9182
  208SOL     OW10392   3.166   1.324   1.548 -0.1692  0.3952  0.3090
  208SOL    HW110393   3.146   1.254   1.479 -0.3410 -0.4790  1.2266
  208SOL    HW210394   3.089   1.331   1.612 -0.1263  1.3904  0.2589
  209SOL     OW10395   3.597   0.876   0.610  0.3428  0.0712 -0.0807
  209SOL    HW110396   3.525   0.884   0.542 -0.9142 -0.0426  1.2124
  209SOL    HW210397   3.656   0.799   0.587  0.1609  0.2648 -1.2367
  210SOL     OW10398   3.896   3.533   0.645 -0.0646  0.2578 -0.0833
  210SOL    HW110399   3.938   3.442   0.647  0.2157  0.3554 -1.3508
  210SOL    HW210400   3.936   3.590   0.717 -1.0380 -0.9674  1.4532
  212SOL     OW10401   2.740   9.161   0.557 -0.1067 -0.4892  0.8641
  212SOL    HW110402   2.695   9.200   0.477 -0.0542  0.2581  1.1952
  212SOL    HW210403   2.740   9.228   0.631 -1.4627 -1.6992  1.9865
  213SOL     OW10404   2.529   8.893   0.980 -0.3051 -0.0254  0.2853
  213SOL    HW110405   2.445   8.877   0.928  0.3466  1.4161 -1.2569
  213SOL    HW210406   2.520   8.853   1.071 -2.1754 -0.9864 -0.2946
  214SOL     OW10407   3.196   5.052   0.599  0.4972 -0.3729 -0.0863
  214SOL    HW110408   3.137   4.989   0.549 -0.1308 -0.5273  0.8435
  214SOL    HW210409   3.192   5.143   0.557 -0.8159 -0.2478  0.2707
  215SOL     OW10410   3.433   3.089   1.575 -0.8518  0.1918  0.2568
  215SOL    HW110411   3.454   3.047   1.487 -0.8839 -0.0892  0.3813
  215SOL    HW210412   3.415   3.186   1.562 -0.5815  0.2095 -0.0080
  216SOL     OW10413   1.901   2.261   1.390  0.0136 -0.2605 -0.3753
  216SOL    HW110414   1.821   2.312   1.421  0.6480  0.7030 -0.3118
  216SOL    HW210415   1.896   2.167   1.424 -0.3768  0.1841  0.8188
  217SOL     OW10416   2.450   6.094   0.652  0.3628  0.1313 -0.3131
  217SOL    HW110417   2.405   6.005   0.648  1.8950 -0.7706  1.4137
  217SOL    HW210418   2.511   6.104   0.573  0.5319 -0.5475 -0.2705
  218SOL     OW10419   2.213   9.943   1.755  0.0427 -0.1879  0.2138
  218SOL    HW110420   2.270   9.892   1.691  0.6699 -0.6212  1.1037
  218SOL    HW210421   2.122   9.955   1.716  0.3442 -0.6444 -0.6559
  219SOL     OW10422   4.128   1.817   1.874  0.0796  0.3508  0.4799
  219SOL    HW110423   4.181   1.895   1.908  0.4996  0.6569 -0.8501
  219SOL    HW210424   4.031   1.842   1.869  0.2674  0.9422 -0.3505
  220SOL     OW10425   3.755   1.277   1.865  0.1785 -0.4021  0.0467
  220SOL    HW110426   3.854   1.275   1.849  0.3097 -0.6548  0.8799
  220SOL    HW210427   3.724   1.187   1.896 -0.6317 -0.8686 -2.0062
  221SOL     OW10428   3.725   0.315   0.391  0.3316 -0.3397  0.0023
  221SOL    HW110429   3.756   0.350   0.302  0.8476 -2.4528 -0.7068
  221SOL    HW210430   3.794   0.335   0.460  0.9474 -0.5704 -0.5313
  224SOL     OW10431   4.382   1.815   1.644  0.0067  0.2098  0.0385
  224SOL    HW110432   4.313   1.880   1.611  1.7452  1.6399 -0.8246
  224SOL    HW210433   4.438   1.859   1.714  1.5327 -0.1781 -0.9192
  225SOL     OW10434   2.650   7.721   1.194 -0.0035  0.2095  0.1046
  225SOL    HW110435   2.661   7.820   1.201 -0.0831  0.4059 -2.0121
  225SOL    HW210436   2.706   7.675   1.263  2.1329  1.6576 -0.6214
  226SOL     OW10437   3.273   2.310   2.258 -0.5608 -0.5311 -0.2013
  226SOL    HW110438   3.332   2.380   2.297 -0.5055 -1.2172  0.9525
  226SOL    HW210439   3.260   2.329   2.160  0.5022  0.3480 -0.1861
  227SOL     OW10440   2.565   5.537   0.737 -0.1383 -0.5154  0.2291
  227SOL    HW110441   2.523   5.478   0.668  0.6487 -1.0054  0.1633
  227SOL    HW210442   2.507   5.617   0.752  0.4256  0.3861 -2.1426
  228SOL     OW10443   4.695   3.090   1.044  0.6186  0.3174  0.0476
  228SOL    HW110444   4.712   3.124   0.951  1.6657 -1.1852 -0.3406
  228SOL    HW210445   4.781   3.056   1.083 -0.1626 -0.7376  0.8700
  229SOL     OW10446   2.447   7.991   0.993  0.0327  0.2223 -0.2350
  229SOL    HW110447   2.497   8.077   1.002 -0.5599  0.6318 -0.7979
  229SOL    HW210448   2.495   7.932   0.927  1.6776 -0.8075  1.8350
  232SOL     OW10449   2.557   2.755   1.216  0.1718 -0.1694  0.2044
  232SOL    HW110450   2.634   2.816   1.200 -0.0243  0.4914  1.6846
  232SOL    HW210451   2.527   2.715   1.130  0.6917  1.3559 -0.6883
  233SOL     OW10452   3.815   5.567   0.449 -0.5327 -0.3657  0.3705
  233SOL    HW110453   3.865   5.644   0.410  0.0302 -1.8268 -1.8711
  233SOL    HW210454   3.876   5.513   0.507 -0.0605 -0.8831 -0.5865
  234SOL     OW10455   3.071   9.332   1.343 -0.1095  0.2501 -0.5154
  234SOL    HW110456   3.110   9.416   1.378 -0.5908  0.7260 -1.1064
  234SOL    HW210457   3.132   9.255   1.363 -0.3420  0.5180  1.2714
  235SOL     OW10458   3.209   4.822   1.212  0.1964 -0.8454 -0.1694
  235SOL    HW110459   3.198   4.731   1.170 -1.0280 -0.9941  0.4722
  235SOL    HW210460   3.232   4.888   1.141 -0.3813 -1.3777 -0.8592
  237SOL     OW10461   4.554   2.928   0.331  0.1028  0.2390  0.2500
  237SOL    HW110462   4.495   2.857   0.293 -0.1253  0.5014  0.1177
  237SOL    HW210463   4.613   2.965   0.259  0.6575 -0.2508  0.4503
  239SOL     OW10464   3.020   3.375   1.104  0.0502  0.0044  0.2081
  239SOL    HW110465   2.925   3.375   1.073  0.4835 -0.2034 -1.1361
  239SOL    HW210466   3.049   3.469   1.121 -0.7943 -0.0254  1.8842
  240SOL     OW10467   4.055   0.861   0.280 -0.3040  0.4740 -0.2416
  240SOL    HW110468   4.041   0.944   0.226  1.4148  0.1534 -1.2117
  240SOL    HW210469   4.030   0.879   0.375 -1.2354  1.6982 -0.7015
  241SOL     OW10470   3.748   1.792   0.948 -0.4376  0.3222  0.3676
  241SOL    HW110471   3.783   1.723   1.010 -1.0302  0.0714  0.4238
  241SOL    HW210472   3.824   1.848   0.914 -0.0942  0.3553  1.1786
  242SOL     OW10473   1.960   1.340   1.312  0.1450  0.4891 -0.1048
  242SOL    HW110474   1.957   1.251   1.265 -2.0551  0.9113 -0.8080
  242SOL    HW210475   1.887   1.344   1.380  0.2108  1.7812 -0.1110
  243SOL     OW10476   4.788   4.586   0.797  0.2010  0.7806 -0.4053
  243SOL    HW110477   4.817   4.667   0.848 -1.1395  0.2986  1.1697
  243SOL    HW210478   4.690   4.571   0.811  0.5333 -1.4162 -0.2308
  244SOL     OW10479   4.531   1.800   2.106  0.0662  0.1684  0.2424
  244SOL    HW110480   4.590   1.720   2.120  2.8880  2.2903  1.2258
  244SOL    HW210481   4.482   1.819   2.191 -2.0041 -1.5394 -0.5425
  245SOL     OW10482   2.973   3.954   1.740 -0.1765  0.2381 -0.0186
  245SOL    HW110483   2.918   3.971   1.822  1.5316  1.1624  0.9636
  245SOL    HW210484   3.061   3.916   1.767  0.6859  1.2542 -1.3782
  246SOL     OW10485   4.077   1.007   0.564 -0.0320 -0.0942 -0.2944
  246SOL    HW110486   4.136   1.084   0.541  0.1743 -0.6312 -1.6041
  246SOL    HW210487   4.004   1.038   0.624  0.9543  0.7950  0.4504
  247SOL     OW10488   3.463   3.688   1.698  0.2244  0.1719  0.0594
  247SOL    HW110489   3.457   3.588   1.698 -0.5501  0.2096 -0.3974
  247SOL    HW210490   3.489   3.720   1.607  0.3444  0.3958  0.1718
  248SOL     OW10491   3.505   0.503   1.472  0.1900  0.4096  0.1473
  248SOL    HW110492   3.555   0.429   1.517  1.4608  0.9897 -0.2863
  248SOL    HW210493   3.407   0.487   1.480  0.4415 -0.6374  1.1958
  249SOL     OW10494   2.517   3.368   2.117  0.3434 -0.3811 -0.7947
  249SOL    HW110495   2.461   3.312   2.178 -2.5344  0.7321 -2.3483
  249SOL    HW210496   2.587   3.416   2.171 -0.4760 -1.4265  1.2585
  252SOL     OW10497   2.040   1.082   1.259 -0.4497  0.2133  0.0595
  252SOL    HW110498   2.111   1.021   1.294 -2.7110 -2.6334 -0.0849
  252SOL    HW210499   2.062   1.110   1.166  1.5322  1.1260  0.7940
  253SOL     OW10500   3.746   2.603   1.889  0.3551 -0.1191  0.1011
  253SOL    HW110501   3.680   2.560   1.827 -1.0237  2.5080 -0.3103
  253SOL    HW210502   3.828   2.629   1.837  0.1348  0.0622 -0.1560
  254SOL     OW10503   2.415   7.582   0.319 -0.1826 -0.1129 -0.4974
  254SOL    HW110504   2.365   7.502   0.352 -0.3793 -1.0562 -2.9888
  254SOL    HW210505   2.350   7.652   0.291 -0.0098  1.1732  2.1500
  255SOL     OW10506   2.598   7.038   0.641 -0.0065  0.1248 -0.2336
  255SOL    HW110507   2.499   7.035   0.654 -0.3029  1.4873 -1.9686
  255SOL    HW210508   2.643   7.029   0.730 -1.7074  0.4821  0.6987
  262SOL     OW10509   4.248   2.359   0.703  0.0786 -0.0222 -0.3740
  262SOL    HW110510   4.198   2.434   0.661  1.7747  0.0074 -2.3765
  262SOL    HW210511   4.339   2.390   0.730 -0.5817 -0.3430  2.3493
  263SOL     OW10512   3.737   0.672   0.561 -0.0352  0.5832 -0.1065
  263SOL    HW110513   3.704   0.615   0.636  1.3312  1.9876  1.6127
  263SOL    HW210514   3.828   0.641   0.533  0.3080  1.3020  0.1892
  264SOL     OW10515   3.575   2.273   0.257 -0.5382  0.0970 -0.3218
  264SOL    HW110516   3.521   2.290   0.339  2.2517  0.6907  1.4781
  264SOL    HW210517   3.617   2.183   0.263  0.7978  0.6918 -0.3924
  265SOL     OW10518   3.860   8.895   2.154  0.1423 -0.1770  0.4110
  265SOL    HW110519   3.955   8.925   2.150  0.7033 -1.8791  0.3695
  265SOL    HW210520   3.838   8.866   2.247 -0.0892 -0.5290  0.2473
  266SOL     OW10521   2.856   6.255   2.087  0.6007 -0.2272 -0.4227
  266SOL    HW110522   2.859   6.326   2.157 -1.1704  0.3732 -0.9275
  266SOL    HW210523   2.803   6.177   2.120 -1.6605  0.7393 -1.6703
  267SOL     OW10524   2.021   2.810   2.074  0.0396 -0.0320 -0.2672
  267SOL    HW110525   1.997   2.792   1.978 -0.4299  0.4722 -0.2426
  267SOL    HW210526   1.945   2.855   2.120  0.2060 -0.4072  0.3889
  268SOL     OW10527   2.542   3.240   0.635 -0.1247  0.0570  0.1911
  268SOL    HW110528   2.573   3.151   0.669  0.6132  0.4548  0.5794
  268SOL    HW210529   2.574   3.253   0.541 -0.5876 -0.2658 -0.0100
  269SOL     OW10530   2.967   9.064   1.502  0.2124  0.2089  0.0940
  269SOL    HW110531   2.925   9.126   1.436  0.6808  0.8321  0.3764
  269SOL    HW210532   3.066   9.060   1.485  0.2981  0.1841  0.6149
  270SOL     OW10533   2.959   6.863   1.323 -0.5974 -0.2417  0.2542
  270SOL    HW110534   2.954   6.764   1.332  0.0699 -0.3182 -0.1386
  270SOL    HW210535   2.970   6.888   1.226  0.1286  0.1617  0.4296
  271SOL     OW10536   2.619   1.510   1.074 -0.2156 -0.4289 -0.1104
  271SOL    HW110537   2.545   1.552   1.021  0.0799 -0.9235 -0.9275
  271SOL    HW210538   2.699   1.570   1.073  0.3686 -1.1858 -1.6776
  272SOL     OW10539   4.014   3.118   0.321 -0.3117  0.4220 -0.5282
  272SOL    HW110540   4.031   3.029   0.364 -0.3305  0.5872 -0.1765
  272SOL    HW210541   4.035   3.191   0.386 -0.2853  0.6756 -0.8196
  273SOL     OW10542   4.746   3.093   1.376 -0.0181  0.0537 -0.1219
  273SOL    HW110543   4.663   3.129   1.333 -0.8404  0.6341  1.8896
  273SOL    HW210544   4.811   3.168   1.391  1.0610 -0.4564 -2.0154
  275SOL     OW10545   2.535   6.486   2.058 -0.0914 -0.2945  0.1298
  275SOL    HW110546   2.459   6.535   2.101  1.0757  0.3547  1.4744
  275SOL    HW210547   2.518   6.478   1.960 -1.0859  1.3377  0.1485
  276SOL     OW10548   2.732   3.038   0.927  0.2029 -0.0808 -0.2562
  276SOL    HW110549   2.818   3.090   0.933 -0.5584  1.2456 -0.5031
  276SOL    HW210550   2.703   3.012   1.019  0.4687  0.1626 -0.1012
  277SOL     OW10551   1.934   9.859   2.308  0.1659 -0.1518 -0.2507
  277SOL    HW110552   1.916   9.949   2.268  0.9362 -0.1579 -0.6220
  277SOL    HW210553   1.979   9.871   2.397  0.1851 -0.1748 -0.2573
  278SOL     OW10554   4.096   0.768   0.692  0.3655  0.3537  0.1299
  278SOL    HW110555   4.088   0.861   0.655  1.4750 -0.6049 -2.6586
  278SOL    HW210556   4.193   0.742   0.694 -0.0143 -1.0871  0.0182
  279SOL     OW10557   4.078   4.336   0.620  0.1654  0.4545 -0.0107
  279SOL    HW110558   4.077   4.436   0.608  0.6682  0.2732 -1.7651
  279SOL    HW210559   4.023   4.311   0.700 -0.8220  2.0576 -0.1640
  280SOL     OW10560   2.621   7.301   1.467  0.2479  0.2970  0.0788
  280SOL    HW110561   2.525   7.326   1.483  0.3653  0.2063  0.9627
  280SOL    HW210562   2.626   7.204   1.442  0.0101  0.5705 -1.0167
  281SOL     OW10563   2.055   1.847   1.657 -0.7538 -0.3425 -0.1208
  281SOL    HW110564   2.022   1.860   1.751  0.5540 -1.4422  0.4969
  281SOL    HW210565   2.152   1.869   1.652 -0.2322 -2.7172 -0.6615
  282SOL     OW10566   2.730   8.892   0.529  0.4468  0.1426  0.0276
  282SOL    HW110567   2.638   8.861   0.552  0.3799  1.4559  1.5981
  282SOL    HW210568   2.735   8.991   0.540  1.7123  0.2410 -1.2521
  283SOL     OW10569   3.466   5.068   0.290  0.5440 -0.0365  0.4158
  283SOL    HW110570   3.445   5.115   0.205  0.9872  3.7958  2.2734
  283SOL    HW210571   3.565   5.058   0.299  0.4073 -2.1823 -0.3821
  284SOL     OW10572   2.601   5.130   0.974 -0.3121 -0.2753  0.2501
  284SOL    HW110573   2.675   5.098   1.033  2.4432  1.1204 -2.3158
  284SOL    HW210574   2.595   5.070   0.894 -1.8481 -0.2596  0.3452
  285SOL     OW10575   2.364   0.345   2.217  0.4781  0.3132 -0.3210
  285SOL    HW110576   2.285   0.316   2.271  1.6287 -2.5719 -0.0843
  285SOL    HW210577   2.448   0.329   2.269  1.3247  1.9772 -1.1309
  286SOL     OW10578   3.141   9.197   0.387  0.3895 -0.4240  0.0610
  286SOL    HW110579   3.101   9.245   0.465 -1.8674 -0.7944 -0.8283
  286SOL    HW210580   3.122   9.248   0.303  2.0910 -0.4442 -0.3548
  287SOL     OW10581   4.827   1.628   1.117 -0.0413 -0.1955  0.8380
  287SOL    HW110582   4.873   1.580   1.192  1.6220 -1.7702 -1.1253
  287SOL    HW210583   4.742   1.580   1.094 -0.2672 -0.0383  1.3515
  288SOL     OW10584   4.285   2.079   2.344 -0.1562 -0.4185 -0.5562
  288SOL    HW110585   4.218   2.009   2.369 -0.6016  0.4335  0.6586
  288SOL    HW210586   4.368   2.066   2.398  0.0188 -0.4214 -0.8249
  289SOL     OW10587   2.630   4.000   1.042 -0.7460  0.2034 -0.0138
  289SOL    HW110588   2.607   4.087   1.085  0.8644  0.5103  0.2597
  289SOL    HW210589   2.664   3.937   1.112  0.5078  0.2216 -0.5970
  290SOL     OW10590   2.690   1.792   2.281  0.4424  0.2598  0.1463
  290SOL    HW110591   2.631   1.804   2.201  1.0646  1.6814 -0.1063
  290SOL    HW210592   2.670   1.863   2.348  2.7232  1.5038 -0.4720
  291SOL     OW10593   2.362   7.962   1.650 -0.1000  0.0359 -0.3629
  291SOL    HW110594   2.330   8.016   1.728 -2.4523 -0.2360 -1.0984
  291SOL    HW210595   2.407   7.879   1.683 -1.2106 -0.1529  0.7193
  292SOL     OW10596   2.345   2.470   2.316  0.0770  0.2449 -0.3943
  292SOL    HW110597   2.374   2.382   2.279 -1.9754 -0.5295 -0.1976
  292SOL    HW210598   2.316   2.459   2.411 -0.3677  1.0838 -0.4220
  293SOL     OW10599   2.731   6.704   2.001  0.2641  0.1079 -0.0127
  293SOL    HW110600   2.715   6.731   1.906  0.5335  1.5206  0.3271
  293SOL    HW210601   2.669   6.630   2.026  1.3175 -1.3901 -1.7754
  295SOL     OW10602   4.291   4.347   1.292  0.1729 -0.2298  0.3737
  295SOL    HW110603   4.293   4.368   1.389 -0.5132  1.1434  0.1116
  295SOL    HW210604   4.198   4.361   1.256  0.6026  0.1275 -0.6342
  296SOL     OW10605   3.628   0.749   1.128 -0.2935  0.4474 -0.0253
  296SOL    HW110606   3.633   0.767   1.227 -0.2816  4.2113 -0.6179
  296SOL    HW210607   3.541   0.783   1.092  0.1399  0.0539 -1.4846
  297SOL     OW10608   3.546   1.527   0.455 -0.2935 -0.4990 -0.5726
  297SOL    HW110609   3.563   1.456   0.386 -0.4057  0.8631 -2.0332
  297SOL    HW210610   3.450   1.555   0.450  0.2100  1.1458 -1.3839
  298SOL     OW10611   4.798   2.142   1.450  0.4357  0.4151 -0.1455
  298SOL    HW110612   4.736   2.200   1.398  1.2535  1.9160  0.5460
  298SOL    HW210613   4.831   2.191   1.531 -0.0900 -1.5373  1.3149
  299SOL     OW10614   2.074   6.785   1.309  0.1080  0.5052  0.4733
  299SOL    HW110615   2.129   6.868   1.296  1.6590 -1.0008 -3.2674
  299SOL    HW210616   1.985   6.796   1.265  0.9784 -0.4134 -1.5571
  300SOL     OW10617   3.476   3.036   1.321 -0.0458  0.2329  0.2605
  300SOL    HW110618   3.556   2.989   1.285 -0.5357 -1.6373  1.5765
  300SOL    HW210619   3.400   3.028   1.256 -0.0442 -0.5446  0.3574
  301SOL     OW10620   2.817   5.943   2.235 -0.2166 -0.0509 -0.2691
  301SOL    HW110621   2.752   6.018   2.224  0.7861  0.5472 -2.5138
  301SOL    HW210622   2.909   5.975   2.211  0.1059 -2.1455 -1.9678
  302SOL     OW10623   3.656   0.710   0.829  1.0313  0.5925 -0.5357
  302SOL    HW110624   3.621   0.792   0.782  0.8141  0.6734 -0.2366
  302SOL    HW210625   3.626   0.712   0.925  1.0134  0.1512 -0.5349
  303SOL     OW10626   2.569   9.456   0.326  0.1170  0.1339 -0.4832
  303SOL    HW110627   2.549   9.442   0.423 -0.0420 -0.7354 -0.6429
  303SOL    HW210628   2.503   9.521   0.288  2.2229  3.1218  0.7760
  304SOL     OW10629   1.913   5.787   0.462 -0.1822 -0.0205 -0.3038
  304SOL    HW110630   1.890   5.725   0.537 -1.1441  1.0026  0.2550
  304SOL    HW210631   1.989   5.748   0.409 -1.1715 -1.9631 -0.3347
  305SOL     OW10632   2.221   2.944   1.608  0.4313 -0.6176 -0.3748
  305SOL    HW110633   2.200   2.976   1.516  0.2650 -0.3688 -0.2482
  305SOL    HW210634   2.320   2.940   1.620  0.4944 -2.5756 -1.2509
  307SOL     OW10635   3.484   5.081   1.626  0.3143  0.3556  0.0194
  307SOL    HW110636   3.422   5.003   1.638 -1.3930  1.5935 -0.6132
  307SOL    HW210637   3.433   5.159   1.591  1.9795  1.8156  0.7678
  308SOL     OW10638   3.663   2.523   0.620 -0.3576  0.0057  0.4027
  308SOL    HW110639   3.759   2.547   0.606 -0.1675 -0.9351  0.0809
  308SOL    HW210640   3.607   2.605   0.614  0.2469  0.3175 -1.0276
  310SOL     OW10641   3.574   5.213   1.855  0.1780 -0.0525  0.1732
  310SOL    HW110642   3.552   5.184   1.762 -0.5216 -0.0761  0.3416
  310SOL    HW210643   3.660   5.264   1.855 -0.3049  0.7838 -0.6330
  311SOL     OW10644   2.204   3.529   1.130 -0.3826 -0.5732 -0.3124
  311SOL    HW110645   2.142   3.523   1.052 -0.8151  0.9530 -0.1017
  311SOL    HW210646   2.178   3.607   1.187  0.3580 -1.2616  0.9860
  312SOL     OW10647   3.661   8.104   1.679 -0.2935  0.2579  0.2846
  312SOL    HW110648   3.645   8.025   1.620  0.8241 -0.3316  0.7547
  312SOL    HW210649   3.695   8.180   1.624  0.2753 -0.1337  0.0892
  313SOL     OW10650   4.397   1.310   1.806 -0.1469  0.1231  0.1609
  313SOL    HW110651   4.351   1.398   1.804 -0.6719 -0.1663 -0.6681
  313SOL    HW210652   4.496   1.325   1.813 -0.1854  0.7940 -0.6036
  315SOL     OW10653   3.703   2.330   1.216  0.3667 -0.1750  0.3544
  315SOL    HW110654   3.678   2.326   1.313 -0.1504  0.8485  0.2689
  315SOL    HW210655   3.641   2.392   1.168  0.1163 -1.3047 -0.8003
  316SOL     OW10656   2.806   4.733   2.308 -0.1917  0.4809 -0.3886
  316SOL    HW110657   2.782   4.786   2.390  0.3502 -0.5459  0.4549
  316SOL    HW210658   2.893   4.766   2.272 -0.2408  0.6842 -0.3233
  317SOL     OW10659   5.050   1.644   0.714 -0.1781 -0.1181 -0.1686
  317SOL    HW110660   5.036   1.588   0.796  0.4556  1.4119  1.0155
  317SOL    HW210661   4.963   1.686   0.687 -0.2981 -0.2591 -0.0014
  318SOL     OW10662   2.902   2.698   2.058  0.2281 -0.5162 -0.1748
  318SOL    HW110663   2.806   2.678   2.036  0.3567  0.7328 -2.0284
  318SOL    HW210664   2.962   2.638   2.004  0.5162 -1.0967  0.7675
  319SOL     OW10665   2.910   8.750   1.203 -0.0857  0.4050  0.0366
  319SOL    HW110666   2.942   8.723   1.112  0.2218 -3.5643  1.2675
  319SOL    HW210667   2.833   8.693   1.231  0.1937  1.1654  2.5306
  320SOL     OW10668   3.521   3.654   1.232  0.3918 -0.0866  0.5752
  320SOL    HW110669   3.479   3.739   1.200  0.8760  0.4536  1.3742
  320SOL    HW210670   3.482   3.577   1.181  1.0207  0.7346 -1.1803
  321SOL     OW10671   3.089   3.021   2.225  0.3687  0.5495  0.2087
  321SOL    HW110672   3.178   2.993   2.260 -0.6935 -0.1071  2.5437
  321SOL    HW210673   3.074   2.981   2.135  1.7995 -0.6360  0.4816
  322SOL     OW10674   4.290   1.429   2.128  0.2366 -0.2468 -0.5523
  322SOL    HW110675   4.215   1.474   2.081 -0.9565 -1.6007  0.0381
  322SOL    HW210676   4.293   1.332   2.103  0.8829 -0.5196  0.5355
  323SOL     OW10677   2.091   9.651   2.253 -0.5487 -0.5819  0.6891
  323SOL    HW110678   2.014   9.714   2.260 -0.1851 -0.1051  0.4358
  323SOL    HW210679   2.172   9.693   2.293  0.2980  0.1044 -1.6841
  324SOL     OW10680   3.623   4.358   2.308  0.0730 -0.5322 -0.0929
  324SOL    HW110681   3.598   4.430   2.244 -0.6740 -2.6754 -2.2892
  324SOL    HW210682   3.606   4.388   2.402 -1.7221  1.5345 -1.0628
  326SOL     OW10683   3.249   2.951   1.097  0.0939 -0.0608 -0.4409
  326SOL    HW110684   3.215   2.858   1.104 -0.4346 -0.1203 -3.0742
  326SOL    HW210685   3.173   3.016   1.104  0.4833  0.1993  1.5825
  327SOL     OW10686   2.162   8.865   0.751 -0.0468  0.1480 -0.1792
  327SOL    HW110687   2.209   8.779   0.727  1.0338  1.0324 -1.3022
  327SOL    HW210688   2.217   8.942   0.720 -0.9301  1.2588  0.9988
  328SOL     OW10689   5.179   4.077   0.460 -0.1886 -0.0710  0.4095
  328SOL    HW110690   5.174   4.168   0.501  2.2282  0.6796 -0.8467
  328SOL    HW210691   5.232   4.017   0.520  0.9754  0.2578 -0.2811
  330SOL     OW10692   5.228   2.543   0.278 -0.0906  0.5662 -0.4538
  330SOL    HW110693   5.223   2.637   0.311  0.3029  0.1040  0.9675
  330SOL    HW210694   5.210   2.480   0.354 -0.9063 -0.4930 -1.5150
  332SOL     OW10695   3.254   8.809   1.561 -0.2480 -0.0388 -0.1998
  332SOL    HW110696   3.241   8.806   1.661 -0.0940  2.2350 -0.0686
  332SOL    HW210697   3.351   8.811   1.540 -0.2790  0.5001 -0.3196
  333SOL     OW10698   2.716   5.941   0.269 -0.4042  0.0399 -0.7198
  333SOL    HW110699   2.654   6.005   0.316  0.0001 -0.6010  0.7169
  333SOL    HW210700   2.705   5.951   0.170 -2.9860 -0.2296 -0.4919
  335SOL     OW10701   1.769   3.663   0.302  0.2282  0.0500  0.1161
  335SOL    HW110702   1.705   3.685   0.229  0.6710 -1.0614 -0.6317
  335SOL    HW210703   1.863   3.677   0.269  0.4623 -1.4929  0.1017
  336SOL     OW10704   1.885   9.027   2.237 -0.2643 -0.3011  0.2129
  336SOL    HW110705   1.899   9.003   2.333 -0.1138  0.0967  0.2927
  336SOL    HW210706   1.821   8.963   2.195  0.7395 -1.3313  0.2147
  337SOL     OW10707   3.575   3.301   1.320 -0.0247  0.7634  0.0181
  337SOL    HW110708   3.546   3.206   1.332 -0.4706  0.8853 -0.1052
  337SOL    HW210709   3.527   3.342   1.243  0.3519  1.0157 -0.0854
  339SOL     OW10710   3.335   3.551   0.363  0.2004  0.2476  0.3433
  339SOL    HW110711   3.267   3.595   0.305  1.0593  1.1467  0.0040
  339SOL    HW210712   3.401   3.501   0.306  0.9051  0.9336  0.5491
  340SOL     OW10713   2.056   1.665   0.384 -0.7587 -0.5812 -0.7901
  340SOL    HW110714   2.149   1.679   0.350 -0.2258 -2.1284  0.0100
  340SOL    HW210715   2.037   1.730   0.458  0.2051 -1.2294  0.0376
  342SOL     OW10716   2.860   8.179   1.171  0.2765  0.5200  0.2213
  342SOL    HW110717   2.927   8.106   1.179  0.9327  1.1698  0.7478
  342SOL    HW210718   2.867   8.222   1.081  0.4095  0.4409  0.1948
  343SOL     OW10719   2.426   0.545   2.025 -0.3234  0.2107 -0.3325
  343SOL    HW110720   2.356   0.491   2.072 -1.9315  0.0368 -2.8493
  343SOL    HW210721   2.513   0.496   2.028 -1.4622 -1.9890 -1.4759
  345SOL     OW10722   3.803   3.743   0.498 -0.0052  0.0807 -0.1868
  345SOL    HW110723   3.836   3.668   0.556  1.5169 -0.8143 -2.1444
  345SOL    HW210724   3.853   3.742   0.411 -2.9030  0.7546 -1.9369
  347SOL     OW10725   3.838   4.108   0.702  0.2927  0.1653 -0.1660
  347SOL    HW110726   3.817   4.203   0.726  3.6622  0.9375 -0.0288
  347SOL    HW210727   3.894   4.068   0.774  1.3508 -0.9826 -1.6108
  348SOL     OW10728   2.474   9.452   0.575  0.1748 -0.1260 -0.3182
  348SOL    HW110729   2.464   9.424   0.671  1.0142 -0.2180 -0.2548
  348SOL    HW210730   2.384   9.474   0.538  0.0091  1.4788  0.9752
  352SOL     OW10731   3.329   2.947   2.312  0.0757 -0.3777  0.2542
  352SOL    HW110732   3.374   2.936   2.401 -0.1762 -0.1189  0.4169
  352SOL    HW210733   3.395   2.975   2.243 -0.1865  1.9255  0.9072
  353SOL     OW10734   4.428   2.957   1.559  0.0012  0.0794 -0.0271
  353SOL    HW110735   4.502   2.906   1.602  0.5454  0.0786 -0.9510
  353SOL    HW210736   4.369   2.997   1.630  0.6165 -0.3059  0.7057
  354SOL     OW10737   4.089   0.915   1.938 -0.0402 -0.5547 -0.6167
  354SOL    HW110738   4.165   0.864   1.897  0.3732  1.4726 -2.4945
  354SOL    HW210739   4.018   0.930   1.869 -0.5435  0.6122  0.1389
  355SOL     OW10740   2.093   0.294   1.750  0.1249  0.0053 -0.5822
  355SOL    HW110741   2.103   0.260   1.657 -0.3985 -0.7353 -0.3807
  355SOL    HW210742   2.162   0.252   1.809  0.7863  0.8746 -0.7427
  356SOL     OW10743   3.619   3.422   0.592  0.1687  0.1170 -0.0810
  356SOL    HW110744   3.715   3.443   0.575  0.0278 -0.4311 -1.6407
  356SOL    HW210745   3.589   3.351   0.529 -0.5986 -1.4957  2.0167
  357SOL     OW10746   2.023   2.761   0.625 -0.2042 -0.3849  0.5995
  357SOL    HW110747   2.039   2.812   0.541  3.2056 -1.3251  0.5725
  357SOL    HW210748   2.039   2.820   0.704  0.3516 -0.4682  0.5561
  358SOL     OW10749   2.993   2.701   0.831 -0.2616 -0.0020 -0.6364
  358SOL    HW110750   3.036   2.619   0.794  1.2509  0.3560  0.2584
  358SOL    HW210751   2.905   2.677   0.871  0.7241 -1.4611  0.7585
  359SOL     OW10752   3.313   3.320   0.522  0.0447  0.2297  1.0127
  359SOL    HW110753   3.292   3.344   0.617 -0.4648 -0.1950  1.0082
  359SOL    HW210754   3.288   3.396   0.462 -2.4153 -0.6271  0.8961
  360SOL     OW10755   2.829   4.732   0.710 -0.1314  0.7815 -0.7074
  360SOL    HW110756   2.775   4.816   0.721 -0.4971  0.6141 -1.2260
  360SOL    HW210757   2.868   4.706   0.799 -0.6339  1.0837 -0.3922
  361SOL     OW10758   3.049   7.575   2.078  0.1098  0.2145  0.4212
  361SOL    HW110759   3.041   7.662   2.028 -0.1413  0.2103  0.4527
  361SOL    HW210760   3.127   7.579   2.140  0.7188  0.0482 -0.3227
  363SOL     OW10761   3.356   1.101   0.363 -0.0688 -0.1670  0.0131
  363SOL    HW110762   3.394   1.013   0.336 -1.1287 -0.3184 -0.9899
  363SOL    HW210763   3.256   1.096   0.367 -0.1917  1.1798 -0.8072
  364SOL     OW10764   2.943   8.895   1.739 -0.6501 -0.2994 -0.1788
  364SOL    HW110765   3.040   8.883   1.757 -0.5287  0.7006 -0.1439
  364SOL    HW210766   2.930   8.938   1.650 -0.9909  1.1872  0.5771
  365SOL     OW10767   2.889   7.633   1.337  0.1310  0.1637  0.0276
  365SOL    HW110768   2.874   7.664   1.431  1.4809 -0.2417  0.3824
  365SOL    HW210769   2.965   7.684   1.296  0.7494 -0.9373 -0.2182
  366SOL     OW10770   3.995   9.576   0.403  0.2303 -0.2894 -0.2510
  366SOL    HW110771   4.018   9.662   0.449 -0.6145  0.4259 -1.1429
  366SOL    HW210772   4.009   9.500   0.466 -0.2106  0.6217  0.9677
  367SOL     OW10773   5.130   3.748   1.455 -0.3390  0.6821  0.3457
  367SOL    HW110774   5.076   3.748   1.371 -1.5221  1.6735  1.0843
  367SOL    HW210775   5.072   3.776   1.532  1.0843  1.1887  1.2581
  369SOL     OW10776   4.929   2.957   1.120 -0.5520 -0.0697  0.2849
  369SOL    HW110777   5.018   2.976   1.162 -0.3457 -0.8010  0.1987
  369SOL    HW210778   4.916   2.858   1.113 -0.3318  0.0085 -1.8552
  370SOL     OW10779   2.754   2.517   0.832 -0.1384  0.1267 -0.0808
  370SOL    HW110780   2.753   2.554   0.925  0.9953  0.2989 -0.1270
  370SOL    HW210781   2.666   2.472   0.813  0.9303 -3.2616  2.4226
  371SOL     OW10782   2.193   9.054   0.359 -0.1221 -0.5087 -0.0694
  371SOL    HW110783   2.166   9.004   0.276 -1.0289  0.2880 -0.2629
  371SOL    HW210784   2.253   8.996   0.414 -0.5602 -1.5382 -0.6496
  372SOL     OW10785   2.806   3.479   1.795 -0.0350 -0.0367 -0.2225
  372SOL    HW110786   2.835   3.545   1.726 -0.2909 -1.7919 -2.0791
  372SOL    HW210787   2.706   3.473   1.796 -0.0346  0.0602  0.3616
  373SOL     OW10788   3.765   3.986   2.071 -0.1110  0.6215 -0.3002
  373SOL    HW110789   3.815   4.061   2.114  0.9849  1.8574 -3.5713
  373SOL    HW210790   3.673   4.019   2.045 -0.0835  0.4653 -0.5964
  375SOL     OW10791   3.707   1.990   0.304 -0.0113  0.8939  0.0370
  375SOL    HW110792   3.737   2.031   0.390  1.8438 -0.5651  0.1366
  375SOL    HW210793   3.619   1.945   0.318 -0.3054  1.7049  0.8566
  376SOL     OW10794   3.021   0.955   0.778 -0.1326 -0.3802  0.1763
  376SOL    HW110795   3.004   0.857   0.779  1.0211 -0.5873  3.1092
  376SOL    HW210796   2.946   1.003   0.823 -1.3987  0.2693 -2.4929
  377SOL     OW10797   4.447   4.521   1.116  0.1535 -0.0910 -0.0256
  377SOL    HW110798   4.384   4.460   1.165  0.3201 -1.1579 -1.1084
  377SOL    HW210799   4.499   4.468   1.049  0.6992  1.1577 -0.6035
  379SOL     OW10800   2.868   9.384   0.739 -0.4309  0.5158  0.1806
  379SOL    HW110801   2.877   9.309   0.803 -0.8463 -0.0454 -0.4130
  379SOL    HW210802   2.799   9.448   0.772 -0.5001  0.3334  0.3872
  380SOL     OW10803   3.951   2.499   0.687  0.7135  0.1502 -0.1538
  380SOL    HW110804   3.918   2.483   0.781 -0.5565  0.5100 -0.5305
  380SOL    HW210805   4.032   2.557   0.690 -0.1453  1.3387  0.6507
  381SOL     OW10806   2.015   1.503   0.929 -0.1882 -0.5763  0.4481
  381SOL    HW110807   2.020   1.580   0.992  0.1366 -1.2450  1.2519
  381SOL    HW210808   1.960   1.430   0.970  0.5624 -1.2709  0.2477
  382SOL     OW10809   2.779   7.531   2.134  0.7857  0.1842 -0.1417
  382SOL    HW110810   2.866   7.492   2.106  1.2427  0.6164  0.6573
  382SOL    HW210811   2.781   7.630   2.119  0.6042  0.2556  0.3009
  383SOL     OW10812   2.007   9.254   0.344  0.2267  0.0637 -0.1540
  383SOL    HW110813   1.943   9.230   0.271  0.8201  1.6644 -1.2402
  383SOL    HW210814   2.074   9.181   0.356 -1.2795 -1.2572  0.4298
  384SOL     OW10815   4.118   0.182   0.684 -0.2131  0.1427  0.3644
  384SOL    HW110816   4.116   0.118   0.761  1.7536  0.3726  0.6303
  384SOL    HW210817   4.175   0.261   0.707  0.2896  0.2771 -1.2503
  385SOL     OW10818   3.516   1.818   0.406 -0.6929 -0.8917 -0.0371
  385SOL    HW110819   3.491   1.889   0.473 -0.6818  0.0203 -0.9814
  385SOL    HW210820   3.550   1.737   0.454  1.7738  0.6969  1.0109
  387SOL     OW10821   2.561   7.374   2.017 -0.3444 -0.4102 -0.4176
  387SOL    HW110822   2.507   7.321   2.082  0.5689 -2.4055 -1.2274
  387SOL    HW210823   2.636   7.419   2.065 -0.6136 -0.5813  0.1636
  388SOL     OW10824   3.747   2.973   0.279  0.0428 -0.0089  0.3387
  388SOL    HW110825   3.805   3.054   0.288  1.1822 -0.6721 -0.9010
  388SOL    HW210826   3.680   2.988   0.207  1.8754 -1.0821 -1.6469
  389SOL     OW10827   4.274   2.691   1.936 -0.1605 -0.1824  0.6974
  389SOL    HW110828   4.230   2.761   1.994 -0.9653  0.8833 -1.1536
  389SOL    HW210829   4.222   2.606   1.941 -0.1875 -0.1171  1.5946
  390SOL     OW10830   2.029   2.266   0.876  0.2553  0.3764  0.1928
  390SOL    HW110831   2.009   2.265   0.974 -1.4234  0.0803 -0.1484
  390SOL    HW210832   2.064   2.356   0.850  1.2589  0.2820  1.1534
  391SOL     OW10833   3.127   8.679   0.546  1.0827 -0.0251 -0.5926
  391SOL    HW110834   3.151   8.736   0.468 -0.6799  0.3956 -0.8472
  391SOL    HW210835   3.081   8.596   0.514  0.7104 -0.0384 -0.0364
  392SOL     OW10836   4.364   3.915   2.189 -0.5849 -0.0900  0.1761
  392SOL    HW110837   4.362   4.005   2.231 -1.6274 -0.2262  0.4451
  392SOL    HW210838   4.305   3.853   2.241 -0.6378 -0.6676 -0.5644
  395SOL     OW10839   1.896   3.208   1.707  0.2010 -0.2931  0.6598
  395SOL    HW110840   1.955   3.286   1.686 -0.1409 -0.2087  0.0138
  395SOL    HW210841   1.943   3.148   1.772  0.2209  0.7524  1.6241
  396SOL     OW10842   3.583   3.439   2.017 -0.8176 -0.3220 -0.1663
  396SOL    HW110843   3.650   3.408   2.084 -0.2833  0.6450 -0.2468
  396SOL    HW210844   3.541   3.359   1.972 -1.4579 -0.9917  1.5667
  398SOL     OW10845   2.991   3.668   0.556  0.3562  0.4482  0.4426
  398SOL    HW110846   3.007   3.674   0.457  1.3713 -0.0898  0.5605
  398SOL    HW210847   2.917   3.729   0.582  0.6567  1.2392 -0.5275
  399SOL     OW10848   4.638   2.046   2.282 -0.0972 -0.3860 -0.0024
  399SOL    HW110849   4.591   2.054   2.370  0.3941 -0.6558  0.2893
  399SOL    HW210850   4.632   1.952   2.249 -3.3161  0.4518 -1.9835
  400SOL     OW10851   3.058   7.612   0.937 -0.5722 -0.1121 -0.8049
  400SOL    HW110852   3.150   7.577   0.953 -1.2993 -0.9960  1.5247
  400SOL    HW210853   3.001   7.539   0.898 -1.4206 -0.8872  1.7749
  401SOL     OW10854   2.337   5.740   0.386  0.0699 -0.7459  0.3407
  401SOL    HW110855   2.372   5.775   0.473 -0.0961 -2.5319  1.1603
  401SOL    HW210856   2.253   5.689   0.402 -0.6550 -0.0109 -1.0599
  402SOL     OW10857   2.578   8.280   0.457 -0.3116 -0.1826  0.2518
  402SOL    HW110858   2.488   8.300   0.495 -0.3731  1.0005 -0.5009
  402SOL    HW210859   2.639   8.357   0.475  0.3913 -0.7392  0.2611
  403SOL     OW10860   3.475   0.536   1.771 -0.0067  0.5216 -0.3739
  403SOL    HW110861   3.469   0.442   1.805  1.1365  0.8500  0.7852
  403SOL    HW210862   3.458   0.537   1.672  0.6859 -1.0046 -0.5278
  404SOL     OW10863   3.168   5.170   2.146  0.1686 -0.0013 -0.3572
  404SOL    HW110864   3.095   5.238   2.140 -0.9896 -1.0669  1.2513
  404SOL    HW210865   3.253   5.209   2.110 -1.2670  1.0967 -2.7114
  407SOL     OW10866   2.784   3.417   0.967  0.0679  0.1316 -0.4183
  407SOL    HW110867   2.856   3.422   0.898 -0.3234  1.9248 -0.7187
  407SOL    HW210868   2.699   3.452   0.929 -0.6328 -0.6881  0.3721
  409SOL     OW10869   2.150   7.141   2.222 -0.9204  0.3117 -0.3220
  409SOL    HW110870   2.162   7.055   2.172 -1.8250  0.9047 -1.5864
  409SOL    HW210871   2.094   7.124   2.303  0.7419 -0.6994  0.6507
  410SOL     OW10872   2.826   9.484   0.455 -0.1657 -0.2368  0.3162
  410SOL    HW110873   2.746   9.457   0.401 -0.3815  1.2097 -0.1144
  410SOL    HW210874   2.811   9.461   0.551 -1.3668  0.5746  0.3351
  411SOL     OW10875   2.480   7.913   2.183  0.4459  0.4227 -0.8732
  411SOL    HW110876   2.522   8.002   2.167  0.9939  0.0973 -1.2774
  411SOL    HW210877   2.546   7.841   2.160  0.0392 -0.0821 -0.4588
  413SOL     OW10878   2.409   0.111   1.508 -0.4166 -0.1780 -0.4102
  413SOL    HW110879   2.421   0.048   1.431  0.1271  1.8525 -2.0179
  413SOL    HW210880   2.314   0.140   1.514 -0.1732  0.7947 -1.2215
  414SOL     OW10881   4.113   1.740   0.416 -0.1321  0.7454  0.1552
  414SOL    HW110882   4.046   1.750   0.489  0.3849  1.0874  0.5824
  414SOL    HW210883   4.172   1.661   0.436 -1.5171 -0.6314 -1.0943
  415SOL     OW10884   2.258   5.527   2.130 -1.2390 -0.0851  0.7441
  415SOL    HW110885   2.307   5.559   2.048 -1.0274 -1.6416  0.2393
  415SOL    HW210886   2.184   5.590   2.151  0.0996  1.5497  0.6752
  416SOL     OW10887   4.668   1.420   0.387  0.0953 -0.2335 -0.0998
  416SOL    HW110888   4.590   1.430   0.326  0.8694  2.4303 -0.7180
  416SOL    HW210889   4.750   1.399   0.333  0.5731  1.0372  0.1232
  417SOL     OW10890   4.392   4.452   0.585  0.0209 -0.1093 -0.3487
  417SOL    HW110891   4.337   4.521   0.540 -0.7582 -0.4897  0.0138
  417SOL    HW210892   4.448   4.404   0.517 -1.1590 -0.6921 -0.9237
  418SOL     OW10893   3.219   3.305   1.588  0.0038  0.1478  0.1076
  418SOL    HW110894   3.147   3.341   1.529  0.8970 -1.6349 -2.1158
  418SOL    HW210895   3.177   3.263   1.669 -1.6851 -2.9666 -2.2738
  419SOL     OW10896   3.825   0.497   1.999  0.0810  0.2073  0.1113
  419SOL    HW110897   3.884   0.577   2.011  0.3198  0.1389 -0.5715
  419SOL    HW210898   3.799   0.461   2.089 -0.2729  1.2272  0.4284
  420SOL     OW10899   2.614   9.020   2.089 -0.1062 -0.1163 -0.4464
  420SOL    HW110900   2.665   8.967   2.157 -0.8588  0.3411  0.5012
  420SOL    HW210901   2.586   9.107   2.130  0.8325  0.8740 -1.8762
  421SOL     OW10902   2.568   2.888   2.232  0.2884  0.1244 -0.1922
  421SOL    HW110903   2.576   2.790   2.246  0.3617  0.1786  0.1579
  421SOL    HW210904   2.569   2.935   2.321  0.1449  0.4323 -0.3489
  422SOL     OW10905   2.098   5.738   2.185  0.2494  0.2195 -0.4150
  422SOL    HW110906   2.081   5.780   2.274 -3.7113 -0.2508 -0.8866
  422SOL    HW210907   2.109   5.810   2.117 -0.0151  0.5496 -0.1131
  424SOL     OW10908   5.150   3.419   0.996 -0.4247 -0.1251  0.2963
  424SOL    HW110909   5.224   3.485   1.013 -0.7752  0.0708  1.0604
  424SOL    HW210910   5.152   3.348   1.067 -2.0850  0.8699  1.3510
  425SOL     OW10911   2.195   0.204   1.041 -0.2319 -0.1052  0.4438
  425SOL    HW110912   2.202   0.299   1.009 -0.7400  0.0570  0.8170
  425SOL    HW210913   2.247   0.145   0.979  0.8462  0.5333  0.7297
  426SOL     OW10914   2.128   8.808   1.230 -0.0790 -0.1833  0.2304
  426SOL    HW110915   2.098   8.877   1.296  1.1777  0.2330  0.3714
  426SOL    HW210916   2.189   8.743   1.274 -0.3174 -0.6991 -0.1928
  427SOL     OW10917   2.474   8.559   1.683 -0.2988  0.1096 -0.2830
  427SOL    HW110918   2.465   8.460   1.670  0.2217 -0.2584  2.0043
  427SOL    HW210919   2.552   8.592   1.630 -0.7526 -0.6111 -1.4280
  428SOL     OW10920   5.242   4.190   0.719 -0.0088 -0.7231  0.0941
  428SOL    HW110921   5.287   4.270   0.678 -1.3975 -0.0655 -0.1513
  428SOL    HW210922   5.162   4.219   0.770 -0.1636 -1.9042  0.5295
  429SOL     OW10923   4.800   3.663   1.302 -0.5668 -0.2376  0.6316
  429SOL    HW110924   4.853   3.579   1.289 -0.3270 -0.1244  0.8860
  429SOL    HW210925   4.736   3.650   1.378  1.2228  0.6646  2.3308
  430SOL     OW10926   4.064   2.104   0.473 -0.0970  0.0833 -0.0174
  430SOL    HW110927   4.043   2.201   0.462  0.9372  0.5448  1.8886
  430SOL    HW210928   3.979   2.052   0.478 -0.6954  1.1967  1.5108
  431SOL     OW10929   2.653   9.920   2.207 -0.7294 -0.1730 -0.1765
  431SOL    HW110930   2.612   9.994   2.153  0.4347  0.5849 -0.0286
  431SOL    HW210931   2.639   9.833   2.160 -1.6999  0.1871 -0.5809
  432SOL     OW10932   3.679   0.680   2.140  0.2047  0.0112 -0.2389
  432SOL    HW110933   3.615   0.732   2.084 -0.5061 -0.2395  0.3441
  432SOL    HW210934   3.731   0.617   2.082 -0.3518 -0.0693 -0.6511
  433SOL     OW10935   3.769   1.147   1.403 -0.1387  0.6610 -0.2148
  433SOL    HW110936   3.834   1.198   1.458 -0.2954  1.6558 -0.9353
  433SOL    HW210937   3.765   1.186   1.311 -0.6025 -0.3633 -0.6457
  434SOL     OW10938   4.114   3.442   1.910 -0.4421 -0.3021 -0.3871
  434SOL    HW110939   4.173   3.519   1.885  1.6275 -1.3760  1.0002
  434SOL    HW210940   4.076   3.457   2.001  0.4016 -1.1384  0.1179
  436SOL     OW10941   4.109   9.091   1.227 -0.1282  0.1827 -0.3815
  436SOL    HW110942   4.094   9.187   1.201 -0.6746  0.4856  1.0141
  436SOL    HW210943   4.183   9.053   1.172  0.8453  1.7378 -0.1796
  437SOL     OW10944   4.007   9.531   0.814  0.1117 -0.5089  0.2875
  437SOL    HW110945   3.991   9.623   0.778 -0.1288  0.6203  3.1088
  437SOL    HW210946   4.025   9.468   0.739 -0.8062  1.6186 -1.7748
  438SOL     OW10947   1.905   2.220   1.111 -0.1013  0.3260  0.2180
  438SOL    HW110948   1.838   2.149   1.094 -0.0125  0.0126  1.1079
  438SOL    HW210949   1.905   2.243   1.209  0.1785  1.2322  0.0132
  439SOL     OW10950   2.525   2.410   0.756 -0.5113  0.4177  0.3775
  439SOL    HW110951   2.509   2.358   0.672  0.5546  0.3828  0.1919
  439SOL    HW210952   2.441   2.458   0.781 -1.0583 -0.1662 -0.2944
  440SOL     OW10953   3.425   4.770   0.845 -0.0321  0.1313 -0.7492
  440SOL    HW110954   3.514   4.801   0.812  0.8790 -3.8923 -2.4184
  440SOL    HW210955   3.355   4.837   0.821  1.8766  1.2301 -3.5291
  441SOL     OW10956   2.654   0.251   1.523  0.0029 -0.3874 -0.2383
  441SOL    HW110957   2.690   0.189   1.454  2.7326  0.9818 -0.0944
  441SOL    HW210958   2.555   0.238   1.531 -0.0151 -2.1054 -2.7986
  446SOL     OW10959   3.508   0.303   0.725 -0.2559  0.1541  0.6007
  446SOL    HW110960   3.595   0.255   0.737 -0.5945 -0.5892  0.0919
  446SOL    HW210961   3.495   0.324   0.628 -0.2749  0.9771  0.7743
  447SOL     OW10962   1.896   9.415   1.997  0.2778  0.1866 -0.3148
  447SOL    HW110963   1.988   9.449   2.014  0.8236  0.2225 -3.1070
  447SOL    HW210964   1.829   9.479   2.035  1.3675  0.7354  0.7111
  448SOL     OW10965   2.447   0.809   0.450  0.2894 -0.0167 -0.3141
  448SOL    HW110966   2.528   0.866   0.437  2.3922 -3.0319 -0.8749
  448SOL    HW210967   2.372   0.846   0.396  2.2738  0.8610 -2.5499
  449SOL     OW10968   4.370   3.273   0.991  0.0526  0.0628  0.6368
  449SOL    HW110969   4.396   3.186   1.034  1.2753 -0.7585 -1.6624
  449SOL    HW210970   4.452   3.319   0.956 -0.9191  0.5061 -1.1343
  450SOL     OW10971   4.171   4.642   1.037 -0.0132 -0.7138  0.5004
  450SOL    HW110972   4.204   4.575   0.971 -1.2987  0.3723 -1.3295
  450SOL    HW210973   4.247   4.697   1.070  0.4266 -0.1022 -1.4713
  451SOL     OW10974   2.869   9.740   2.055 -0.3010  0.3336 -0.6906
  451SOL    HW110975   2.908   9.668   2.113 -1.2064  1.3454  1.2231
  451SOL    HW210976   2.795   9.701   1.999 -0.0272 -0.4567 -0.5066
  452SOL     OW10977   3.455   4.194   1.708  0.0537  0.5296  0.6214
  452SOL    HW110978   3.418   4.285   1.728  1.2838  1.2023 -0.1174
  452SOL    HW210979   3.539   4.203   1.656 -0.5695 -1.0737 -0.7174
  454SOL     OW10980   3.602   1.894   1.974 -0.3404  0.2609 -0.3838
  454SOL    HW110981   3.539   1.862   2.044 -1.4065  0.7920 -1.0836
  454SOL    HW210982   3.588   1.992   1.959 -0.8837 -0.0600 -2.0999
  455SOL     OW10983   4.312   4.898   0.916 -0.4154 -0.5775 -0.1595
  455SOL    HW110984   4.338   4.861   1.005  1.4217  0.6672 -0.1578
  455SOL    HW210985   4.272   4.989   0.927  0.2909 -0.2045 -0.6450
  457SOL     OW10986   3.742   1.205   1.141  0.3036 -0.0250  0.3638
  457SOL    HW110987   3.726   1.118   1.096  0.9141  1.1944 -2.3031
  457SOL    HW210988   3.827   1.246   1.106  0.2857  1.4093  1.9234
  459SOL     OW10989   2.247   3.871   1.756 -0.5038 -0.2817  0.5960
  459SOL    HW110990   2.230   3.888   1.659 -0.7330  0.9311  0.8404
  459SOL    HW210991   2.245   3.958   1.806  3.1058 -0.4331  1.1554
  460SOL     OW10992   4.012   0.499   1.208 -0.1532 -0.1097  0.1016
  460SOL    HW110993   4.049   0.472   1.119  0.7857  1.0494  0.1318
  460SOL    HW210994   3.912   0.492   1.206 -0.2878  1.9374 -1.7350
  461SOL     OW10995   3.165   1.995   1.136  0.1180 -0.4542 -0.3501
  461SOL    HW110996   3.256   1.986   1.094 -0.1688  0.5989 -1.2262
  461SOL    HW210997   3.096   1.964   1.071 -0.1959 -0.6845  0.0918
  462SOL     OW10998   4.284   2.806   1.388 -0.0504  0.4708  0.0980
  462SOL    HW110999   4.302   2.876   1.458 -0.1397  1.0234 -0.4286
  462SOL    HW211000   4.216   2.841   1.323 -1.5523 -0.8331  0.9328
  463SOL     OW11001   2.790   8.922   0.907 -0.3720  0.1137 -0.1970
  463SOL    HW111002   2.815   8.838   0.858  1.1695 -1.2818  2.8595
  463SOL    HW211003   2.695   8.915   0.938  0.2299 -1.2305  1.4112
  464SOL     OW11004   2.556   4.222   1.170  0.4582 -0.1006  0.6791
  464SOL    HW111005   2.622   4.275   1.117  0.3801 -0.9839 -0.3268
  464SOL    HW211006   2.483   4.282   1.201  1.0313  0.6243  0.6347
  465SOL     OW11007   4.310   1.964   0.491 -0.1467 -0.3626  0.1500
  465SOL    HW111008   4.221   2.008   0.504  0.5877  0.8145  1.3590
  465SOL    HW211009   4.306   1.903   0.412 -1.6754  0.6081 -0.5483
  466SOL     OW11010   2.243   6.870   0.834  0.0778 -0.1063  0.8022
  466SOL    HW111011   2.166   6.931   0.856  1.0983  1.1889  0.8114
  466SOL    HW211012   2.218   6.776   0.857 -1.4914  0.3105  0.8563
  467SOL     OW11013   3.635   8.376   1.804 -0.2357 -0.5828 -0.1798
  467SOL    HW111014   3.569   8.421   1.744 -1.1377 -0.1938  1.0924
  467SOL    HW211015   3.677   8.299   1.756 -1.1729 -0.4737 -1.1878
  468SOL     OW11016   3.261   2.670   1.075  0.7032  0.2152  0.5649
  468SOL    HW111017   3.326   2.645   1.003 -1.2222  0.9119 -1.4652
  468SOL    HW211018   3.174   2.624   1.059  0.3039  0.1984  2.6029
  469SOL     OW11019   2.296   8.184   1.837 -0.6022 -0.2553  0.7963
  469SOL    HW111020   2.325   8.233   1.919  0.1197 -1.0848  1.0358
  469SOL    HW211021   2.211   8.135   1.855  0.2814 -1.5733  1.4804
  471SOL     OW11022   2.295   6.831   0.275  0.5165 -0.3911  0.5589
  471SOL    HW111023   2.258   6.741   0.253  2.3889 -0.6608 -1.6979
  471SOL    HW211024   2.341   6.829   0.363 -0.5101 -1.3147  1.0780
  473SOL     OW11025   2.743   1.302   0.634  0.6255  0.0483 -0.1557
  473SOL    HW111026   2.791   1.310   0.547  1.4790  1.3181  0.4119
  473SOL    HW211027   2.716   1.393   0.665 -1.6712 -0.5899 -0.1813
  474SOL     OW11028   1.676   1.290   0.378  0.1750 -0.3744 -0.5779
  474SOL    HW111029   1.577   1.290   0.391  0.0885  0.7590 -1.1472
  474SOL    HW211030   1.707   1.200   0.348 -0.8551 -0.3624 -1.6674
  475SOL     OW11031   3.487   8.172   1.956  0.3017 -0.4195 -0.2001
  475SOL    HW111032   3.484   8.267   1.924  0.7430 -0.7799 -1.3498
  475SOL    HW211033   3.545   8.118   1.895 -2.5812 -2.1584 -1.5704
  477SOL     OW11034   2.755   1.889   0.911 -0.0586  0.0860  0.3771
  477SOL    HW111035   2.673   1.834   0.893 -0.4781  0.1980  1.8726
  477SOL    HW211036   2.750   1.975   0.860  0.7962 -1.3940 -2.3269
  478SOL     OW11037   3.164   1.895   2.095 -0.4455 -0.7005 -0.5111
  478SOL    HW111038   3.238   1.923   2.156 -1.5279  3.3357 -0.9268
  478SOL    HW211039   3.082   1.877   2.150  0.1510 -2.8747 -0.2806
  479SOL     OW11040   3.204   2.053   0.753 -0.7292 -0.2782 -0.3939
  479SOL    HW111041   3.144   1.996   0.808 -0.8114  0.6227  0.4683
  479SOL    HW211042   3.154   2.086   0.673 -1.1303 -0.2032 -0.1128
  480SOL     OW11043   2.345   7.502   2.189  0.3849  0.2326  0.4263
  480SOL    HW111044   2.361   7.420   2.245  2.7890 -0.5635 -1.3360
  480SOL    HW211045   2.382   7.582   2.235  0.4404 -0.0882  0.9377
  481SOL     OW11046   3.860   1.565   2.163 -0.1529 -0.2255 -0.3315
  481SOL    HW111047   3.885   1.468   2.170 -0.0786 -0.3367 -1.8003
  481SOL    HW211048   3.786   1.575   2.096 -0.6743  0.6553  0.3648
  482SOL     OW11049   2.524   3.207   1.540  0.1478 -0.3580 -0.2927
  482SOL    HW111050   2.518   3.217   1.639 -0.1970 -1.3169 -0.2093
  482SOL    HW211051   2.511   3.111   1.516  1.4881 -0.3311 -1.1753
  483SOL     OW11052   3.971   3.159   2.249  0.1786  0.4403  0.3533
  483SOL    HW111053   3.921   3.074   2.230 -2.3101  1.9468  0.0017
  483SOL    HW211054   4.059   3.157   2.202  0.9002 -2.6586  1.7066
  484SOL     OW11055   2.542   1.556   0.272  0.2976  0.8336  0.1187
  484SOL    HW111056   2.552   1.565   0.173 -0.7311 -0.2838 -0.0966
  484SOL    HW211057   2.561   1.461   0.299  1.6906  1.3798  1.1391
  486SOL     OW11058   2.145   9.034   2.083  0.0399  0.5192 -0.2591
  486SOL    HW111059   2.091   9.003   2.162 -0.1156  1.2394 -0.0794
  486SOL    HW211060   2.216   8.967   2.064  1.6307  1.4910  2.0055
  487SOL     OW11061   3.208   3.602   1.166  0.2584  0.4395  0.1994
  487SOL    HW111062   3.186   3.610   1.263  0.3766  0.7900  0.1951
  487SOL    HW211063   3.145   3.658   1.112  0.8098  1.0093  0.1466
  488SOL     OW11064   3.200   9.123   2.325 -0.1705 -0.5495  0.1005
  488SOL    HW111065   3.236   9.040   2.281  1.2149  0.5182 -0.8228
  488SOL    HW211066   3.261   9.151   2.399 -0.7771 -0.4896  0.5826
  489SOL     OW11067   3.168   2.440   0.434  0.6480 -0.0381 -0.0006
  489SOL    HW111068   3.224   2.520   0.457  0.1755  0.0658  0.7839
  489SOL    HW211069   3.226   2.359   0.431  0.5947 -0.1896  2.3565
  490SOL     OW11070   3.021   9.234   1.790 -0.3455 -0.1979 -0.5121
  490SOL    HW111071   2.972   9.150   1.809  1.5252 -1.1315  0.3238
  490SOL    HW211072   2.978   9.282   1.713 -2.1063 -1.3206 -0.2380
  491SOL     OW11073   4.107   4.170   2.029  0.4023  0.1281  0.1216
  491SOL    HW111074   4.162   4.249   2.005  1.1003 -0.3468  0.1587
  491SOL    HW211075   4.143   4.088   1.984 -0.0937 -0.2353  0.3692
  492SOL     OW11076   4.089   1.100   1.418  0.1880 -0.1285  0.1162
  492SOL    HW111077   4.028   1.166   1.462  3.1774  2.7325  0.0821
  492SOL    HW211078   4.108   1.025   1.482 -2.0317 -0.2579  0.6852
  494SOL     OW11079   2.399   2.207   2.238  0.3960 -0.8540  0.5074
  494SOL    HW111080   2.411   2.132   2.172 -1.1527 -0.1619 -0.5966
  494SOL    HW211081   2.311   2.197   2.283 -0.5871  1.2592 -0.9107
  495SOL     OW11082   3.764   2.320   1.742 -0.4828  0.9519  0.1794
  495SOL    HW111083   3.788   2.336   1.838 -1.3973 -0.5241  0.6697
  495SOL    HW211084   3.837   2.268   1.698 -1.3369 -0.8108  0.8312
  496SOL     OW11085   2.870   9.682   1.320 -0.3597  0.3682 -0.3998
  496SOL    HW111086   2.803   9.608   1.311  0.3458 -0.2890 -0.2334
  496SOL    HW211087   2.857   9.727   1.409 -0.1524 -0.1795 -0.0930
  497SOL     OW11088   4.286   3.447   1.165 -0.0416 -0.8716  0.3926
  497SOL    HW111089   4.320   3.411   1.252  0.4277  0.2369  0.6773
  497SOL    HW211090   4.314   3.387   1.090  0.6981 -1.1082  0.8615
  498SOL     OW11091   3.683   5.310   0.898  0.2416  0.4679 -0.1943
  498SOL    HW111092   3.639   5.283   0.811  0.3256 -0.9438  0.1793
  498SOL    HW211093   3.682   5.231   0.960 -0.8042  1.7874  1.4912
  499SOL     OW11094   1.785   9.854   0.623 -0.0470 -0.0205  0.3393
  499SOL    HW111095   1.771   9.911   0.705  0.6579  2.0449 -0.9290
  499SOL    HW211096   1.847   9.901   0.561 -1.4285 -1.0563 -1.8744
  500SOL     OW11097   2.417   7.239   2.235  0.7253 -0.1137 -0.1172
  500SOL    HW111098   2.471   7.167   2.279  1.5505 -0.5163 -1.7506
  500SOL    HW211099   2.320   7.217   2.242  0.8762 -0.4537  0.9984
  502SOL     OW11100   3.440   4.882   1.340  0.6947  0.2422 -0.5515
  502SOL    HW111101   3.355   4.851   1.297  0.3897 -0.2903  0.4209
  502SOL    HW211102   3.518   4.852   1.285  0.3298 -0.8912 -0.4608
  504SOL     OW11103   3.599   2.209   1.443 -0.4007 -0.3429 -0.1320
  504SOL    HW111104   3.579   2.122   1.397 -0.0590 -0.1087 -0.7343
  504SOL    HW211105   3.606   2.194   1.541  2.7109 -1.5617 -0.5005
  505SOL     OW11106   2.816   0.381   2.296  0.0074 -0.3059 -0.4639
  505SOL    HW111107   2.873   0.299   2.308  1.2293  0.4945 -0.6928
  505SOL    HW211108   2.841   0.449   2.365  0.5280  0.7040 -1.6321
  506SOL     OW11109   1.846   6.675   1.550  0.5375  0.0039  0.3734
  506SOL    HW111110   1.882   6.640   1.637  0.8755 -2.3681 -0.6719
  506SOL    HW211111   1.873   6.770   1.538  1.1355  0.1231  2.5027
  507SOL     OW11112   4.673   3.427   1.385 -0.5762 -0.1866 -0.1349
  507SOL    HW111113   4.583   3.384   1.376 -0.2224 -1.2097  1.1054
  507SOL    HW211114   4.700   3.428   1.481  0.6217  0.3559 -0.4735
  509SOL     OW11115   2.520   7.455   1.176  0.2839 -0.1172 -0.0543
  509SOL    HW111116   2.565   7.537   1.142 -0.2977  0.4824  0.6058
  509SOL    HW211117   2.463   7.478   1.256 -1.0291 -0.8859 -0.7441
  510SOL     OW11118   2.830   1.154   0.848 -0.3237 -0.3172  0.4264
  510SOL    HW111119   2.792   1.208   0.924  0.8821  1.1750 -0.0153
  510SOL    HW211120   2.817   1.203   0.762 -1.2391 -1.7802 -0.2864
  511SOL     OW11121   2.587   8.208   1.027 -0.6312  0.1828 -0.0531
  511SOL    HW111122   2.576   8.299   1.068  2.0121 -0.7346  2.9325
  511SOL    HW211123   2.676   8.203   0.981 -0.1678 -1.3254  0.9880
  512SOL     OW11124   4.047   8.404   0.788 -0.3180  0.7220 -0.1108
  512SOL    HW111125   4.143   8.377   0.787 -0.0597  1.5371  1.1476
  512SOL    HW211126   4.040   8.504   0.782 -1.1672  0.5632 -2.2535
  513SOL     OW11127   5.137   2.487   1.099  0.3773  0.0094  0.2150
  513SOL    HW111128   5.226   2.521   1.131  1.0037 -1.7896  0.4499
  513SOL    HW211129   5.151   2.420   1.027 -0.9367  1.9364 -1.9111
  514SOL     OW11130   2.440   0.605   1.648  0.3470 -0.0012 -0.0831
  514SOL    HW111131   2.426   0.518   1.695  2.7267 -0.2095  0.3143
  514SOL    HW211132   2.368   0.669   1.674 -0.9509 -1.5745  0.2718
  515SOL     OW11133   4.803   2.353   0.502 -0.0473 -0.3539  0.0649
  515SOL    HW111134   4.824   2.340   0.406  0.8686 -1.7530  0.4368
  515SOL    HW211135   4.867   2.301   0.558  0.6357  1.9490  1.5046
  516SOL     OW11136   3.387   1.299   1.924  0.0277  0.1656 -0.1874
  516SOL    HW111137   3.379   1.399   1.920 -1.3585  0.0663 -0.2786
  516SOL    HW211138   3.430   1.265   1.841 -2.4457  0.4470 -1.6426
  517SOL     OW11139   2.288   7.146   1.834 -0.1405  0.3948 -0.7511
  517SOL    HW111140   2.195   7.178   1.853  0.9882  3.0585  0.4078
  517SOL    HW211141   2.312   7.075   1.900 -1.7529 -1.1838 -1.8005
  518SOL     OW11142   4.064   0.421   0.948 -0.3196  0.1920  0.0957
  518SOL    HW111143   4.009   0.480   0.889 -3.7870 -1.4406  1.5214
  518SOL    HW211144   4.045   0.325   0.927  1.9656 -0.4346  0.6940
  519SOL     OW11145   2.253   2.280   1.856 -0.5724  0.3716 -0.3412
  519SOL    HW111146   2.184   2.325   1.912  0.6073 -0.3646  1.7682
  519SOL    HW211147   2.212   2.251   1.769 -2.3122  1.9567 -0.0873
  520SOL     OW11148   2.452   1.724   1.866 -0.1243  0.1688  0.0290
  520SOL    HW111149   2.385   1.667   1.914 -1.7725  0.5261 -1.7923
  520SOL    HW211150   2.487   1.794   1.928  0.1351 -1.3106  1.5993
  521SOL     OW11151   2.774   8.692   1.840 -0.0413  0.0935  0.5940
  521SOL    HW111152   2.837   8.755   1.794 -0.6181  0.7142  0.6414
  521SOL    HW211153   2.732   8.631   1.773  1.3738 -1.0095  0.6905
  522SOL     OW11154   3.254   4.004   1.746  0.0175  0.2142 -0.4596
  522SOL    HW111155   3.339   4.058   1.743  1.4070 -1.9577 -1.4711
  522SOL    HW211156   3.248   3.947   1.664 -1.4283 -1.1617  0.5695
  523SOL     OW11157   2.312   6.575   2.222  0.1683 -0.6350 -0.7371
  523SOL    HW111158   2.374   6.647   2.190 -0.9828  0.1356 -1.2528
  523SOL    HW211159   2.289   6.592   2.318  0.7655 -0.9464 -0.5300
  524SOL     OW11160   4.408   4.015   0.993  0.9519  0.1703 -0.3519
  524SOL    HW111161   4.452   4.017   1.083  0.3005  0.8584 -0.0433
  524SOL    HW211162   4.368   3.925   0.978  2.2180 -0.3717 -0.5184
  526SOL     OW11163   1.961   6.382   0.858  0.7915 -0.8787  0.2293
  526SOL    HW111164   1.966   6.445   0.782  0.8053 -0.7184  0.3626
  526SOL    HW211165   1.958   6.433   0.944  0.7130 -1.0556  0.3322
  527SOL     OW11166   2.004   2.657   0.987 -0.1549 -0.1059  0.3999
  527SOL    HW111167   2.003   2.583   0.920  0.0408 -0.2929  0.6032
  527SOL    HW211168   2.051   2.737   0.948 -2.3598  0.7138 -0.6616
  528SOL     OW11169   2.343   2.057   2.003 -0.0280  0.4724  0.5258
  528SOL    HW111170   2.319   2.149   1.971  1.9996  1.4488  1.7025
  528SOL    HW211171   2.264   2.015   2.048 -0.7155  2.0050  0.7622
  529SOL     OW11172   2.293   9.297   1.747 -0.3708 -0.3438  0.0953
  529SOL    HW111173   2.207   9.334   1.783 -0.2283  0.7282 -0.6486
  529SOL    HW211174   2.287   9.197   1.745 -1.6935 -0.2785 -0.1413
  530SOL     OW11175   2.697   0.582   1.034 -0.4130  0.5206  0.0602
  530SOL    HW111176   2.741   0.528   1.105  0.7508  0.0788 -0.9743
  530SOL    HW211177   2.616   0.626   1.071 -1.8739 -2.5804  0.7305
  531SOL     OW11178   2.664   2.748   0.526 -0.3727  0.0466 -0.1452
  531SOL    HW111179   2.759   2.743   0.494 -0.3119 -2.2423  0.3192
  531SOL    HW211180   2.607   2.687   0.470 -1.0369 -0.7426  1.3727
  532SOL     OW11181   3.975   2.540   1.424 -0.3484  0.6163 -0.3766
  532SOL    HW111182   3.908   2.602   1.465  0.0291 -0.4248  1.8562
  532SOL    HW211183   3.936   2.449   1.415  1.2628 -0.3991  2.4421
  533SOL     OW11184   2.450   1.998   0.476  0.0133 -0.5558 -0.4840
  533SOL    HW111185   2.501   1.912   0.465  0.9289 -0.1287  0.3696
  533SOL    HW211186   2.475   2.061   0.402 -0.4696 -0.9241 -0.9663
  534SOL     OW11187   4.196   3.782   1.212 -0.0836  0.1986  0.0443
  534SOL    HW111188   4.140   3.712   1.256  0.3252  0.4585  0.9898
  534SOL    HW211189   4.276   3.738   1.169  0.4139  0.1251  1.0283
  535SOL     OW11190   2.153   4.506   1.792 -0.0984  0.4183  0.4662
  535SOL    HW111191   2.242   4.462   1.786 -0.1199  0.3722  0.4872
  535SOL    HW211192   2.083   4.438   1.815 -0.2566  0.3235 -0.2735
  536SOL     OW11193   3.491   3.970   2.037  0.5586 -0.0829 -0.4479
  536SOL    HW111194   3.510   3.872   2.034 -1.8059 -0.6369  1.5403
  536SOL    HW211195   3.403   3.989   1.993  1.1426  1.1892 -1.0931
  539SOL     OW11196   3.845   5.370   1.564  0.5338  0.2726 -0.2189
  539SOL    HW111197   3.929   5.419   1.538  1.2186 -0.6349  0.2776
  539SOL    HW211198   3.863   5.272   1.566 -0.3967  0.1121  0.4342
  540SOL     OW11199   3.544   2.510   2.124 -0.5160  0.6954 -0.1470
  540SOL    HW111200   3.559   2.554   2.035 -0.4129 -0.3156 -0.6396
  540SOL    HW211201   3.591   2.422   2.125 -2.7154 -0.4939 -0.0650
  541SOL     OW11202   3.088   1.062   0.271  0.1112  0.5306  0.6402
  541SOL    HW111203   3.050   1.100   0.187  0.1558 -0.9944 -0.0776
  541SOL    HW211204   3.014   1.036   0.333  0.0099 -0.7906 -0.0249
  542SOL     OW11205   3.508   8.992   1.071 -0.1082  0.0139  0.0297
  542SOL    HW111206   3.583   8.982   1.007 -0.8692 -0.0841 -0.8604
  542SOL    HW211207   3.466   9.082   1.060  0.2513  0.3056  0.9409
  543SOL     OW11208   3.389   7.724   1.354  0.1003 -0.2558 -0.5282
  543SOL    HW111209   3.360   7.745   1.261  1.4058 -0.4340 -0.9963
  543SOL    HW211210   3.484   7.691   1.352 -0.1374 -1.0562  0.7720
  544SOL     OW11211   4.389   0.899   0.808  0.0672  0.7192 -0.3718
  544SOL    HW111212   4.348   0.989   0.826  0.1902  0.7424 -0.2093
  544SOL    HW211213   4.488   0.904   0.821  0.1842  0.7913 -1.2770
  546SOL     OW11214   4.966   4.354   0.729  0.4183 -0.2222 -0.1825
  546SOL    HW111215   4.964   4.392   0.637  0.9523  0.6734  0.1595
  546SOL    HW211216   4.906   4.408   0.788  0.6762 -0.3107  0.1628
  547SOL     OW11217   3.417   0.854   1.001  0.9538  0.5574  0.4160
  547SOL    HW111218   3.355   0.850   0.922  1.7573  0.3020 -0.2128
  547SOL    HW211219   3.366   0.878   1.083  0.3360  2.1399 -0.4219
  548SOL     OW11220   1.863   7.803   1.037  0.1706  1.1053 -0.2453
  548SOL    HW111221   1.922   7.722   1.039 -1.1690  0.1385  1.4089
  548SOL    HW211222   1.824   7.814   0.946 -0.2141 -0.5528 -0.2898
  549SOL     OW11223   2.347   1.550   1.639 -0.0047  0.0250  0.5712
  549SOL    HW111224   2.439   1.547   1.600 -0.4239 -0.5776 -0.3948
  549SOL    HW211225   2.316   1.645   1.643 -0.5959 -0.0059 -2.1269
  550SOL     OW11226   1.647   0.891   0.476  0.1488 -0.1160 -0.3763
  550SOL    HW111227   1.657   0.942   0.390 -0.0737  0.5725  0.0046
  550SOL    HW211228   1.612   0.799   0.456 -1.6514  0.6523 -0.8688
  551SOL     OW11229   2.197   8.101   1.442  0.1221  0.1331 -0.5191
  551SOL    HW111230   2.265   8.044   1.488  1.2644 -0.0153 -2.3290
  551SOL    HW211231   2.107   8.058   1.448  0.8658 -1.5550 -1.3677
  553SOL     OW11232   3.689   2.159   0.982 -0.1096 -0.4138 -0.5896
  553SOL    HW111233   3.741   2.185   1.063 -1.4324 -0.0827  0.1848
  553SOL    HW211234   3.728   2.077   0.941  0.0100 -1.1476  0.9590
  554SOL     OW11235   3.675   4.919   0.860 -0.6220 -0.4063  0.2907
  554SOL    HW111236   3.645   4.980   0.934  0.5579  0.6659 -0.0897
  554SOL    HW211237   3.769   4.890   0.878 -0.4121 -0.3151 -0.6695
  556SOL     OW11238   1.848   6.899   1.160 -0.2440  0.3147 -0.3031
  556SOL    HW111239   1.760   6.859   1.186 -1.3821  1.7369 -1.8528
  556SOL    HW211240   1.857   6.989   1.201  0.5196  0.1633 -0.1313
  557SOL     OW11241   1.992   9.186   1.596  0.3600  0.1564 -0.5370
  557SOL    HW111242   1.900   9.226   1.598  0.2275 -0.1917  0.5774
  557SOL    HW211243   2.033   9.191   1.687  2.0308  1.6483 -1.3321
  559SOL     OW11244   2.712   6.741   1.709 -0.3406  0.3016 -0.2719
  559SOL    HW111245   2.779   6.815   1.718 -0.3144  0.1957  0.4404
  559SOL    HW211246   2.620   6.780   1.696 -0.1113  0.4438 -1.4721
  560SOL     OW11247   3.697   4.499   1.517  0.0079  0.5783  0.1898
  560SOL    HW111248   3.786   4.522   1.478 -0.5239 -1.1293 -2.1179
  560SOL    HW211249   3.698   4.405   1.549 -1.0076  0.5155  0.0490
  561SOL     OW11250   4.048   2.890   1.229  0.1507  0.4054 -0.2814
  561SOL    HW111251   3.990   2.918   1.306 -0.0508 -0.4743 -0.1105
  561SOL    HW211252   4.033   2.794   1.209 -1.8631  1.2643 -3.2325
  563SOL     OW11253   2.802   6.349   1.832 -0.0036 -0.6138 -0.1136
  563SOL    HW111254   2.824   6.319   1.925  0.8406  0.2660 -0.0231
  563SOL    HW211255   2.883   6.338   1.774 -0.5178 -1.1318 -0.7429
  565SOL     OW11256   3.911   2.276   1.973 -0.0841 -0.4822 -0.0002
  565SOL    HW111257   3.934   2.183   2.002  0.0184 -1.1916 -2.2789
  565SOL    HW211258   3.993   2.323   1.940  0.0700  0.8187  2.1107
  567SOL     OW11259   4.153   3.200   1.303 -0.0715 -0.5103 -0.6016
  567SOL    HW111260   4.098   3.172   1.223 -2.7418 -1.1533  1.3820
  567SOL    HW211261   4.094   3.246   1.369  2.7626  3.0020 -0.3725
  568SOL     OW11262   2.856   9.781   0.487 -0.4693 -0.6843 -0.2865
  568SOL    HW111263   2.795   9.703   0.469 -0.8047 -0.1945 -1.3161
  568SOL    HW211264   2.932   9.751   0.544 -0.4813 -1.8235 -0.8499
  569SOL     OW11265   2.819   9.749   1.586  0.4608 -0.0613 -0.4131
  569SOL    HW111266   2.867   9.832   1.612  0.2753 -0.0189 -0.2118
  569SOL    HW211267   2.732   9.743   1.635 -0.3456  0.5137 -1.7490
  570SOL     OW11268   3.948   5.003   2.135  0.2061 -0.3212  0.0728
  570SOL    HW111269   3.884   4.982   2.061  0.4267  0.3666 -0.3135
  570SOL    HW211270   4.040   4.972   2.109  0.5064  0.9628 -0.4393
  571SOL     OW11271   3.101   0.824   1.142  0.0653 -0.7829  0.4897
  571SOL    HW111272   3.098   0.729   1.109  1.7971 -0.9005  0.6307
  571SOL    HW211273   3.017   0.871   1.115 -0.6212 -2.2311  0.0390
  572SOL     OW11274   4.982   3.331   0.475  0.8516  0.6168 -0.0461
  572SOL    HW111275   4.963   3.363   0.568  1.6579 -0.0258  0.3418
  572SOL    HW211276   5.079   3.308   0.466  0.5929 -0.2429 -0.7667
  573SOL     OW11277   4.280   4.440   0.846  0.2031 -0.0561  0.3624
  573SOL    HW111278   4.222   4.383   0.903 -0.2916  1.1268  1.0512
  573SOL    HW211279   4.262   4.420   0.749 -2.1986  1.1117  0.5361
  574SOL     OW11280   2.810   2.250   1.844  0.4842 -0.0355  0.2298
  574SOL    HW111281   2.747   2.184   1.806  1.6646 -0.7849 -0.4651
  574SOL    HW211282   2.904   2.228   1.816  0.9921  1.4333  0.6745
  575SOL     OW11283   4.035   9.317   1.089 -0.3058  0.3458 -0.0042
  575SOL    HW111284   4.028   9.406   1.043  1.1265  0.1286 -0.6735
  575SOL    HW211285   3.949   9.297   1.136 -1.6989  0.7377 -2.2978
  576SOL     OW11286   4.222   1.759   0.955 -0.8971  0.3852  0.1712
  576SOL    HW111287   4.143   1.811   0.985 -0.1587  0.2635  2.3725
  576SOL    HW211288   4.302   1.786   1.008  0.1543 -0.8276 -0.7620
  578SOL     OW11289   4.548   1.612   0.815 -0.4512  0.1232 -0.0439
  578SOL    HW111290   4.499   1.686   0.768  1.9123  1.8109  0.0379
  578SOL    HW211291   4.527   1.614   0.912  0.5641  1.4947  0.1541
  579SOL     OW11292   2.158   6.623   0.910 -0.6742  0.2535  0.3283
  579SOL    HW111293   2.093   6.631   0.986 -0.4699 -3.1585  0.9100
  579SOL    HW211294   2.239   6.572   0.940  0.7611  1.4533 -1.3854
  580SOL     OW11295   1.938   2.218   2.178  0.4710  0.0177  0.2440
  580SOL    HW111296   1.931   2.282   2.255  0.4946 -1.6800  1.6951
  580SOL    HW211297   1.988   2.136   2.207  0.1680 -0.8052 -1.4795
  581SOL     OW11298   3.072   6.208   1.952  0.0050 -0.7408 -0.1503
  581SOL    HW111299   3.071   6.243   1.858  1.2253  1.2485  0.5458
  581SOL    HW211300   2.991   6.240   2.001  1.3675  1.6082  0.6326
  582SOL     OW11301   2.233   1.397   0.483  0.2038 -0.1215  0.0089
  582SOL    HW111302   2.171   1.460   0.530 -0.3910 -1.4717  1.0751
  582SOL    HW211303   2.191   1.367   0.397 -0.4714 -0.7516  0.5547
  583SOL     OW11304   4.325   2.886   0.611 -0.2449 -0.6500 -0.4749
  583SOL    HW111305   4.409   2.918   0.567 -0.0225 -1.3588 -0.5682
  583SOL    HW211306   4.336   2.888   0.710 -0.1675 -0.6262 -0.4839
  585SOL     OW11307   2.178   3.744   1.304  0.2679 -0.6684 -0.1100
  585SOL    HW111308   2.148   3.794   1.386  0.6138  0.2838 -0.5547
  585SOL    HW211309   2.273   3.714   1.315  0.7841  0.7060 -0.7305
  586SOL     OW11310   4.053   2.704   0.328 -0.1628  0.1938 -0.2964
  586SOL    HW111311   4.063   2.775   0.398 -0.6040  1.1102 -1.1592
  586SOL    HW211312   4.125   2.635   0.341 -1.1065 -0.4298  1.9494
  587SOL     OW11313   2.440   5.985   1.984 -0.4481  0.3565 -0.0073
  587SOL    HW111314   2.512   6.015   1.923  1.5926 -0.9109  1.7045
  587SOL    HW211315   2.471   5.905   2.036 -2.3806  0.9324  2.1277
  589SOL     OW11316   2.937   1.296   0.438 -0.2189  0.3545 -0.2275
  589SOL    HW111317   2.913   1.303   0.341 -0.9553  2.2421  0.0752
  589SOL    HW211318   3.029   1.334   0.452 -1.3849  3.1055  0.2894
  590SOL     OW11319   2.916   7.056   1.054  0.1525 -0.3517  0.0013
  590SOL    HW111320   2.878   7.148   1.061 -0.0152 -0.2443 -1.8385
  590SOL    HW211321   2.860   7.003   0.990  0.0304 -1.8462  1.3281
  591SOL     OW11322   4.510   3.035   2.117  0.0076  0.0289 -1.2068
  591SOL    HW111323   4.572   3.112   2.105  0.0694  0.3448  1.0609
  591SOL    HW211324   4.555   2.951   2.086  1.9936  0.0931  1.3242
  592SOL     OW11325   2.708   2.241   0.474 -0.4088  0.1275 -0.0400
  592SOL    HW111326   2.611   2.263   0.461 -0.1006  1.1876 -0.6561
  592SOL    HW211327   2.756   2.323   0.506  0.8903  0.5370 -2.9443
  595SOL     OW11328   2.503   0.378   0.868 -0.3485  0.6182 -0.5716
  595SOL    HW111329   2.557   0.445   0.816 -0.2945  2.0363  1.2680
  595SOL    HW211330   2.413   0.369   0.826  0.0646  0.9493 -1.5478
  596SOL     OW11331   2.854   3.936   0.579 -0.4219  0.5845 -0.2061
  596SOL    HW111332   2.763   3.934   0.536 -0.2817  0.5812 -0.5024
  596SOL    HW211333   2.846   3.976   0.670 -0.6085  1.2181 -0.5000
  598SOL     OW11334   3.914   1.585   1.076  0.3959 -0.0965 -0.1420
  598SOL    HW111335   3.850   1.518   1.114 -1.3478  1.9323  0.6435
  598SOL    HW211336   3.983   1.607   1.145  0.9562 -1.0603 -0.3931
  599SOL     OW11337   3.548   8.809   2.197  0.1717  0.0001  0.1222
  599SOL    HW111338   3.554   8.711   2.180  2.6237  0.2536 -0.8052
  599SOL    HW211339   3.606   8.833   2.275  2.5060  1.1211 -1.8518
  600SOL     OW11340   1.834   3.135   0.630 -0.5415 -0.1282  0.0931
  600SOL    HW111341   1.736   3.126   0.611 -0.6470 -0.9054  0.9578
  600SOL    HW211342   1.848   3.199   0.705 -0.2825  1.0975 -0.9820
  601SOL     OW11343   3.883   1.743   0.575 -0.2136 -0.5666 -0.2555
  601SOL    HW111344   3.834   1.727   0.661  0.0849 -0.3069 -0.0332
  601SOL    HW211345   3.876   1.662   0.517  1.0248 -1.3901  0.7304
  604SOL     OW11346   2.326   6.200   1.336 -0.0112  0.0404  0.3969
  604SOL    HW111347   2.284   6.119   1.377 -2.0365  0.1635 -1.3528
  604SOL    HW211348   2.355   6.180   1.243  2.0344  0.5418  0.9114
  605SOL     OW11349   2.365   3.308   1.157  0.1396  0.0077 -0.0989
  605SOL    HW111350   2.453   3.349   1.133 -0.2864  1.8062  1.2877
  605SOL    HW211351   2.293   3.377   1.147 -1.0801 -1.3574 -0.9264
  606SOL     OW11352   3.044   5.375   2.019  0.3753  0.0256  0.0892
  606SOL    HW111353   2.993   5.457   2.044 -0.8092 -0.6616 -0.0257
  606SOL    HW211354   3.060   5.375   1.920 -1.7236 -1.0351 -0.2752
  607SOL     OW11355   1.789   8.787   0.484 -0.4100  0.0818 -0.1773
  607SOL    HW111356   1.697   8.767   0.519 -0.1385  1.2516  1.2418
  607SOL    HW211357   1.835   8.851   0.545  1.9090 -1.5987 -0.1001
  608SOL     OW11358   3.776   4.239   0.269  0.6118 -0.5879  0.1319
  608SOL    HW111359   3.680   4.213   0.256  0.4970  1.1539 -3.2034
  608SOL    HW211360   3.782   4.312   0.337 -0.2280 -1.8265  1.5611
  609SOL     OW11361   2.885   0.227   1.047 -0.0999  0.1703  0.4062
  609SOL    HW111362   2.953   0.249   0.976 -1.3878 -0.7486 -1.1615
  609SOL    HW211363   2.922   0.157   1.108  1.4058  1.6822  1.2699
  610SOL     OW11364   2.772   3.726   1.623  0.0578  0.1586  0.2962
  610SOL    HW111365   2.860   3.765   1.649 -0.0076  0.2731  0.3449
  610SOL    HW211366   2.735   3.776   1.545  0.2080 -0.1220  0.0418
  612SOL     OW11367   3.031   1.878   0.909 -0.0558  0.5554  0.2478
  612SOL    HW111368   3.048   1.780   0.899  0.8301  0.5525  1.5701
  612SOL    HW211369   2.933   1.894   0.924 -0.9244  0.2936 -4.3821
  613SOL     OW11370   4.596   3.821   2.301 -0.6231 -0.3636 -0.0833
  613SOL    HW111371   4.554   3.900   2.346 -1.7402 -0.8711 -0.2144
  613SOL    HW211372   4.541   3.794   2.222  0.5684 -0.3548 -0.9298
  615SOL     OW11373   2.102   2.885   1.287 -0.0579 -0.4578 -0.0044
  615SOL    HW111374   2.025   2.822   1.277 -0.6201  0.2242  0.0346
  615SOL    HW211375   2.186   2.832   1.300 -0.8871 -1.1853  2.8229
  616SOL     OW11376   1.739   0.806   0.736  0.1461 -0.2125 -0.6164
  616SOL    HW111377   1.693   0.835   0.820  1.0629 -0.6002  0.0311
  616SOL    HW211378   1.689   0.841   0.656 -0.2134  0.9355  0.1014
  617SOL     OW11379   2.055   9.929   0.805 -0.6267  0.0557 -0.5191
  617SOL    HW111380   1.968   9.955   0.846  0.2499  2.9537 -0.3945
  617SOL    HW211381   2.047   9.930   0.705 -0.4357  1.5217 -0.5309
  618SOL     OW11382   4.934   2.711   0.368 -0.1656  0.0147 -0.1051
  618SOL    HW111383   4.934   2.811   0.359 -0.9524 -0.1526 -2.1825
  618SOL    HW211384   4.927   2.670   0.277 -1.9043 -1.9163  0.8690
  620SOL     OW11385   3.154   2.650   1.598 -0.3696 -0.1215 -0.2750
  620SOL    HW111386   3.233   2.609   1.644  0.0395 -1.3974 -2.0222
  620SOL    HW211387   3.181   2.735   1.554 -0.6150  0.7834  1.2910
  621SOL     OW11388   2.602   3.770   0.803 -0.2923 -0.3352  0.5387
  621SOL    HW111389   2.584   3.815   0.891 -1.2933  0.6490 -0.1537
  621SOL    HW211390   2.680   3.709   0.813  1.0744  1.5100  1.5404
  622SOL     OW11391   3.897   2.976   1.464 -0.1350  0.3406 -0.4364
  622SOL    HW111392   3.810   3.011   1.428  0.2969  1.3875 -0.4771
  622SOL    HW211393   3.955   3.053   1.492 -0.6073 -0.4320  2.8767
  623SOL     OW11394   3.391   5.482   0.868  0.6017  0.4324 -0.0651
  623SOL    HW111395   3.447   5.559   0.838  0.3863  1.6358  2.4334
  623SOL    HW211396   3.404   5.405   0.807  4.3506  0.9412 -0.0316
  624SOL     OW11397   3.895   4.137   1.816  0.2819 -0.0061  0.4852
  624SOL    HW111398   3.939   4.062   1.769  0.8959  0.5800  0.1175
  624SOL    HW211399   3.902   4.123   1.915  1.6775  0.2923  0.4437
  625SOL     OW11400   2.713   6.612   1.465 -0.3065  0.2668  0.5167
  625SOL    HW111401   2.701   6.625   1.563 -0.1668  1.1863  0.4139
  625SOL    HW211402   2.701   6.700   1.418 -1.6101 -0.3800 -0.4020
  627SOL     OW11403   3.461   4.662   1.513 -0.3995  0.1279 -0.1834
  627SOL    HW111404   3.553   4.623   1.507 -0.2850  0.5799 -1.8125
  627SOL    HW211405   3.454   4.739   1.450 -1.8523  0.1801  0.0261
  628SOL     OW11406   2.754   5.079   0.371 -0.4168  0.0671  0.1086
  628SOL    HW111407   2.751   4.987   0.409 -0.8573  0.2974  0.6626
  628SOL    HW211408   2.820   5.084   0.297 -0.0287 -0.5693  0.4123
  629SOL     OW11409   3.465   3.206   1.874 -0.7752  0.3279  0.3676
  629SOL    HW111410   3.492   3.110   1.865 -0.1309  0.5764 -0.4362
  629SOL    HW211411   3.366   3.214   1.862 -0.7432 -0.1486 -0.2845
  630SOL     OW11412   3.580   2.074   1.677 -0.1876 -0.1025 -0.0785
  630SOL    HW111413   3.596   2.142   1.748 -0.8518 -0.0058 -0.0141
  630SOL    HW211414   3.482   2.056   1.670 -0.1051 -0.2787 -0.8134
  631SOL     OW11415   2.949   3.359   0.764  0.2725 -0.0511  0.0438
  631SOL    HW111416   3.034   3.405   0.739 -0.2916  0.4650 -0.9787
  631SOL    HW211417   2.940   3.275   0.710 -0.5110  0.5960 -0.8536
  632SOL     OW11418   2.470   8.797   0.586 -0.0464 -0.0907  0.2741
  632SOL    HW111419   2.397   8.730   0.583  0.5806 -0.7958  0.5096
  632SOL    HW211420   2.434   8.886   0.614 -1.0338 -0.1190 -0.9101
  633SOL     OW11421   3.456   2.280   1.062 -0.1930 -1.0371  0.4885
  633SOL    HW111422   3.546   2.253   1.029 -0.5592  0.2928 -1.6792
  633SOL    HW211423   3.388   2.266   0.990 -1.6558 -1.6084  1.9535
  634SOL     OW11424   2.502   2.071   1.533  0.3118  0.5102  0.3059
  634SOL    HW111425   2.592   2.090   1.493 -0.4626 -0.2713 -1.8447
  634SOL    HW211426   2.447   2.155   1.532  0.1944  0.4305 -0.5691
  635SOL     OW11427   2.205   7.052   1.268  0.0932  0.4222 -0.0858
  635SOL    HW111428   2.266   7.103   1.207 -0.1626  0.3460 -0.4024
  635SOL    HW211429   2.225   7.078   1.363  1.0816 -0.1020 -0.1393
  636SOL     OW11430   3.022   2.086   0.546  0.3410  0.1842 -0.0411
  636SOL    HW111431   3.006   2.128   0.456 -0.0113 -0.2535 -0.1845
  636SOL    HW211432   2.954   2.015   0.562  1.2224 -0.6657 -0.0043
  637SOL     OW11433   4.891   2.682   0.708 -0.2258 -0.4449 -0.6468
  637SOL    HW111434   4.911   2.589   0.738  0.5484  0.1691  0.7483
  637SOL    HW211435   4.951   2.747   0.754 -1.3358  0.8450 -0.9567
  638SOL     OW11436   3.208   3.249   1.862  0.2944 -0.0959  0.0933
  638SOL    HW111437   3.124   3.197   1.846  0.6489 -0.6517  0.0282
  638SOL    HW211438   3.187   3.330   1.916 -0.7927  1.2982 -2.2993
  640SOL     OW11439   4.013   1.211   1.810 -0.0678  0.8160 -0.0424
  640SOL    HW111440   4.098   1.263   1.811  1.6900 -1.9188 -0.4692
  640SOL    HW211441   3.997   1.172   1.900  1.2749 -1.8895 -0.9103
  642SOL     OW11442   3.520   4.211   1.335  0.0049 -0.4399 -0.6070
  642SOL    HW111443   3.468   4.151   1.275  0.1970 -1.7297  0.4930
  642SOL    HW211444   3.618   4.193   1.325  0.0593 -0.3583 -0.2384
  644SOL     OW11445   3.271   0.182   0.719  0.1470 -0.3235 -0.1455
  644SOL    HW111446   3.364   0.215   0.705 -0.3711  0.3268 -2.1608
  644SOL    HW211447   3.259   0.093   0.676 -0.0238 -0.6310  0.5324
  645SOL     OW11448   3.421   3.921   1.098 -0.3232  0.1568 -0.2333
  645SOL    HW111449   3.469   3.966   1.023  0.6728  0.3985  0.5355
  645SOL    HW211450   3.323   3.937   1.089 -0.3022 -0.6282 -2.0047
  646SOL     OW11451   3.435   5.303   0.683 -0.0371  0.2589  0.0611
  646SOL    HW111452   3.472   5.210   0.683  0.2411  0.3593  1.3093
  646SOL    HW211453   3.453   5.346   0.594 -1.5321 -1.3996 -1.0776
  647SOL     OW11454   3.429   4.468   1.308  0.8311 -0.5003  0.1409
  647SOL    HW111455   3.393   4.531   1.378  3.2139  2.2342 -0.9791
  647SOL    HW211456   3.473   4.391   1.352  0.0658 -0.1195  1.6165
  648SOL     OW11457   2.986   8.522   1.563  0.1386  0.0600 -0.1530
  648SOL    HW111458   3.060   8.588   1.572 -0.1956  0.4083  0.0860
  648SOL    HW211459   2.984   8.463   1.644  0.9331 -0.7645 -0.7292
  650SOL     OW11460   2.534   3.512   1.887  0.1781 -0.2218 -0.2651
  650SOL    HW111461   2.530   3.462   1.973 -0.0214  0.3878  0.0780
  650SOL    HW211462   2.449   3.497   1.835 -0.9723  1.8531  0.9972
  651SOL     OW11463   4.104   1.592   2.037  0.1288 -0.1252  0.9660
  651SOL    HW111464   4.010   1.607   2.068 -0.4806  0.9283 -1.2929
  651SOL    HW211465   4.122   1.649   1.957  2.4458 -0.9302  0.8791
  656SOL     OW11466   4.381   2.855   0.880 -0.2404 -0.5449 -0.1655
  656SOL    HW111467   4.419   2.894   0.964 -0.0243 -0.9283 -0.0837
  656SOL    HW211468   4.451   2.799   0.835 -0.8176 -1.5857  0.1986
  657SOL     OW11469   2.224   0.878   0.335 -0.3000  0.6217  0.2198
  657SOL    HW111470   2.233   0.971   0.372  2.8415  1.2317 -1.8740
  657SOL    HW211471   2.177   0.881   0.247 -0.3548  0.2084  0.2330
  658SOL     OW11472   2.124   7.163   0.610  0.3425  0.4902 -0.1844
  658SOL    HW111473   2.111   7.082   0.553 -1.4034 -0.1103  1.0470
  658SOL    HW211474   2.207   7.152   0.665  0.4379 -0.2036 -0.4589
  661SOL     OW11475   3.468   3.641   0.595  0.2363  0.3658  0.2025
  661SOL    HW111476   3.539   3.577   0.627  0.8611  0.5846 -0.7001
  661SOL    HW211477   3.420   3.600   0.517 -0.9136  0.0512  1.0703
  663SOL     OW11478   3.950   2.683   2.076 -0.4469 -0.1487 -0.1115
  663SOL    HW111479   3.870   2.634   2.041  1.2902 -2.9812 -0.2828
  663SOL    HW211480   3.987   2.635   2.155  0.8408  1.3548  0.2306
  668SOL     OW11481   3.685   8.835   1.910 -0.0317  0.0923  0.4858
  668SOL    HW111482   3.618   8.885   1.855  0.0773  0.0075  0.2741
  668SOL    HW211483   3.704   8.886   1.994 -0.3932  0.0964  0.5666
  669SOL     OW11484   3.828   2.106   2.345  0.7654  0.2241 -0.4163
  669SOL    HW111485   3.927   2.091   2.350  0.5576 -1.5092 -0.9949
  669SOL    HW211486   3.785   2.030   2.296 -1.0727  0.0330  1.3974
  670SOL     OW11487   2.240   7.076   1.570  0.3702 -0.3488  1.2435
  670SOL    HW111488   2.180   6.996   1.560  0.8328 -0.5936  0.3162
  670SOL    HW211489   2.254   7.096   1.667 -1.0816 -0.3870  1.4783
  671SOL     OW11490   3.067   6.056   2.239 -0.2002  0.3278  0.7175
  671SOL    HW111491   3.066   6.104   2.327 -1.2939  1.3091  0.1893
  671SOL    HW211492   3.061   6.123   2.165  2.4891 -0.3720 -0.1896
  672SOL     OW11493   2.925   7.034   1.526  0.1280 -0.0470  0.0105
  672SOL    HW111494   2.968   7.122   1.508  0.8253 -0.3133  0.3685
  672SOL    HW211495   2.942   6.973   1.448  0.4833 -0.1855  0.1970
  674SOL     OW11496   3.010   9.542   1.122  0.4119 -1.0065  0.4148
  674SOL    HW111497   3.046   9.456   1.159  1.3747 -1.0533 -0.5975
  674SOL    HW211498   2.991   9.605   1.197  0.4921 -1.7920  1.1094
  675SOL     OW11499   3.328   3.646   0.923 -0.0544  0.2282 -0.0716
  675SOL    HW111500   3.427   3.656   0.920 -0.0018  0.1530  1.1379
  675SOL    HW211501   3.297   3.643   1.019 -1.5110  3.2023 -0.3985
  677SOL     OW11502   4.289   9.173   0.475 -0.2133  0.6199 -0.0644
  677SOL    HW111503   4.244   9.159   0.387  0.1195 -1.4569  0.0876
  677SOL    HW211504   4.222   9.171   0.548 -0.3127  0.9756 -0.1450
  678SOL     OW11505   3.274   2.786   1.358  0.4344  0.1265 -0.1662
  678SOL    HW111506   3.358   2.790   1.412  0.7021  1.6692 -0.6559
  678SOL    HW211507   3.297   2.790   1.261 -0.1153 -1.3080 -0.3675
  679SOL     OW11508   4.865   2.343   1.181  0.6583  0.2085 -0.6513
  679SOL    HW111509   4.913   2.390   1.255 -0.0326 -0.5731  0.3064
  679SOL    HW211510   4.799   2.405   1.139 -0.6483 -0.0483  0.9722
  681SOL     OW11511   3.336   9.722   0.875 -0.1012  0.7649 -0.2204
  681SOL    HW111512   3.352   9.770   0.961 -4.1189  2.9755 -0.6194
  681SOL    HW211513   3.243   9.685   0.873  0.7801 -1.5436 -2.5685
  682SOL     OW11514   3.372   0.537   2.069 -0.5299  0.0953  0.3328
  682SOL    HW111515   3.399   0.565   1.977  2.1327 -0.7116  0.8409
  682SOL    HW211516   3.377   0.437   2.077 -1.9742  0.0575  0.9884
  684SOL     OW11517   2.829   1.140   1.944 -0.2013  0.2432  0.5163
  684SOL    HW111518   2.927   1.123   1.953 -0.3872 -0.3565  1.4303
  684SOL    HW211519   2.807   1.231   1.980  0.4138  1.4730 -2.1139
  685SOL     OW11520   3.510   8.554   0.915 -0.7460 -0.3086 -0.2099
  685SOL    HW111521   3.555   8.642   0.898  1.3156 -1.2802  0.0420
  685SOL    HW211522   3.503   8.503   0.829  0.4445 -0.9739  0.0733
  686SOL     OW11523   3.287   8.388   1.003 -0.1012  0.1482 -0.4468
  686SOL    HW111524   3.218   8.461   1.008 -0.8236 -0.4798 -1.1114
  686SOL    HW211525   3.371   8.424   0.963  0.1685  1.0709  0.9075
  687SOL     OW11526   2.032   6.107   1.216  0.1692  0.0078 -0.0800
  687SOL    HW111527   2.028   6.199   1.255  1.2456  0.4672 -1.0500
  687SOL    HW211528   2.049   6.041   1.290  0.9260  0.7411  0.4162
  690SOL     OW11529   2.195   8.754   0.981  0.0936  0.5551 -0.5528
  690SOL    HW111530   2.150   8.814   0.916 -1.2288  0.5767  0.3684
  690SOL    HW211531   2.167   8.778   1.074 -2.2300 -2.9304 -0.2722
  691SOL     OW11532   3.559   9.502   1.368 -0.3777 -0.2317 -0.5172
  691SOL    HW111533   3.593   9.573   1.430  0.1930 -0.9939  0.0532
  691SOL    HW211534   3.616   9.500   1.286  0.2205 -0.6866 -0.0988
  693SOL     OW11535   2.897   8.625   2.068  0.3286 -0.3177 -0.0262
  693SOL    HW111536   2.958   8.704   2.076  0.6518 -0.4829 -0.7767
  693SOL    HW211537   2.839   8.636   1.988  0.0508 -0.6199  0.1359
  694SOL     OW11538   2.804   7.456   0.544  0.6542 -0.3937  0.8088
  694SOL    HW111539   2.734   7.385   0.541  1.1234 -0.9671  2.6616
  694SOL    HW211540   2.833   7.479   0.451  0.4080 -2.5288  0.1872
  695SOL     OW11541   2.550   9.666   2.149  0.5520  0.2147 -0.1290
  695SOL    HW111542   2.500   9.593   2.196  0.0126  0.5455 -0.1879
  695SOL    HW211543   2.571   9.637   2.056  0.9454 -0.1356  0.0653
  696SOL     OW11544   2.928   2.198   0.316 -0.0204 -0.2635 -0.0327
  696SOL    HW111545   2.845   2.202   0.371 -0.8975  0.7952 -1.4142
  696SOL    HW211546   2.938   2.283   0.264  2.2295 -0.1359  0.5552
  697SOL     OW11547   2.950   1.914   2.263  0.1370 -0.1845 -0.1532
  697SOL    HW111548   2.936   2.011   2.281 -0.7911 -0.4651  0.6786
  697SOL    HW211549   2.870   1.862   2.294  0.8575 -1.2719 -0.0767
  698SOL     OW11550   2.311   4.264   2.097 -0.2211 -0.0747  0.2313
  698SOL    HW111551   2.358   4.202   2.160 -1.6793 -0.7351  0.6944
  698SOL    HW211552   2.336   4.358   2.119  0.6083 -0.3971  0.7018
  699SOL     OW11553   4.115   4.298   0.990 -0.9630  0.1111 -0.1966
  699SOL    HW111554   4.118   4.203   0.956 -1.0132 -0.1223  0.4545
  699SOL    HW211555   4.084   4.299   1.085  2.3054  0.4983  0.9006
  700SOL     OW11556   2.536   3.424   0.831  0.2238 -0.0902  0.2988
  700SOL    HW111557   2.460   3.488   0.831  0.4937  0.2238 -0.1913
  700SOL    HW211558   2.524   3.357   0.758  0.3022 -0.1785  0.3659
  701SOL     OW11559   1.954   6.494   1.094  0.6362 -0.2457  0.7029
  701SOL    HW111560   2.022   6.447   1.151 -1.1333  0.1200  3.1519
  701SOL    HW211561   1.882   6.532   1.151 -1.3139 -0.0313 -1.7971
  702SOL     OW11562   2.359   7.717   1.161 -0.2590 -0.1766 -0.5973
  702SOL    HW111563   2.450   7.757   1.164 -0.7138  0.9615 -1.4147
  702SOL    HW211564   2.322   7.712   1.254 -0.2215  1.4036 -0.4867
  703SOL     OW11565   3.610   9.014   1.333 -0.1936  0.7751 -0.0925
  703SOL    HW111566   3.704   8.980   1.320 -0.4057  0.2019 -0.1540
  703SOL    HW211567   3.559   9.002   1.249  0.3657  3.3508 -0.8287
  704SOL     OW11568   4.183   2.623   0.667 -0.1914 -0.0372 -0.0547
  704SOL    HW111569   4.260   2.651   0.610 -1.3882  0.1150 -1.6377
  704SOL    HW211570   4.184   2.675   0.753  2.2559 -1.0575  0.5774
  705SOL     OW11571   3.862   4.345   0.845  0.1117 -0.4285 -0.5686
  705SOL    HW111572   3.791   4.416   0.844  1.0790  0.5423 -0.2277
  705SOL    HW211573   3.931   4.367   0.914  1.4061 -0.7297 -1.7454
  706SOL     OW11574   2.617   0.125   0.718 -0.1744 -0.2285 -0.3654
  706SOL    HW111575   2.694   0.065   0.700 -1.7273 -1.5362 -2.8561
  706SOL    HW211576   2.617   0.151   0.815  1.8327 -2.3904  0.2559
  707SOL     OW11577   2.318   3.584   0.846 -0.1827  0.5176  0.0194
  707SOL    HW111578   2.321   3.631   0.758 -0.3605  0.1711 -0.1717
  707SOL    HW211579   2.235   3.529   0.851  0.0840  0.1353  0.1957
  708SOL     OW11580   3.095   2.307   2.004 -0.2939 -0.3101  0.6521
  708SOL    HW111581   3.021   2.250   1.967  1.6355 -1.6174 -1.3225
  708SOL    HW211582   3.080   2.402   1.977 -0.7604 -0.7133 -0.5799
  709SOL     OW11583   3.971   9.779   0.696  0.4130  0.3070  0.1305
  709SOL    HW111584   3.896   9.823   0.746 -0.0255 -0.2268 -0.0630
  709SOL    HW211585   3.960   9.796   0.598  0.1729 -0.3413  0.0437
  710SOL     OW11586   4.147   2.115   0.722 -0.0300  0.2600 -0.5342
  710SOL    HW111587   4.185   2.208   0.721 -0.9318  0.6307 -1.3957
  710SOL    HW211588   4.106   2.095   0.633 -0.1817 -0.8259 -0.2234
  711SOL     OW11589   2.325   3.157   2.280  0.2222  0.5842 -0.1510
  711SOL    HW111590   2.269   3.218   2.336 -1.0200  0.4673 -1.2405
  711SOL    HW211591   2.285   3.066   2.280  1.2377  0.1258  0.2389
  712SOL     OW11592   2.633   7.095   1.973 -0.6965 -0.1911  0.0148
  712SOL    HW111593   2.626   7.193   1.991 -2.1285 -0.6540  2.2393
  712SOL    HW211594   2.728   7.070   1.954  0.0341  1.2718  1.6617
  713SOL     OW11595   2.648   2.251   2.350 -0.6875 -0.5285 -0.1479
  713SOL    HW111596   2.565   2.231   2.298 -1.3038 -1.2143  1.0818
  713SOL    HW211597   2.720   2.280   2.287 -1.4166 -1.3301 -1.3833
  714SOL     OW11598   5.127   3.507   1.627 -0.5159  0.3388  0.2624
  714SOL    HW111599   5.135   3.585   1.566  1.4184  0.7810  1.0232
  714SOL    HW211600   5.098   3.537   1.718  1.4110  0.3670  0.8912
  715SOL     OW11601   3.948   4.759   0.901  0.1791  0.1750  0.9115
  715SOL    HW111602   3.927   4.736   0.806  3.4119  2.0156 -0.3247
  715SOL    HW211603   4.029   4.708   0.930 -0.4915  0.0145  2.5108
  716SOL     OW11604   4.564   1.403   0.628 -0.3111 -0.4262  0.6201
  716SOL    HW111605   4.572   1.470   0.702 -0.2416  0.8919 -0.5555
  716SOL    HW211606   4.635   1.420   0.560 -0.4907 -1.5063  0.1593
  718SOL     OW11607   2.443   4.531   2.109 -0.0813  0.4011 -0.2361
  718SOL    HW111608   2.444   4.630   2.096 -0.5645  0.4943  0.3962
  718SOL    HW211609   2.533   4.500   2.138  0.0745  0.6526 -0.4460
  719SOL     OW11610   2.695   2.823   1.719 -0.4839  0.3332 -0.2218
  719SOL    HW111611   2.654   2.799   1.631 -2.5195  0.1104  0.7619
  719SOL    HW211612   2.795   2.815   1.712 -0.5612  0.8198 -2.6436
  721SOL     OW11613   2.326   8.333   0.546 -0.3296  0.3923  0.5883
  721SOL    HW111614   2.360   8.292   0.631 -1.5354 -0.7592  0.5493
  721SOL    HW211615   2.244   8.284   0.517  0.2443  0.5723 -1.4164
  722SOL     OW11616   4.483   4.652   0.783 -0.1320  0.8079  0.1249
  722SOL    HW111617   4.447   4.565   0.751  0.6511 -0.7912  3.3557
  722SOL    HW211618   4.415   4.699   0.839  0.1029  1.3698 -0.0537
  723SOL     OW11619   2.472   4.081   0.755  0.4407  0.3670  0.4698
  723SOL    HW111620   2.480   4.052   0.850 -0.2575 -0.6401  0.2279
  723SOL    HW211621   2.442   4.004   0.699  0.8767  0.9453 -0.5736
  724SOL     OW11622   3.557   1.322   0.290 -0.2350  0.2950  0.4257
  724SOL    HW111623   3.633   1.265   0.261 -0.5324  0.5067 -0.7913
  724SOL    HW211624   3.486   1.264   0.330 -0.0025 -0.0481  0.3449
  725SOL     OW11625   4.794   3.233   0.337  0.5252  0.3758  0.7302
  725SOL    HW111626   4.869   3.274   0.390  0.8929  1.6912 -0.7642
  725SOL    HW211627   4.744   3.305   0.288  0.8975 -0.8964 -1.6011
  726SOL     OW11628   1.805   3.599   1.102  0.5011  0.0757  0.3952
  726SOL    HW111629   1.805   3.499   1.100 -0.1211  0.0699  0.6532
  726SOL    HW211630   1.754   3.634   1.024 -0.9467  0.1657  1.3747
  727SOL     OW11631   1.813   2.575   0.363 -0.7455  0.3685 -0.3329
  727SOL    HW111632   1.820   2.475   0.356  0.1093  0.5196 -1.9048
  727SOL    HW211633   1.905   2.615   0.363 -1.1073  1.3670 -3.8311
  728SOL     OW11634   3.585   7.756   0.996 -0.5135  0.7109  0.1076
  728SOL    HW111635   3.528   7.678   0.970  0.1451  0.1024  0.4845
  728SOL    HW211636   3.530   7.821   1.048 -1.3726  1.0690 -1.2053
  729SOL     OW11637   3.146   4.019   0.974 -0.4704 -0.4543 -0.2025
  729SOL    HW111638   3.179   4.002   0.881  1.9656 -0.9455  0.7144
  729SOL    HW211639   3.101   4.108   0.978  1.4200  0.5922 -1.3764
  731SOL     OW11640   4.668   3.257   2.122 -0.1205 -0.3496  0.4355
  731SOL    HW111641   4.682   3.299   2.033 -1.3165  0.7411  0.7477
  731SOL    HW211642   4.645   3.328   2.189 -2.4166 -1.5029  0.9141
  733SOL     OW11643   3.274   1.604   0.440  0.2456  0.2487  0.1926
  733SOL    HW111644   3.232   1.611   0.530  0.2705 -0.1514  0.2361
  733SOL    HW211645   3.233   1.671   0.379 -0.9954 -0.6388  0.0201
  735SOL     OW11646   2.187   3.276   1.990  0.4043  0.5632  0.4068
  735SOL    HW111647   2.278   3.237   1.992  0.8419  1.5098 -0.4696
  735SOL    HW211648   2.166   3.309   1.898 -0.8676  0.2461  0.5694
  736SOL     OW11649   2.304   1.724   0.293 -0.1872  0.3278  0.7582
  736SOL    HW111650   2.286   1.767   0.204 -1.5334  0.2251  0.9728
  736SOL    HW211651   2.373   1.653   0.282  0.1104  0.7375 -0.0921
  737SOL     OW11652   5.252   2.687   0.652 -0.6281 -0.2999  0.1556
  737SOL    HW111653   5.167   2.684   0.704  0.5272 -2.5671  2.0403
  737SOL    HW211654   5.231   2.699   0.555 -2.9998  0.5445  0.7276
  739SOL     OW11655   4.094   0.116   0.986  0.0318  0.1660  0.0925
  739SOL    HW111656   4.171   0.130   1.049 -1.4005  1.0164  1.6879
  739SOL    HW211657   4.048   0.030   1.008 -1.3198  1.1386  1.1391
  741SOL     OW11658   2.701   9.355   1.801 -0.0966 -0.0429  0.1491
  741SOL    HW111659   2.648   9.334   1.720  0.3144  0.6775 -0.3100
  741SOL    HW211660   2.736   9.271   1.842 -1.3519 -0.4960  0.2971
  743SOL     OW11661   2.703   0.757   1.690  0.0828 -0.2862 -0.3947
  743SOL    HW111662   2.678   0.800   1.777 -1.1026  0.4130 -1.0715
  743SOL    HW211663   2.640   0.682   1.671 -0.7439  0.6689 -1.4873
  745SOL     OW11664   3.150   1.207   2.002  0.2766  0.5506 -0.7559
  745SOL    HW111665   3.129   1.109   2.009 -0.8814  0.7483 -1.3892
  745SOL    HW211666   3.238   1.218   1.956  0.6259 -0.2081 -0.2898
  746SOL     OW11667   5.072   2.473   0.516 -0.1071  0.0243  0.0671
  746SOL    HW111668   5.014   2.550   0.488 -0.1066  0.1958  0.5265
  746SOL    HW211669   5.103   2.488   0.610  1.5092  0.4207 -0.5221
  747SOL     OW11670   2.946   6.530   0.486  0.3316  0.0210  0.1486
  747SOL    HW111671   2.930   6.490   0.577 -2.5681 -0.2471 -0.4306
  747SOL    HW211672   2.900   6.618   0.481  0.3149 -0.0614 -1.1245
  748SOL     OW11673   2.629   0.604   0.753  0.3015  0.0713 -0.7535
  748SOL    HW111674   2.646   0.580   0.849 -0.1313  0.6191 -0.5371
  748SOL    HW211675   2.709   0.653   0.717  0.5027 -0.2153 -0.6985
  749SOL     OW11676   3.147   1.299   0.693  0.6978 -0.0757 -0.0822
  749SOL    HW111677   3.081   1.278   0.766 -0.7690  0.6724 -1.1687
  749SOL    HW211678   3.218   1.229   0.692 -1.5679 -2.4591 -0.6311
  750SOL     OW11679   3.066   8.387   1.796 -0.0266 -0.2053  0.0810
  750SOL    HW111680   3.141   8.326   1.768 -0.2702 -0.3589 -0.2475
  750SOL    HW211681   3.102   8.478   1.815  0.2794 -0.3389  0.1474
  752SOL     OW11682   4.838   3.654   1.734 -0.0920  0.2770 -0.7088
  752SOL    HW111683   4.784   3.685   1.813  0.4114 -0.5817 -0.0152
  752SOL    HW211684   4.923   3.706   1.729 -0.2898  0.5868 -0.9143
  753SOL     OW11685   5.118   1.867   0.259 -0.1710  0.3381  0.2475
  753SOL    HW111686   5.107   1.835   0.165  1.6410 -1.2274  0.5409
  753SOL    HW211687   5.080   1.799   0.322 -0.6868  1.0214  0.6825
  754SOL     OW11688   2.501   1.407   0.534  0.3472  0.0389  0.1491
  754SOL    HW111689   2.551   1.362   0.460  1.4080  1.2885  0.0716
  754SOL    HW211690   2.406   1.423   0.505  0.3333 -0.8721 -0.3356
  755SOL     OW11691   2.952   2.237   0.940  0.5002 -0.2951  0.3523
  755SOL    HW111692   3.019   2.166   0.919  0.7310 -0.1541  0.6026
  755SOL    HW211693   2.868   2.221   0.887  1.4839  0.7265 -1.5674
  756SOL     OW11694   3.446   0.440   0.455 -0.0492 -0.4681  0.0720
  756SOL    HW111695   3.409   0.349   0.435 -0.2079 -0.6500  1.1633
  756SOL    HW211696   3.529   0.455   0.402 -0.8480 -0.6580 -1.2464
  757SOL     OW11697   1.981   7.936   1.265 -0.1958 -0.0750  0.1524
  757SOL    HW111698   1.918   7.868   1.227  0.9135 -2.3033  2.1251
  757SOL    HW211699   2.046   7.965   1.195  0.0081 -1.8943 -0.4302
  758SOL     OW11700   2.206   0.109   1.960 -0.2425  0.0620  0.6881
  758SOL    HW111701   2.123   0.085   2.009  0.0757 -1.3632  0.5285
  758SOL    HW211702   2.232   0.035   1.899  1.5798  0.1853  1.2995
  759SOL     OW11703   2.315   7.331   1.518  0.1585 -0.0451  0.0311
  759SOL    HW111704   2.286   7.235   1.520  1.5247 -0.5246 -1.9487
  759SOL    HW211705   2.366   7.352   1.601  0.7392 -1.3166  0.0124
  760SOL     OW11706   2.496   4.782   1.415  0.2451 -0.3953  0.2039
  760SOL    HW111707   2.529   4.852   1.478 -1.2621  1.8426 -1.3698
  760SOL    HW211708   2.512   4.691   1.453  1.2735  0.8351  2.8067
  761SOL     OW11709   2.085   1.959   1.216  0.3301 -0.0048 -0.2221
  761SOL    HW111710   2.157   1.890   1.223  0.2301 -0.1313 -0.4237
  761SOL    HW211711   2.117   2.045   1.257  0.4106 -0.2024  0.1305
  764SOL     OW11712   2.853   8.263   1.928  0.6072 -0.2316  0.1370
  764SOL    HW111713   2.784   8.256   1.856 -0.7157  0.3411  1.3220
  764SOL    HW211714   2.940   8.290   1.888  0.6687 -2.9126 -1.6701
  766SOL     OW11715   3.907   2.280   1.394 -0.8745  0.5503 -0.2910
  766SOL    HW111716   3.853   2.265   1.311 -1.2424  0.2066  0.0081
  766SOL    HW211717   3.920   2.193   1.441 -1.7434  0.9407  0.6735
  767SOL     OW11718   5.069   2.849   0.842  0.1222  0.6019  0.6455
  767SOL    HW111719   5.052   2.853   0.940  1.0720  0.7713  0.8017
  767SOL    HW211720   5.132   2.922   0.815  0.2268  0.2761 -0.0115
  768SOL     OW11721   2.774   9.085   1.844 -0.6931  0.9824  0.7789
  768SOL    HW111722   2.775   9.008   1.780 -1.1243  1.5608  0.0610
  768SOL    HW211723   2.716   9.063   1.922  0.8213 -0.2154  1.5984
  769SOL     OW11724   3.453   2.538   0.903 -0.1228  0.3563  0.1606
  769SOL    HW111725   3.412   2.450   0.878  1.2739  0.0326 -1.0746
  769SOL    HW211726   3.515   2.567   0.830  0.0219  1.9909  0.9235
  771SOL     OW11727   4.432   1.949   1.114 -0.0791  0.5497 -0.4664
  771SOL    HW111728   4.524   1.982   1.135 -0.7592  1.6200  0.9132
  771SOL    HW211729   4.383   2.018   1.062 -0.6164  0.6288  0.1391
  772SOL     OW11730   2.623   2.985   0.694 -0.1895  0.2100 -0.2408
  772SOL    HW111731   2.648   2.909   0.634 -0.1385  1.1538 -1.4259
  772SOL    HW211732   2.647   2.962   0.788 -0.9722 -1.5956 -0.4550
  773SOL     OW11733   2.911   8.606   2.344 -0.3727  0.4952 -0.4356
  773SOL    HW111734   2.966   8.522   2.351  0.9275  1.3950  0.4361
  773SOL    HW211735   2.881   8.618   2.249 -0.6157 -0.9753 -0.5612
  774SOL     OW11736   1.995   7.566   0.948  0.0019  0.4635 -0.7418
  774SOL    HW111737   1.996   7.470   0.978  0.1968  0.4744 -0.7150
  774SOL    HW211738   2.089   7.599   0.939  0.0058 -0.1611 -3.4087
  776SOL     OW11739   3.546   3.059   0.825  0.7716 -0.2607  0.8845
  776SOL    HW111740   3.490   2.976   0.828  1.2116 -0.6903 -1.8567
  776SOL    HW211741   3.488   3.139   0.842 -0.7252 -0.7102 -1.8143
  777SOL     OW11742   2.105   6.664   1.738  0.2444 -0.4891  0.2720
  777SOL    HW111743   2.070   6.618   1.819 -0.5089  0.3298  0.4232
  777SOL    HW211744   2.205   6.668   1.742  0.1606  0.7323  1.8364
  778SOL     OW11745   2.933   6.350   1.136 -0.2351 -0.0811 -0.2423
  778SOL    HW111746   2.894   6.328   1.047 -0.7661  1.7079 -0.4587
  778SOL    HW211747   2.910   6.277   1.201  1.8365 -2.3987 -2.0046
  779SOL     OW11748   3.076   7.759   1.171  0.2216  0.1261 -0.2144
  779SOL    HW111749   3.173   7.763   1.149 -0.0595  1.3468 -1.3285
  779SOL    HW211750   3.027   7.718   1.094 -0.1737 -0.1948  0.2119
  780SOL     OW11751   2.272   0.763   0.975 -0.2882 -0.2351 -0.6635
  780SOL    HW111752   2.334   0.772   1.053  0.7340  0.0288 -1.4966
  780SOL    HW211753   2.324   0.766   0.890 -1.3902 -0.5349 -1.3673
  781SOL     OW11754   2.709   2.966   2.001 -0.3153 -0.1140  0.3397
  781SOL    HW111755   2.678   2.937   2.092  0.5433 -2.5721 -0.1110
  781SOL    HW211756   2.657   2.917   1.931  0.3558  0.3227 -0.4772
  782SOL     OW11757   1.884   7.016   1.793 -0.0009 -0.2828 -0.5398
  782SOL    HW111758   1.865   6.974   1.882  0.2040  1.5185  0.3717
  782SOL    HW211759   1.949   7.091   1.805 -0.2514  0.2076 -2.1611
  784SOL     OW11760   2.024   6.890   1.603  0.2783 -0.5322  0.3437
  784SOL    HW111761   2.054   6.803   1.644  2.5834  1.0301  2.1397
  784SOL    HW211762   1.957   6.933   1.663  1.4884  0.3898  1.0545
  785SOL     OW11763   1.871   0.457   1.576  0.2527 -0.7734 -0.2477
  785SOL    HW111764   1.844   0.547   1.610  3.1459  0.3554 -0.8299
  785SOL    HW211765   1.933   0.414   1.642 -0.0022 -1.7541 -0.6445
  786SOL     OW11766   3.974   8.612   0.269 -0.3669 -0.2246 -0.3986
  786SOL    HW111767   3.928   8.548   0.207 -1.1383  0.4574 -0.5378
  786SOL    HW211768   4.032   8.561   0.333 -1.6919 -1.1269  0.1049
  788SOL     OW11769   2.849   2.511   1.479 -0.3353 -0.0086  0.1967
  788SOL    HW111770   2.780   2.568   1.434 -0.4208  0.7517  1.2627
  788SOL    HW211771   2.827   2.503   1.577 -0.3834 -1.9641  0.0409
  789SOL     OW11772   3.906   0.618   0.818 -0.8833  0.1581  0.1514
  789SOL    HW111773   3.812   0.647   0.835 -0.7065  0.4231  0.7078
  789SOL    HW211774   3.956   0.690   0.771 -0.7904  0.2655  0.4111
  790SOL     OW11775   4.815   2.225   0.272  0.3139 -0.1622  0.3318
  790SOL    HW111776   4.869   2.199   0.192  0.0323  0.2300  0.0117
  790SOL    HW211777   4.776   2.143   0.314  0.3057 -0.3531 -0.0449
  791SOL     OW11778   2.338   7.785   1.922  0.1170  0.3358 -0.8626
  791SOL    HW111779   2.377   7.809   2.011  0.7588  0.6945 -1.2328
  791SOL    HW211780   2.248   7.743   1.935  2.1236 -3.9256  0.2914
  792SOL     OW11781   2.900   8.265   2.207 -0.0093  0.2474  0.2667
  792SOL    HW111782   2.965   8.190   2.201  0.4875  0.7392 -0.6728
  792SOL    HW211783   2.869   8.289   2.115 -1.9006 -0.3069  0.7290
  793SOL     OW11784   4.853   4.091   0.748 -0.1823 -0.0840  0.1368
  793SOL    HW111785   4.758   4.071   0.723 -0.1028  0.8470 -0.9468
  793SOL    HW211786   4.872   4.188   0.733  0.8667 -0.2083  0.6044
  794SOL     OW11787   2.217   5.570   1.575 -0.8785  0.0162 -0.3830
  794SOL    HW111788   2.164   5.608   1.498 -0.8664  0.6135 -0.0998
  794SOL    HW211789   2.312   5.560   1.547 -0.4297  2.3160  0.2567
  795SOL     OW11790   2.483   2.743   0.945 -0.2010  0.2937 -0.3810
  795SOL    HW111791   2.519   2.718   0.855  1.0939  0.9287 -0.0467
  795SOL    HW211792   2.407   2.808   0.933  0.1539  0.6002 -1.0051
  797SOL     OW11793   2.851   4.309   2.001  0.1689  0.1062 -0.2975
  797SOL    HW111794   2.838   4.373   1.926  1.5328 -0.8086 -1.3242
  797SOL    HW211795   2.794   4.336   2.078 -0.1008  1.9109 -1.1230
  798SOL     OW11796   4.410   4.676   0.331  0.4393 -0.0720 -0.3934
  798SOL    HW111797   4.503   4.665   0.366  0.0721 -2.0565  0.0208
  798SOL    HW211798   4.407   4.753   0.268  2.4316 -0.1686 -0.6330
  800SOL     OW11799   3.043   7.747   1.700  0.6160 -0.0279  0.2190
  800SOL    HW111800   3.104   7.704   1.633  2.1511  0.4726  1.2777
  800SOL    HW211801   2.982   7.810   1.652  1.1242 -0.3027 -0.8193
  801SOL     OW11802   2.313   7.335   0.437  0.3881 -0.2915  0.1537
  801SOL    HW111803   2.270   7.385   0.512  0.9473  0.1182  0.1973
  801SOL    HW211804   2.242   7.300   0.376  0.0653  2.3850 -1.0667
  803SOL     OW11805   2.262   1.749   1.195  0.1437 -0.8884  0.4219
  803SOL    HW111806   2.213   1.664   1.214  2.3696 -2.3674 -0.1963
  803SOL    HW211807   2.334   1.761   1.263  0.0577  0.3522  0.3023
  804SOL     OW11808   4.272   3.402   0.367  0.3269 -0.2096  0.1806
  804SOL    HW111809   4.273   3.313   0.411  2.5921 -1.6714 -2.6466
  804SOL    HW211810   4.224   3.396   0.279 -0.3507  1.5819  0.4000
  805SOL     OW11811   2.099   1.957   2.076 -0.2613  0.4068 -0.3647
  805SOL    HW111812   2.022   1.928   2.020  0.6764 -0.2522 -1.3251
  805SOL    HW211813   2.079   1.941   2.172 -0.6435 -1.3469 -0.7363
  807SOL     OW11814   3.539   0.794   1.944  0.0664 -0.4059 -0.6768
  807SOL    HW111815   3.441   0.817   1.937  0.0314 -0.2382  0.2922
  807SOL    HW211816   3.557   0.711   1.892 -0.3954  0.1260 -1.7115
  808SOL     OW11817   4.901   2.674   1.129 -0.0181 -0.0382  0.1873
  808SOL    HW111818   4.978   2.611   1.125 -0.8693 -1.0340 -0.7767
  808SOL    HW211819   4.816   2.625   1.110 -0.6838  1.4372 -0.7493
  809SOL     OW11820   4.060   5.207   1.936  0.3923 -0.2283  0.2815
  809SOL    HW111821   4.031   5.136   2.001  0.4681  0.2683  0.8612
  809SOL    HW211822   3.980   5.254   1.900  0.2968 -1.0849 -0.6577
  810SOL     OW11823   2.681   8.583   1.264  0.3758  0.3934 -0.1336
  810SOL    HW111824   2.708   8.489   1.281 -1.1280  0.0090  0.2195
  810SOL    HW211825   2.669   8.631   1.351  0.6792  0.7722 -0.2998
  811SOL     OW11826   2.224   5.720   1.804  0.0774 -0.4913 -0.1312
  811SOL    HW111827   2.213   5.644   1.740 -1.3948  0.7650 -1.4272
  811SOL    HW211828   2.307   5.706   1.858  1.4181 -1.5797 -2.3653
  813SOL     OW11829   3.508   1.693   0.958  0.2984  0.1211 -0.2809
  813SOL    HW111830   3.496   1.594   0.951 -0.7141 -0.0242  2.8115
  813SOL    HW211831   3.603   1.717   0.939  0.5053 -1.3951 -1.2652
  814SOL     OW11832   2.014   0.400   1.999 -0.3203  0.1453  0.1170
  814SOL    HW111833   1.922   0.418   1.963 -0.0748  0.8338 -0.1583
  814SOL    HW211834   2.066   0.348   1.931  0.4582  2.2567 -0.9366
  815SOL     OW11835   3.973   8.670   0.741 -0.3094  0.0131 -0.8195
  815SOL    HW111836   4.024   8.736   0.795  0.4810 -0.8380 -0.5224
  815SOL    HW211837   3.892   8.714   0.702 -1.1662  0.4978  1.4547
  817SOL     OW11838   3.032   8.131   0.497  0.5638 -0.1287  1.2462
  817SOL    HW111839   2.989   8.213   0.534  0.6779  1.0663 -1.1512
  817SOL    HW211840   3.108   8.158   0.437  0.4790 -1.9576  0.2762
  818SOL     OW11841   3.365   1.153   0.687  0.3796 -0.2026  0.1555
  818SOL    HW111842   3.338   1.057   0.675  0.7248 -0.2693 -0.1034
  818SOL    HW211843   3.392   1.191   0.598 -1.1604  0.5659 -0.0082
  819SOL     OW11844   4.382   0.839   1.446  0.4304  0.4417  0.9006
  819SOL    HW111845   4.287   0.809   1.452  0.4756  0.3042  0.9306
  819SOL    HW211846   4.404   0.899   1.522  0.3884  0.4156  0.9329
  820SOL     OW11847   4.646   2.152   1.095  0.1292 -0.2360  0.6420
  820SOL    HW111848   4.740   2.181   1.113  0.2844 -0.4701  0.2319
  820SOL    HW211849   4.584   2.195   1.161  0.2314  1.8497 -0.5618
  821SOL     OW11850   3.280   2.322   0.854 -0.3544  0.3212 -0.1354
  821SOL    HW111851   3.269   2.227   0.825 -0.6108  0.5843 -0.9200
  821SOL    HW211852   3.196   2.372   0.833 -0.0566  0.8197 -0.1382
  822SOL     OW11853   2.362   1.685   0.583  0.1854 -0.1399 -0.2678
  822SOL    HW111854   2.294   1.623   0.622  1.3970 -1.0675  0.3886
  822SOL    HW211855   2.348   1.692   0.484  0.4029 -1.9232 -0.4394
  823SOL     OW11856   3.751   3.346   1.544 -0.5846  0.5152  0.6079
  823SOL    HW111857   3.681   3.332   1.474 -0.6200 -1.8027  1.0580
  823SOL    HW211858   3.709   3.344   1.635 -0.2962  1.7896  0.7788
  824SOL     OW11859   4.582   2.423   0.639  0.0143 -0.2576 -0.0176
  824SOL    HW111860   4.663   2.417   0.581  0.0575  1.6953 -0.2069
  824SOL    HW211861   4.575   2.341   0.696  2.0755 -0.4754 -0.0392
  825SOL     OW11862   3.807   9.052   1.640  0.0200  0.2022  0.4831
  825SOL    HW111863   3.827   9.043   1.543  1.2238 -2.3706  0.9226
  825SOL    HW211864   3.825   9.146   1.670 -0.1085  0.9305 -1.7044
  826SOL     OW11865   3.000   2.230   1.517  0.0899 -0.8874  0.6337
  826SOL    HW111866   3.088   2.247   1.473 -0.4360 -0.7427 -0.3795
  826SOL    HW211867   2.938   2.307   1.499 -0.0684 -0.7209  1.8174
  827SOL     OW11868   3.104   1.113   1.313 -0.1066  0.4251  0.4661
  827SOL    HW111869   3.175   1.137   1.247 -1.3679  0.8827 -0.7750
  827SOL    HW211870   3.064   1.025   1.288 -0.0656  0.2294  1.0824
  828SOL     OW11871   3.489   8.767   0.708  0.6059 -0.2412 -0.5180
  828SOL    HW111872   3.441   8.681   0.696 -0.1408  0.3739 -2.2179
  828SOL    HW211873   3.427   8.836   0.745  1.4097 -0.6261  1.5835
  829SOL     OW11874   2.157   6.250   0.977  0.0691  0.1156 -0.1501
  829SOL    HW111875   2.101   6.323   0.937  1.2027  2.4409  2.3033
  829SOL    HW211876   2.104   6.202   1.047 -0.5634 -1.2362 -1.5279
  830SOL     OW11877   4.664   2.597   2.149  0.2623 -0.0075  0.2829
  830SOL    HW111878   4.682   2.516   2.093 -1.2993  2.3597 -3.7552
  830SOL    HW211879   4.750   2.628   2.190  1.1256 -2.8005  0.6935
  834SOL     OW11880   3.727   3.996   1.067  0.3811  0.3402 -0.7594
  834SOL    HW111881   3.816   3.971   1.029  1.2676  0.5373  1.1489
  834SOL    HW211882   3.668   3.915   1.067  1.4310 -0.4511  0.3534
  836SOL     OW11883   3.291   3.190   0.260  0.0330 -0.5323 -0.3311
  836SOL    HW111884   3.290   3.182   0.360 -2.5809  1.5034 -0.1186
  836SOL    HW211885   3.196   3.196   0.227  0.9165  1.2532 -2.6859
  837SOL     OW11886   2.568   1.903   2.056  0.2051  0.2561  0.0914
  837SOL    HW111887   2.473   1.935   2.047  0.0145  0.0272  1.2977
  837SOL    HW211888   2.630   1.981   2.046 -0.1465  0.5542  0.1968
  838SOL     OW11889   3.259   9.618   0.295 -0.3255 -0.2707  0.4666
  838SOL    HW111890   3.290   9.577   0.381  0.6163 -2.4375 -0.8540
  838SOL    HW211891   3.263   9.549   0.222  0.2109  1.8947 -1.6098
  839SOL     OW11892   2.236   8.402   2.096 -0.3832 -0.1329 -0.2193
  839SOL    HW111893   2.249   8.501   2.088  0.8067 -0.2912 -0.4020
  839SOL    HW211894   2.245   8.375   2.192 -3.1647  0.2485  0.1743
  840SOL     OW11895   3.429   3.425   1.130 -0.1780 -0.8511  0.1946
  840SOL    HW111896   3.446   3.386   1.039  0.8987 -2.4850  1.0670
  840SOL    HW211897   3.331   3.439   1.142 -0.3196 -0.4217 -1.2931
  841SOL     OW11898   4.094   0.891   1.590 -0.0917  0.0817  0.8358
  841SOL    HW111899   4.010   0.905   1.642  0.7885 -1.0471  2.6078
  841SOL    HW211900   4.081   0.817   1.524 -0.5470  0.0435  0.9643
  842SOL     OW11901   2.638   7.992   1.244  0.0715 -0.5718 -0.6354
  842SOL    HW111902   2.554   8.047   1.239  1.5378  1.9072  1.1040
  842SOL    HW211903   2.701   8.021   1.172  1.5664  1.3393  1.3899
  843SOL     OW11904   4.074   2.587   1.165  0.6336 -0.0435  0.0435
  843SOL    HW111905   4.085   2.497   1.124 -2.6275  0.1967 -1.5431
  843SOL    HW211906   4.033   2.577   1.256 -0.0792 -0.1556 -0.2876
  844SOL     OW11907   2.847   0.733   0.641  0.1208  0.1842  0.0694
  844SOL    HW111908   2.822   0.826   0.615  2.3451  1.2764  1.6457
  844SOL    HW211909   2.859   0.677   0.559  1.0967  1.9170 -0.9945
  845SOL     OW11910   2.860   2.339   1.184 -0.0854 -0.0818 -0.0236
  845SOL    HW111911   2.805   2.272   1.235 -1.8292  0.4024 -1.2137
  845SOL    HW211912   2.896   2.295   1.101  0.3408 -0.0544  0.1438
  847SOL     OW11913   4.016   3.547   2.167 -0.1956 -0.1881 -0.3311
  847SOL    HW111914   3.967   3.624   2.126 -0.7110 -0.0116  0.5838
  847SOL    HW211915   4.019   3.559   2.266 -0.6868 -1.5736 -0.1321
  848SOL     OW11916   3.788   8.000   0.565  0.0070  0.4308 -0.3084
  848SOL    HW111917   3.726   7.989   0.643 -1.3754  3.2450 -0.9475
  848SOL    HW211918   3.873   8.043   0.596  0.1741 -0.0677 -0.0648
  849SOL     OW11919   3.276   0.900   0.698 -0.0267  0.0334  1.2526
  849SOL    HW111920   3.292   0.829   0.630 -0.5411  1.5113 -0.4463
  849SOL    HW211921   3.181   0.930   0.695  0.0596  0.4509  2.2909
  851SOL     OW11922   2.407   6.798   1.460  0.4585  0.5953 -0.1269
  851SOL    HW111923   2.395   6.731   1.534  0.2355  0.4584 -0.2869
  851SOL    HW211924   2.368   6.886   1.487 -1.2237  0.0635 -0.7820
  852SOL     OW11925   2.818   0.555   1.319  0.7023 -0.1590  0.0816
  852SOL    HW111926   2.898   0.497   1.334  0.5783 -0.3464  0.0190
  852SOL    HW211927   2.839   0.649   1.346  1.3416  0.0408 -1.0969
  853SOL     OW11928   3.003   3.348   1.413 -0.2536  0.6794 -0.3110
  853SOL    HW111929   2.906   3.337   1.432 -0.1754  0.0123 -0.2896
  853SOL    HW211930   3.023   3.317   1.320  0.1149 -0.1728  0.0465
  854SOL     OW11931   3.406   2.512   2.365 -0.1804  0.1471  0.3972
  854SOL    HW111932   3.471   2.521   2.441 -0.0234  1.4361  0.1190
  854SOL    HW211933   3.455   2.514   2.279 -0.5890  1.1873  0.1825
  855SOL     OW11934   2.776   4.395   1.110  0.3325  0.5580  0.2909
  855SOL    HW111935   2.835   4.364   1.185 -0.7265  1.7781  1.6618
  855SOL    HW211936   2.739   4.485   1.132 -0.7565  0.5173 -1.2844
  857SOL     OW11937   3.163   3.499   0.685 -0.4823  0.2712 -0.0345
  857SOL    HW111938   3.204   3.553   0.759  0.3380  0.1973 -0.4236
  857SOL    HW211939   3.112   3.559   0.624 -0.1016  0.5186 -0.1102
  859SOL     OW11940   4.078   0.724   1.384 -0.1081 -0.3051 -0.4094
  859SOL    HW111941   3.995   0.673   1.406  1.1525 -2.7696 -1.1898
  859SOL    HW211942   4.107   0.701   1.291  2.2719 -0.6792  0.3920
  861SOL     OW11943   1.926   0.911   0.390 -0.0914 -0.4047 -0.4793
  861SOL    HW111944   1.864   0.874   0.460  0.6839  0.8819  0.9235
  861SOL    HW211945   2.017   0.873   0.404  0.3707  0.9008  0.0571
  862SOL     OW11946   3.849   1.962   1.790 -0.0291  0.2057 -0.3429
  862SOL    HW111947   3.885   1.989   1.880 -0.6961 -2.0509  0.6347
  862SOL    HW211948   3.749   1.970   1.791 -0.0471  0.0422 -0.8512
  863SOL     OW11949   3.094   9.656   0.566  0.0012 -0.1204  0.1603
  863SOL    HW111950   3.193   9.659   0.554 -0.0346 -0.8343 -0.3062
  863SOL    HW211951   3.061   9.564   0.548 -0.9108  0.4033 -0.8512
  865SOL     OW11952   4.240   3.241   1.735  0.1039  0.3829 -1.0397
  865SOL    HW111953   4.192   3.300   1.799  0.2844  1.1206 -1.5840
  865SOL    HW211954   4.285   3.167   1.785  2.6269  2.5625 -0.0160
  868SOL     OW11955   2.959   0.089   0.413  0.0313  0.0186 -0.4347
  868SOL    HW111956   2.998  -0.003   0.407  0.9127  0.3318  0.4713
  868SOL    HW211957   2.887   0.099   0.343 -2.0705 -2.3106  1.3221
  869SOL     OW11958   3.665   9.788   2.178 -0.0151 -0.1030 -0.1009
  869SOL    HW111959   3.730   9.776   2.252  0.5669  0.7948 -0.4562
  869SOL    HW211960   3.591   9.849   2.207  0.1752  0.1900 -0.2229
  870SOL     OW11961   3.049   4.314   2.255  0.3231 -0.0707 -0.6417
  870SOL    HW111962   3.082   4.374   2.183 -1.7833  0.7041 -1.0029
  870SOL    HW211963   3.034   4.222   2.218  1.1192 -0.1748 -0.7065
  871SOL     OW11964   4.226   1.215   0.528 -0.2530 -0.1513  0.2549
  871SOL    HW111965   4.310   1.216   0.474 -0.0351 -2.2975  0.4975
  871SOL    HW211966   4.185   1.306   0.529 -0.8306 -0.2792 -4.3587
  872SOL     OW11967   2.815   3.682   2.160 -0.1831  1.2429 -0.6713
  872SOL    HW111968   2.799   3.710   2.066 -1.3190 -0.2769 -0.9524
  872SOL    HW211969   2.806   3.583   2.167 -0.5528  1.3897  1.1305
  873SOL     OW11970   1.984   5.851   0.803 -0.3221  0.2943 -0.0709
  873SOL    HW111971   1.963   5.760   0.767  0.4532  0.1178 -0.1039
  873SOL    HW211972   1.906   5.912   0.789 -0.6577 -0.2286 -0.5101
  874SOL     OW11973   2.720   3.381   2.321  0.5743  0.2471  0.7546
  874SOL    HW111974   2.800   3.415   2.370  0.4485  0.0648  1.0841
  874SOL    HW211975   2.747   3.301   2.266  0.1670 -1.1434  2.5283
  875SOL     OW11976   2.782   2.568   1.076  0.8041 -0.1681 -0.4884
  875SOL    HW111977   2.831   2.494   1.122  1.2785  0.5858  0.2251
  875SOL    HW211978   2.803   2.655   1.121 -1.2925  0.1512 -0.0809
  876SOL     OW11979   3.520   3.025   2.143  0.3299 -0.4389  0.2918
  876SOL    HW111980   3.583   3.102   2.143 -1.0654  0.7280  0.2546
  876SOL    HW211981   3.571   2.940   2.128  1.4308  0.8343 -3.6650
  877SOL     OW11982   2.880   8.717   0.692  0.2429  0.1027 -0.7738
  877SOL    HW111983   2.968   8.722   0.646 -0.0459  1.0152 -1.2318
  877SOL    HW211984   2.812   8.768   0.640 -0.6944 -1.0769 -0.7273
  878SOL     OW11985   4.495   4.329   0.352 -0.4574 -0.1084  0.1760
  878SOL    HW111986   4.582   4.307   0.307  0.0086  0.4749  0.7690
  878SOL    HW211987   4.444   4.394   0.296 -0.4213 -0.2972 -0.0782
  879SOL     OW11988   5.473   3.000   0.617 -0.2716  0.4765  0.2195
  879SOL    HW111989   5.453   2.976   0.522  1.2472  0.6852 -0.1608
  879SOL    HW211990   5.510   2.921   0.665 -2.1762  0.0269  0.9839
  880SOL     OW11991   3.833   3.392   1.150  0.1046 -0.2867  0.2542
  880SOL    HW111992   3.893   3.312   1.142  0.8328  0.2834 -0.0106
  880SOL    HW211993   3.760   3.371   1.216  1.2723 -0.5773  1.4988
  881SOL     OW11994   4.090   3.311   0.897  0.2586  0.4400  0.3665
  881SOL    HW111995   4.186   3.311   0.925  0.0793  1.1844  1.0117
  881SOL    HW211996   4.049   3.400   0.919 -0.1863  0.6537 -1.2842
  882SOL     OW11997   2.053   7.793   1.489 -0.0275  0.6259 -0.0533
  882SOL    HW111998   2.028   7.818   1.396  0.7024  1.2381 -0.0964
  882SOL    HW211999   2.139   7.742   1.488  0.0630  0.7673  0.2971
  883SOL     OW12000   2.853   8.194   0.889 -0.1769  0.1922  0.1369
  883SOL    HW112001   2.863   8.237   0.799 -1.2569 -1.4126 -0.7803
  883SOL    HW212002   2.923   8.124   0.901 -0.4814 -0.1023  0.2251
  884SOL     OW12003   3.348   5.624   0.441  0.3316 -0.3951  0.2252
  884SOL    HW112004   3.415   5.632   0.516  1.4941  0.6238 -0.8943
  884SOL    HW212005   3.371   5.546   0.384  0.1180 -0.4895  0.2674
  885SOL     OW12006   4.258   2.009   2.087  0.1422  0.1797  0.3180
  885SOL    HW112007   4.341   2.023   2.033  0.1346 -1.4660 -0.1532
  885SOL    HW212008   4.270   2.050   2.178  1.3210  0.3016  0.1149
  887SOL     OW12009   2.894   3.415   2.041  0.4726 -0.0511  0.1626
  887SOL    HW112010   2.878   3.321   2.072 -0.8311  0.3980  0.8724
  887SOL    HW212011   2.843   3.431   1.956 -0.5671  0.4827  0.8732
  889SOL     OW12012   3.227   0.504   1.449 -0.1774 -0.1718 -0.0195
  889SOL    HW112013   3.181   0.499   1.361 -0.3385  2.3108 -0.0885
  889SOL    HW212014   3.212   0.418   1.499 -0.9227 -1.2025 -1.9534
  890SOL     OW12015   3.425   5.374   0.363 -0.1025  0.5148  0.3645
  890SOL    HW112016   3.405   5.278   0.340 -1.5475  0.4473  1.9057
  890SOL    HW212017   3.519   5.394   0.335 -0.0240 -1.1235 -0.6844
  892SOL     OW12018   4.257   3.196   0.548  0.0100 -0.1416  0.4854
  892SOL    HW112019   4.328   3.238   0.604 -0.0151 -0.1970  0.5585
  892SOL    HW212020   4.258   3.096   0.562  0.7968 -0.2778 -0.5180
  893SOL     OW12021   3.020   0.552   1.018 -0.0623  0.0784 -0.2401
  893SOL    HW112022   3.073   0.498   0.953 -1.3278 -1.1268 -0.2997
  893SOL    HW212023   2.923   0.542   0.997 -0.3791  1.1594  0.7033
  894SOL     OW12024   2.298   9.072   1.109  0.7683  0.5847  0.1562
  894SOL    HW112025   2.311   9.063   1.208  1.2396  0.1416  0.0541
  894SOL    HW212026   2.385   9.058   1.062  0.4515  0.3123 -0.3542
  895SOL     OW12027   3.218   0.754   2.159 -0.3371  0.0365  0.0442
  895SOL    HW112028   3.265   0.670   2.133 -0.2138  0.4073 -0.9370
  895SOL    HW212029   3.133   0.731   2.207  0.1466 -0.6374  0.5991
  896SOL     OW12030   4.742   2.036   0.793  0.4875 -0.4387  0.4728
  896SOL    HW112031   4.720   1.987   0.878  0.7630 -1.7584 -0.1994
  896SOL    HW212032   4.664   2.030   0.731  0.4924  0.0492  0.4227
  897SOL     OW12033   2.871   0.807   1.468  0.3962 -0.6728  0.2166
  897SOL    HW112034   2.955   0.760   1.497  1.6622  0.8120 -0.9707
  897SOL    HW212035   2.815   0.829   1.548  1.4854 -1.0326  1.0798
  898SOL     OW12036   2.568   5.817   2.168  0.2800  0.0390  0.5071
  898SOL    HW112037   2.562   5.720   2.193 -0.5706  0.5349  2.2914
  898SOL    HW212038   2.662   5.849   2.176  0.6396 -0.7463 -0.5182
  899SOL     OW12039   4.539   2.090   0.609 -0.0132  0.5914  0.4140
  899SOL    HW112040   4.597   2.071   0.530  0.3556  0.2187  0.7693
  899SOL    HW212041   4.443   2.072   0.585  0.2733 -1.1598  0.5631
  900SOL     OW12042   2.815   2.506   1.751  0.3045 -0.2260 -0.2063
  900SOL    HW112043   2.801   2.409   1.771  2.4434 -0.7391 -0.9877
  900SOL    HW212044   2.750   2.561   1.803 -0.2780 -2.0205  1.0118
  901SOL     OW12045   4.838   3.664   0.839 -0.1596  0.1180 -0.1877
  901SOL    HW112046   4.774   3.684   0.913 -1.7146  1.9944 -1.9742
  901SOL    HW212047   4.907   3.737   0.833  1.0195 -0.9174  0.5025
  902SOL     OW12048   3.304   1.008   1.808 -0.1049 -0.7455  0.5558
  902SOL    HW112049   3.390   1.055   1.790  0.5821 -2.2440 -0.2619
  902SOL    HW212050   3.238   1.028   1.736  0.6343 -2.0462 -0.5046
  903SOL     OW12051   3.144   8.655   1.043 -0.2029  0.1036  0.0261
  903SOL    HW112052   3.165   8.699   0.955  0.3329  0.2763  0.2374
  903SOL    HW212053   3.134   8.726   1.113  1.1978 -0.1332  0.4805
  904SOL     OW12054   2.962   0.234   1.585 -0.2894 -0.5723  0.2961
  904SOL    HW112055   3.017   0.291   1.647  1.2072 -0.7669 -0.8324
  904SOL    HW212056   2.865   0.251   1.603  0.1180  0.3320  1.8086
  906SOL     OW12057   4.984   2.444   0.813 -0.3470 -0.1720  0.1054
  906SOL    HW112058   4.967   2.351   0.781 -1.0016  0.3876 -1.2033
  906SOL    HW212059   5.030   2.441   0.902  0.0409 -1.7392 -0.1387
  908SOL     OW12060   3.547   1.956   1.318  0.3695  0.7378 -0.1074
  908SOL    HW112061   3.519   1.959   1.222  2.6423 -0.6489 -0.8735
  908SOL    HW212062   3.470   1.930   1.375 -0.8258  0.8451 -1.6472
  910SOL     OW12063   5.082   2.450   1.693  0.0262  0.1989  0.1210
  910SOL    HW112064   5.125   2.526   1.645  0.0117  0.8243  1.0757
  910SOL    HW212065   5.046   2.384   1.627  0.6035  0.7071 -0.7034
  911SOL     OW12066   5.298   3.351   1.458  0.4137  0.0198  0.2696
  911SOL    HW112067   5.319   3.429   1.399 -1.1919 -0.5171 -1.0406
  911SOL    HW212068   5.258   3.384   1.544 -0.5791  0.6336 -0.4167
  912SOL     OW12069   2.879   3.114   0.645  0.4612  0.9784  0.4703
  912SOL    HW112070   2.789   3.111   0.689  0.2027  0.8964 -0.0632
  912SOL    HW212071   2.941   3.052   0.693  0.4931  1.7269  1.4034
  913SOL     OW12072   2.602   4.797   1.083  0.2989  0.5931 -0.2271
  913SOL    HW112073   2.653   4.741   1.148  0.3880  0.8137 -0.1054
  913SOL    HW212074   2.504   4.790   1.101  0.3704  1.2611  0.4207
  914SOL     OW12075   2.394   0.726   0.719 -0.1079 -0.6002  0.2623
  914SOL    HW112076   2.414   0.781   0.638 -1.4099 -0.2726  0.1407
  914SOL    HW212077   2.478   0.684   0.753  0.4474 -0.7714 -1.2706
  915SOL     OW12078   4.287   0.827   1.782  0.0925 -0.2103 -0.0582
  915SOL    HW112079   4.363   0.881   1.818 -2.1302  2.4191  0.9351
  915SOL    HW212080   4.246   0.876   1.705 -1.8611 -0.5648  0.7301
  916SOL     OW12081   4.069   9.120   0.627  0.7868  0.0913  0.4937
  916SOL    HW112082   3.978   9.082   0.613  0.5880  0.4136  0.8962
  916SOL    HW212083   4.096   9.106   0.722  1.0162  0.3031  0.4595
  917SOL     OW12084   2.136   5.354   0.651 -1.1005 -0.2983  0.0940
  917SOL    HW112085   2.106   5.339   0.745  0.3171  2.5267  1.0706
  917SOL    HW212086   2.060   5.340   0.588 -1.8511 -3.0953  1.5396
  918SOL     OW12087   3.064   9.901   1.014 -0.3192  0.5001 -0.0262
  918SOL    HW112088   3.054   9.824   0.951  0.6153  0.1469  0.2548
  918SOL    HW212089   3.039   9.873   1.106  0.4633  0.3912  0.1624
  919SOL     OW12090   3.272   8.600   2.362 -0.0788  0.3544 -0.5553
  919SOL    HW112091   3.369   8.587   2.341 -0.2568 -1.6306 -0.2862
  919SOL    HW212092   3.224   8.513   2.349 -1.6149  1.0507  0.4094
  921SOL     OW12093   4.784   2.856   1.479 -0.0978 -0.4067  0.1258
  921SOL    HW112094   4.762   2.940   1.428  3.0032 -0.5983 -1.6635
  921SOL    HW212095   4.765   2.870   1.576 -0.7255  1.9811 -0.3084
  922SOL     OW12096   4.008   3.574   0.883  0.4303  0.3296  0.3044
  922SOL    HW112097   3.925   3.604   0.929  0.4216 -1.2284  1.3602
  922SOL    HW212098   4.085   3.631   0.912 -0.0296  0.9486  0.3183
  924SOL     OW12099   4.072   2.905   0.514  0.0912 -0.2007  0.4543
  924SOL    HW112100   4.023   2.920   0.600 -0.3992  0.4236  0.0662
  924SOL    HW212101   4.170   2.897   0.532 -0.1495 -1.5543  1.2506
  925SOL     OW12102   1.986   9.430   0.576  0.0772 -0.1630  0.5233
  925SOL    HW112103   1.890   9.456   0.568  0.7461  1.8061 -2.4100
  925SOL    HW212104   2.006   9.355   0.513  0.5474 -0.2105  0.7243
  927SOL     OW12105   4.013   3.261   1.525 -0.2386  0.0921 -0.0727
  927SOL    HW112106   4.073   3.256   1.605  0.5857  0.0532 -0.6919
  927SOL    HW212107   3.923   3.295   1.553  0.4772  1.4555  0.6348
  929SOL     OW12108   4.277   4.791   0.548 -0.4826  0.3232 -0.9201
  929SOL    HW112109   4.353   4.795   0.613 -1.0914 -1.6370 -0.0461
  929SOL    HW212110   4.309   4.754   0.461 -0.2831  0.1671 -0.7802
  930SOL     OW12111   4.716   3.986   1.059 -0.6707  0.2721  0.5800
  930SOL    HW112112   4.649   4.034   1.116 -2.9487 -1.4730 -0.5080
  930SOL    HW212113   4.773   4.053   1.012 -1.9561  1.8432  1.1695
  931SOL     OW12114   3.547   0.239   2.361 -0.1690 -0.4599 -0.1263
  931SOL    HW112115   3.470   0.207   2.305  0.1986 -1.0777 -0.2723
  931SOL    HW212116   3.566   0.173   2.433 -0.5681  0.2837  0.6720
  932SOL     OW12117   2.454   8.304   0.787  0.2724 -0.6503 -0.3459
  932SOL    HW112118   2.473   8.252   0.871  0.9499 -0.3404 -0.3036
  932SOL    HW212119   2.500   8.392   0.792 -2.8187  0.9832  0.6443
  933SOL     OW12120   3.811   4.790   1.125 -0.1647  0.0886  0.4705
  933SOL    HW112121   3.852   4.791   1.034 -0.3948  0.5920  0.3709
  933SOL    HW212122   3.718   4.752   1.120  0.5094 -1.6608  0.7972
  934SOL     OW12123   2.306   5.833   0.647  0.2788 -0.3560 -0.2934
  934SOL    HW112124   2.320   5.807   0.743  0.4748  0.1284 -0.1860
  934SOL    HW212125   2.208   5.837   0.627  0.2492 -1.1502 -0.3070
  935SOL     OW12126   4.719   1.881   1.332 -0.9704 -0.4523 -0.3333
  935SOL    HW112127   4.779   1.835   1.267 -1.0320  0.3173 -0.9391
  935SOL    HW212128   4.769   1.955   1.378 -1.8699  1.2102 -1.9703
  936SOL     OW12129   3.514   2.779   0.655 -0.0924  0.3302 -0.4093
  936SOL    HW112130   3.573   2.855   0.627  0.7858 -0.7459 -1.5669
  936SOL    HW212131   3.438   2.770   0.590 -0.8577  0.9282  0.3804
  937SOL     OW12132   3.453   3.925   0.556  0.0185 -0.4161  0.2163
  937SOL    HW112133   3.548   3.952   0.539 -0.2980 -0.9815 -2.6128
  937SOL    HW212134   3.449   3.825   0.567 -0.3364 -0.4457 -0.1979
  939SOL     OW12135   3.176   0.138   0.998 -0.4251 -0.4438 -0.5951
  939SOL    HW112136   3.206   0.160   0.905  1.4897 -1.1133 -0.1626
  939SOL    HW212137   3.130   0.049   0.998 -0.7304 -0.2859 -0.9614
  940SOL     OW12138   2.398   1.053   1.271 -0.1503 -0.4194 -0.0640
  940SOL    HW112139   2.494   1.036   1.293  0.1214 -1.0751 -1.7221
  940SOL    HW212140   2.390   1.140   1.222 -0.5682  0.2658  1.1951
  941SOL     OW12141   2.102   2.519   0.731  0.2590 -0.0881 -0.6390
  941SOL    HW112142   2.061   2.598   0.684  0.0496 -0.4323 -1.0353
  941SOL    HW212143   2.193   2.545   0.765  0.7690 -0.0835 -1.9718
  943SOL     OW12144   1.809   6.117   0.828  0.1140 -0.1178 -0.1491
  943SOL    HW112145   1.882   6.164   0.877 -0.1402 -0.2390  0.3537
  943SOL    HW212146   1.738   6.183   0.803 -0.4653 -0.3067  0.9704
  944SOL     OW12147   2.938   0.166   1.316 -0.5698 -0.1370 -0.0392
  944SOL    HW112148   2.860   0.105   1.300 -1.1871  0.6246  0.0623
  944SOL    HW212149   2.963   0.163   1.413  0.2246 -1.2043 -0.2620
  945SOL     OW12150   3.370   0.622   0.766 -0.0273  0.5527  0.2729
  945SOL    HW112151   3.446   0.559   0.777 -1.9173 -1.9803 -0.6774
  945SOL    HW212152   3.404   0.711   0.735  2.9263  0.7890  3.9041
  946SOL     OW12153   5.508   3.352   0.980 -0.1535  0.5534 -0.6477
  946SOL    HW112154   5.451   3.432   1.002 -1.4240 -0.4561 -0.1871
  946SOL    HW212155   5.491   3.324   0.886 -0.7265  0.0162 -0.3899
  947SOL     OW12156   4.530   2.786   1.952 -0.1875  0.4279 -0.1375
  947SOL    HW112157   4.434   2.773   1.924 -1.0410  3.2404  1.2498
  947SOL    HW212158   4.563   2.703   1.996 -1.4246 -1.1880 -2.1514
  948SOL     OW12159   1.668   3.080   0.990  0.1518 -1.0121 -0.1392
  948SOL    HW112160   1.708   3.122   1.072  0.0097  0.8667 -1.0200
  948SOL    HW212161   1.710   2.990   0.975  0.6395 -1.0990  1.6176
  949SOL     OW12162   2.769   3.205   0.387 -0.3601  0.4539 -0.2706
  949SOL    HW112163   2.687   3.162   0.352 -1.0148  1.2190  0.2934
  949SOL    HW212164   2.802   3.155   0.468 -0.4218  0.3093 -0.3357
  950SOL     OW12165   3.436   3.416   1.678  0.6816  0.5278  0.0269
  950SOL    HW112166   3.481   3.364   1.752  0.0740  0.7705  0.5728
  950SOL    HW212167   3.355   3.366   1.647  2.0459 -0.5659 -1.8744
  951SOL     OW12168   2.916   1.642   0.745  0.5094  0.1269  0.1440
  951SOL    HW112169   3.004   1.601   0.722  0.9301  0.1763  1.6178
  951SOL    HW212170   2.865   1.580   0.804 -0.9286 -0.3841 -1.6152
  952SOL     OW12171   2.003   8.609   0.498 -0.2050 -0.0487 -0.0640
  952SOL    HW112172   1.916   8.659   0.492  0.8993  2.1212  1.0561
  952SOL    HW212173   2.000   8.529   0.439 -3.2660 -0.4787  0.5677
  953SOL     OW12174   2.718   5.335   1.465  0.5866  0.1645  0.0536
  953SOL    HW112175   2.671   5.249   1.445  0.4539  0.4506 -0.9129
  953SOL    HW212176   2.776   5.360   1.387  1.2140  0.5605  0.6448
  954SOL     OW12177   2.557   5.535   2.236 -0.3201  0.2451  0.7863
  954SOL    HW112178   2.570   5.542   2.335 -0.8087 -1.2654  0.9688
  954SOL    HW212179   2.460   5.529   2.216 -0.2173  0.4866  0.2131
  956SOL     OW12180   2.677   0.278   1.799  0.3637  0.6218  0.0879
  956SOL    HW112181   2.673   0.253   1.702  0.0930 -0.1298  0.2834
  956SOL    HW212182   2.594   0.244   1.845  0.4560  1.0408  0.5636
  957SOL     OW12183   3.336   1.241   0.938  0.6894 -0.2098  0.4254
  957SOL    HW112184   3.242   1.220   0.962 -0.2376  2.1778 -0.9183
  957SOL    HW212185   3.351   1.223   0.841  1.7869 -1.0950  0.7488
  958SOL     OW12186   3.822   2.916   2.235  0.3812 -0.2176 -0.5636
  958SOL    HW112187   3.806   2.898   2.332 -1.5663  0.1716 -0.7772
  958SOL    HW212188   3.758   2.861   2.181  0.8509  0.2332 -1.5820
  959SOL     OW12189   2.435   5.687   1.186 -0.0346 -0.2035 -0.5498
  959SOL    HW112190   2.494   5.606   1.196 -0.5813 -0.4058  1.2346
  959SOL    HW212191   2.491   5.769   1.196  0.2681 -0.3676 -0.8549
  960SOL     OW12192   3.207   4.476   2.079  0.0641 -0.1158 -0.2449
  960SOL    HW112193   3.303   4.482   2.105  0.2899 -0.5568 -0.9519
  960SOL    HW212194   3.194   4.399   2.016 -0.8813 -0.5283  0.4300
  961SOL     OW12195   3.452   1.943   1.032 -0.3714 -0.3725 -0.3080
  961SOL    HW112196   3.478   1.846   1.025  0.1205 -0.3646  1.0905
  961SOL    HW212197   3.530   2.000   1.006 -0.9018 -0.3376 -1.8745
  962SOL     OW12198   1.992   0.572   1.249  0.1505 -0.1640  0.3591
  962SOL    HW112199   1.968   0.490   1.301  0.3784 -0.8595 -0.6133
  962SOL    HW212200   2.029   0.641   1.311 -1.9486 -0.0260  1.4934
  965SOL     OW12201   1.749   7.006   1.530  0.0259  0.3091  0.0940
  965SOL    HW112202   1.837   7.038   1.494 -0.5535  0.2674 -1.3650
  965SOL    HW212203   1.718   7.069   1.601 -0.3108  2.0917 -1.6096
  967SOL     OW12204   3.697   3.994   0.489 -0.1077 -0.1466  0.3189
  967SOL    HW112205   3.729   3.900   0.492  1.7866  0.5097  2.0569
  967SOL    HW212206   3.755   4.051   0.549 -1.0324  2.1587 -0.9141
  968SOL     OW12207   2.048   1.965   2.359  0.1609 -0.5580  0.2639
  968SOL    HW112208   2.110   2.040   2.382 -0.5283 -0.0757  0.5752
  968SOL    HW212209   2.023   1.916   2.442 -0.8283 -0.0016  0.2961
  970SOL     OW12210   2.291   2.692   1.238 -0.1655  0.3238 -0.2426
  970SOL    HW112211   2.380   2.693   1.283 -0.6360  0.8433  0.7020
  970SOL    HW212212   2.296   2.638   1.155  0.7107 -0.7039  0.4733
  971SOL     OW12213   2.748   7.020   0.396  0.5496  0.4860 -0.2865
  971SOL    HW112214   2.714   7.030   0.489  0.1956 -0.6393 -0.2939
  971SOL    HW212215   2.680   7.056   0.332 -0.9841 -2.3943 -0.3461
  972SOL     OW12216   2.867   4.251   0.889 -0.1515  0.0116  0.2763
  972SOL    HW112217   2.843   4.294   0.977 -2.1351 -1.2365  0.3581
  972SOL    HW212218   2.832   4.307   0.814 -0.6160 -0.2050  0.3316
  973SOL     OW12219   1.886   1.443   0.299  0.4877 -0.4128 -0.4520
  973SOL    HW112220   1.924   1.518   0.354 -0.5528  0.3473 -0.7681
  973SOL    HW212221   1.809   1.402   0.347  0.4620 -0.6720 -0.7124
  974SOL     OW12222   2.405   3.043   2.001 -0.2759  0.7024 -0.3697
  974SOL    HW112223   2.479   3.006   2.057 -0.9130  0.9664  0.6736
  974SOL    HW212224   2.320   3.041   2.054 -1.1637 -0.2687 -1.8088
  975SOL     OW12225   2.585   7.298   0.508  0.0626 -0.0613  0.3112
  975SOL    HW112226   2.573   7.212   0.558  1.2270  0.1297  0.9328
  975SOL    HW212227   2.495   7.336   0.486 -0.4726 -1.8322 -0.6660
  976SOL     OW12228   2.329   2.524   0.908 -0.2247  0.4108 -0.0306
  976SOL    HW112229   2.301   2.469   0.987  0.0569 -0.3300 -0.4422
  976SOL    HW212230   2.396   2.593   0.938  1.2339 -1.0223  0.0641
  977SOL     OW12231   5.155   3.553   0.520 -0.6836  0.6156 -0.0661
  977SOL    HW112232   5.068   3.570   0.475 -0.5396 -0.5696 -0.8152
  977SOL    HW212233   5.138   3.515   0.611 -0.9537  1.1067  0.0897
  979SOL     OW12234   4.245   0.865   2.213 -0.4954  0.2480 -0.5140
  979SOL    HW112235   4.206   0.852   2.305 -1.3093 -0.8691 -1.0028
  979SOL    HW212236   4.172   0.891   2.150 -0.1033  0.0732 -1.0393
  980SOL     OW12237   3.843   3.851   2.326  0.7182 -0.1356  0.6171
  980SOL    HW112238   3.872   3.933   2.375  0.8597 -0.5529  1.2455
  980SOL    HW212239   3.819   3.874   2.232  0.7702  0.6207  0.7903
  981SOL     OW12240   3.383   1.573   1.919  0.2486 -0.3087  0.1675
  981SOL    HW112241   3.339   1.663   1.920  0.9447  0.0348  1.0290
  981SOL    HW212242   3.417   1.554   1.827  1.3824  0.9551  0.3113
  983SOL     OW12243   4.371   4.779   1.153 -0.0642  0.0807  0.3686
  983SOL    HW112244   4.417   4.690   1.159  2.2699  1.3103  1.3829
  983SOL    HW212245   4.345   4.810   1.244 -2.1076 -0.1759 -0.1186
  985SOL     OW12246   2.457   5.348   1.010 -0.1256 -0.1530 -0.0029
  985SOL    HW112247   2.437   5.395   0.925 -1.1119 -0.9435 -0.2217
  985SOL    HW212248   2.521   5.273   0.993 -0.8369 -0.7250 -0.1666
  986SOL     OW12249   2.472   5.245   1.896 -0.1826 -0.4056  0.1313
  986SOL    HW112250   2.477   5.146   1.880 -1.7580 -0.4063 -0.4964
  986SOL    HW212251   2.438   5.290   1.813 -0.1363  0.5814  0.6432
  987SOL     OW12252   4.465   1.166   0.706  0.0938 -0.1950  0.3552
  987SOL    HW112253   4.481   1.095   0.637  1.7489 -0.9102  1.4573
  987SOL    HW212254   4.497   1.254   0.670  1.8510 -0.7340  0.5503
  988SOL     OW12255   2.690   0.895   0.362 -0.1966  0.4192  0.3545
  988SOL    HW112256   2.675   0.837   0.282  1.5277 -0.5142  0.6622
  988SOL    HW212257   2.787   0.919   0.368 -0.7604  2.7219  0.6770
  989SOL     OW12258   2.598   6.830   1.287 -0.1493 -0.0081 -0.1140
  989SOL    HW112259   2.608   6.762   1.215  1.7513 -0.1527  0.2663
  989SOL    HW212260   2.517   6.809   1.341  0.8869 -2.4929  0.5442
  990SOL     OW12261   1.972   8.425   2.191 -0.1221  0.5867  0.7139
  990SOL    HW112262   2.060   8.404   2.147 -0.5715 -3.2509  1.4464
  990SOL    HW212263   1.908   8.460   2.123  0.6682 -0.7438 -0.7405
  991SOL     OW12264   3.044   2.954   0.803  0.2934  0.1630  0.3965
  991SOL    HW112265   3.070   2.999   0.888  0.6260 -0.0596  0.4165
  991SOL    HW212266   3.025   2.857   0.821 -0.7190  0.3570  0.4096
  992SOL     OW12267   2.241   2.644   1.819  0.3215 -0.3570  0.1748
  992SOL    HW112268   2.223   2.614   1.912 -0.6614  0.1486  0.1583
  992SOL    HW212269   2.314   2.713   1.820  0.0379 -0.0618  0.6120
  993SOL     OW12270   3.966   1.290   0.986 -0.0729 -0.0150 -0.5478
  993SOL    HW112271   4.003   1.218   1.044 -1.8472 -1.0163 -0.6284
  993SOL    HW212272   4.013   1.376   1.005  0.9662 -0.8484  0.6797
  995SOL     OW12273   3.555   2.159   1.963 -0.1860 -0.0522 -0.8264
  995SOL    HW112274   3.489   2.212   1.910  1.3687  0.3010 -2.4556
  995SOL    HW212275   3.581   2.211   2.044  0.3779  1.1418 -1.7588
  996SOL     OW12276   2.462   2.343   0.469 -0.3130 -0.4754  0.5164
  996SOL    HW112277   2.517   2.413   0.424  1.1008 -3.4038 -2.5469
  996SOL    HW212278   2.377   2.329   0.417  1.0378 -3.4292 -1.0223
  997SOL     OW12279   3.039   5.112   1.410 -0.2595  0.3661 -0.6636
  997SOL    HW112280   3.095   5.189   1.377  0.2928  0.0425 -0.4747
  997SOL    HW212281   2.998   5.136   1.498  0.6677  0.0928 -0.1480
  998SOL     OW12282   2.205   1.491   1.261 -0.1131  0.1035 -0.1601
  998SOL    HW112283   2.130   1.425   1.257  0.3920 -0.3905 -1.8871
  998SOL    HW212284   2.291   1.443   1.278  0.1696  0.3820 -0.8005
  999SOL     OW12285   2.132   1.574   0.672 -0.1500  0.4174 -0.4508
  999SOL    HW112286   2.066   1.646   0.651 -2.5260 -1.8088 -0.7941
  999SOL    HW212287   2.118   1.541   0.765  0.0693 -0.5013 -0.7402
 1000SOL     OW12288   1.961   0.948   2.194  0.0382  0.2046 -0.2494
 1000SOL    HW112289   2.055   0.919   2.172  0.2847 -0.5871  1.7437
 1000SOL    HW212290   1.897   0.879   2.161  0.3324 -0.4276  0.4619
 1001SOL     OW12291   2.266   8.744   1.621  0.1919  0.7832 -0.1725
 1001SOL    HW112292   2.301   8.723   1.530 -1.0515  0.6527 -0.6256
 1001SOL    HW212293   2.298   8.674   1.686  0.2472  0.3186 -0.6978
 1002SOL     OW12294   2.890   2.626   2.309 -0.6627  0.5788  0.3743
 1002SOL    HW112295   2.977   2.602   2.352  0.0623  0.8072 -0.9347
 1002SOL    HW212296   2.907   2.657   2.215 -2.2499 -0.3586 -0.2354
 1003SOL     OW12297   1.731   7.793   0.544 -0.5169  0.2458  0.3960
 1003SOL    HW112298   1.663   7.837   0.602 -0.2175 -0.5864  1.3931
 1003SOL    HW212299   1.808   7.762   0.600 -0.8826 -1.8525 -0.2069
 1005SOL     OW12300   2.013   4.267   1.798 -0.0310 -0.7125 -0.2169
 1005SOL    HW112301   1.963   4.202   1.856 -2.5883  0.2957 -1.2152
 1005SOL    HW212302   2.108   4.238   1.790 -0.1908 -2.1975  2.5042
 1006SOL     OW12303   1.738   9.556   0.615  0.6245  0.7290 -0.0846
 1006SOL    HW112304   1.715   9.652   0.601  0.7258  0.5027 -1.8764
 1006SOL    HW212305   1.731   9.534   0.713 -0.6927  2.2202  0.1809
 1010SOL     OW12306   4.295   2.114   0.955 -0.3956  0.0929 -0.4700
 1010SOL    HW112307   4.222   2.101   0.889  0.7265 -0.2181 -1.6661
 1010SOL    HW212308   4.373   2.159   0.911  0.1745  0.3463  0.7576
 1011SOL     OW12309   2.138   5.552   0.875  0.3141 -0.5069  0.2285
 1011SOL    HW112310   2.143   5.481   0.946 -2.3959  1.1691  2.1954
 1011SOL    HW212311   2.161   5.640   0.915  0.1970  0.2499 -1.3580
 1012SOL     OW12312   2.544   8.176   2.208  0.0743 -0.0718  0.1020
 1012SOL    HW112313   2.622   8.189   2.269  1.3421 -2.1385 -1.0419
 1012SOL    HW212314   2.539   8.253   2.144  1.8020 -0.4155 -0.4782
 1013SOL     OW12315   3.279   0.224   2.239 -0.7929  0.4990 -0.4167
 1013SOL    HW112316   3.270   0.274   2.325 -2.1464 -0.5172  0.0370
 1013SOL    HW212317   3.189   0.214   2.196 -0.4926 -1.2078 -0.6860
 1014SOL     OW12318   2.302   8.618   1.333  0.4914 -0.3561 -0.6734
 1014SOL    HW112319   2.324   8.598   1.238 -1.3157 -0.6363 -1.0498
 1014SOL    HW212320   2.302   8.533   1.386  0.3004 -0.3577 -0.6774
 1015SOL     OW12321   3.151   3.331   2.304  0.3468  0.3092  0.2204
 1015SOL    HW112322   3.166   3.251   2.245  1.5644 -0.5508  1.6479
 1015SOL    HW212323   3.233   3.388   2.304 -0.1667  1.0534 -0.0228
 1016SOL     OW12324   3.794   1.597   1.332  0.5050  0.0755 -0.6973
 1016SOL    HW112325   3.740   1.519   1.365  0.3292  0.3197 -0.4107
 1016SOL    HW212326   3.891   1.579   1.350  0.4292  0.1066 -0.2581
 1018SOL     OW12327   2.960   2.834   1.660 -0.2351  0.0978  0.2766
 1018SOL    HW112328   3.010   2.915   1.628 -2.8787  0.7723 -2.3547
 1018SOL    HW212329   3.008   2.751   1.630  0.9072  0.7078  0.3931
 1020SOL     OW12330   3.480   0.600   2.356 -0.2216  0.0271 -0.1027
 1020SOL    HW112331   3.561   0.645   2.319 -1.0486 -0.0169 -1.9995
 1020SOL    HW212332   3.455   0.523   2.298 -1.0688 -0.5462  1.0028
 1021SOL     OW12333   2.257   0.386   0.737  0.1738 -0.0886 -0.4412
 1021SOL    HW112334   2.169   0.415   0.774  0.4170 -0.2902  0.3033
 1021SOL    HW212335   2.247   0.367   0.639 -0.8954 -1.2905 -0.1211
 1025SOL     OW12336   2.871   7.443   0.856 -0.5452  0.1376 -0.0049
 1025SOL    HW112337   2.842   7.435   0.760 -1.9011  0.5397  0.3553
 1025SOL    HW212338   2.810   7.389   0.913  0.4120 -0.2916  0.6071
 1030SOL     OW12339   3.479   8.524   1.228 -0.0189 -0.2466 -0.1096
 1030SOL    HW112340   3.469   8.624   1.226  1.4813 -0.0882 -0.7374
 1030SOL    HW212341   3.459   8.487   1.137 -0.0946 -0.4747 -0.0006
 1031SOL     OW12342   2.767   8.876   2.270 -0.0701  0.3465 -0.0876
 1031SOL    HW112343   2.695   8.819   2.310 -1.2133  1.7660 -0.0437
 1031SOL    HW212344   2.842   8.885   2.334 -1.1814  1.2823  1.1106
 1034SOL     OW12345   3.989   0.602   0.477  0.3729  0.6366 -0.4468
 1034SOL    HW112346   4.002   0.598   0.378 -0.8274 -0.2039 -0.5778
 1034SOL    HW212347   4.036   0.683   0.513 -0.8294  2.0565 -1.9784
 1036SOL     OW12348   2.556   4.657   0.380  0.0846 -0.2048  0.6513
 1036SOL    HW112349   2.488   4.672   0.308  1.7203  0.2131 -0.8146
 1036SOL    HW212350   2.531   4.711   0.461 -1.4155 -0.2002  0.1991
 1037SOL     OW12351   3.127   3.977   0.646 -0.0455 -0.1013  1.0240
 1037SOL    HW112352   3.030   3.959   0.637 -0.1760 -1.3228  4.2154
 1037SOL    HW212353   3.179   3.919   0.583 -1.2999 -0.0227 -0.0953
 1038SOL     OW12354   3.730   4.209   1.613 -0.0090  0.0248  0.1617
 1038SOL    HW112355   3.784   4.185   1.694  0.0233  0.2951  0.2196
 1038SOL    HW212356   3.756   4.150   1.537 -0.9770 -1.1365  0.7122
 1039SOL     OW12357   2.294   0.062   0.832 -0.4227 -0.0824 -0.0095
 1039SOL    HW112358   2.308   0.093   0.738  1.6643 -0.2130  0.2324
 1039SOL    HW212359   2.205   0.016   0.838 -0.1823 -0.9241 -2.1431
 1041SOL     OW12360   2.004   6.976   0.910 -0.3397  0.1054 -0.2136
 1041SOL    HW112361   1.937   7.014   0.846  0.2491  0.4754 -0.6092
 1041SOL    HW212362   1.959   6.954   0.996 -1.0484  0.0146 -0.6016
 1042SOL     OW12363   2.676   9.601   1.899  0.2871  0.0859  0.1215
 1042SOL    HW112364   2.674   9.664   1.822 -1.0687  0.7727  0.6927
 1042SOL    HW212365   2.678   9.507   1.866 -0.2906  0.3764 -0.7391
 1043SOL     OW12366   3.114   1.839   0.377  0.5084 -0.4279  0.0583
 1043SOL    HW112367   3.108   1.903   0.301 -0.7655 -0.9311 -0.2624
 1043SOL    HW212368   3.113   1.890   0.463 -1.3585 -0.0415 -0.1698
 1044SOL     OW12369   5.417   3.116   1.472 -0.0058 -0.0758  0.7252
 1044SOL    HW112370   5.352   3.040   1.468  0.0954 -0.1175 -0.3590
 1044SOL    HW212371   5.368   3.202   1.478 -0.1191 -0.2317  2.1661
 1045SOL     OW12372   2.480   2.949   1.496  0.6147 -0.5821  0.5878
 1045SOL    HW112373   2.450   2.955   1.401 -0.1109  1.1466  0.9089
 1045SOL    HW212374   2.528   2.862   1.510 -0.5012 -1.4806 -0.9903
 1046SOL     OW12375   2.121   2.578   0.290  0.1036 -0.2142 -0.0389
 1046SOL    HW112376   2.210   2.622   0.276 -0.6220  1.2379 -0.1598
 1046SOL    HW212377   2.135   2.486   0.328  1.7490 -1.0564 -2.5668
 1047SOL     OW12378   4.926   3.299   1.432 -0.2059 -0.0297  0.8629
 1047SOL    HW112379   4.925   3.349   1.345  2.9495 -0.3139  0.6154
 1047SOL    HW212380   4.963   3.358   1.504 -1.1349 -0.3823  1.6360
 1049SOL     OW12381   4.326   1.237   1.386  0.3204 -0.2801 -0.6736
 1049SOL    HW112382   4.227   1.218   1.390  0.5803 -1.3510  1.3210
 1049SOL    HW212383   4.360   1.214   1.295 -0.9974 -1.3559 -0.9247
 1052SOL     OW12384   2.668   5.395   1.989  0.3719 -0.6628 -0.3394
 1052SOL    HW112385   2.670   5.417   2.087 -0.3897 -0.7635 -0.2990
 1052SOL    HW212386   2.584   5.346   1.968 -0.2799  0.8453 -1.3581
 1053SOL     OW12387   2.554   8.501   1.038  0.2415 -0.3034  0.1511
 1053SOL    HW112388   2.587   8.547   1.121 -0.9254  1.3699 -0.2761
 1053SOL    HW212389   2.455   8.489   1.044 -0.3139  2.4198 -2.1636
 1055SOL     OW12390   4.156   0.069   0.422 -0.5625 -0.5055  0.3062
 1055SOL    HW112391   4.244   0.022   0.426 -1.1374 -1.6747 -0.2725
 1055SOL    HW212392   4.135   0.111   0.510  0.4782 -0.3884  0.4973
 1056SOL     OW12393   2.625   5.609   0.456  0.4785  0.1250  0.2018
 1056SOL    HW112394   2.532   5.644   0.450 -0.2023 -1.6557  0.1594
 1056SOL    HW212395   2.649   5.595   0.552  0.4460 -0.0835  0.1799
 1060SOL     OW12396   1.882   4.094   1.973 -0.0489 -0.3632 -0.3876
 1060SOL    HW112397   1.896   3.996   1.964  0.8884 -0.2812  0.0563
 1060SOL    HW212398   1.864   4.117   2.069 -0.1324 -0.0927 -0.4660
 1061SOL     OW12399   3.070   6.102   1.311 -0.1709  0.0538  0.1490
 1061SOL    HW112400   3.053   6.025   1.373 -0.6025 -0.3250 -0.4482
 1061SOL    HW212401   3.051   6.188   1.359 -2.1764 -0.2913  0.0061
 1062SOL     OW12402   2.406   8.169   1.266 -0.0119 -0.3444 -0.5246
 1062SOL    HW112403   2.335   8.143   1.332  0.5751 -1.2211 -0.2188
 1062SOL    HW212404   2.382   8.133   1.176 -1.3812  1.8155 -1.0594
 1063SOL     OW12405   2.271   0.005   2.324  0.0998 -0.8008 -0.0316
 1063SOL    HW112406   2.350  -0.052   2.347  3.4063  2.2142 -3.2449
 1063SOL    HW212407   2.248  -0.009   2.227 -2.0333 -0.0803  0.3511
 1064SOL     OW12408   2.306   5.776   0.932 -0.0828 -0.5415  0.2976
 1064SOL    HW112409   2.359   5.730   1.003  0.6348  0.0216  0.1228
 1064SOL    HW212410   2.246   5.844   0.973 -1.0685 -1.5268  0.5475
 1065SOL     OW12411   4.544   4.300   2.181 -1.0114  0.0277 -0.0946
 1065SOL    HW112412   4.538   4.396   2.207 -1.0739  0.2176 -0.7960
 1065SOL    HW212413   4.458   4.254   2.202 -0.5710 -0.1645  1.3573
 1066SOL     OW12414   3.335   4.869   1.717 -0.0146 -0.0911  0.4498
 1066SOL    HW112415   3.335   4.790   1.656  0.2182 -0.0973  0.4585
 1066SOL    HW212416   3.245   4.913   1.715 -0.4856 -0.9933  1.2588
 1068SOL     OW12417   3.850   4.753   0.644 -0.1058 -0.7959 -0.0390
 1068SOL    HW112418   3.768   4.725   0.594 -0.1975  0.4444 -0.6007
 1068SOL    HW212419   3.871   4.849   0.624  1.3570 -1.0282  0.2680
 1069SOL     OW12420   3.302   7.848   1.072 -0.1553 -0.2003  0.3934
 1069SOL    HW112421   3.292   7.946   1.091 -1.6807 -0.3050  0.2029
 1069SOL    HW212422   3.295   7.833   0.973 -0.6892 -0.5891  0.4922
 1070SOL     OW12423   4.264   1.177   1.999 -0.2683 -0.2291  0.4386
 1070SOL    HW112424   4.251   1.078   1.997  1.2408 -0.4225 -0.2180
 1070SOL    HW212425   4.302   1.208   1.912  1.2516  0.6288  1.3822
 1071SOL     OW12426   3.029   0.256   2.090 -0.2362 -0.4810  0.6533
 1071SOL    HW112427   2.978   0.192   2.033  0.3538 -1.1001  0.8184
 1071SOL    HW212428   3.033   0.345   2.045  0.3479 -1.0029 -0.3355
 1072SOL     OW12429   2.323   7.353   0.884 -0.0112  0.1469  1.0564
 1072SOL    HW112430   2.370   7.421   0.828  0.3056 -0.9314  0.0059
 1072SOL    HW212431   2.270   7.400   0.955 -0.3666  1.5302 -0.0916
 1074SOL     OW12432   4.051   2.494   2.246 -0.4454 -0.0867  0.7784
 1074SOL    HW112433   4.022   2.495   2.342 -3.4497 -1.7791 -0.0444
 1074SOL    HW212434   4.133   2.437   2.236  0.3030  0.6731  2.4287
 1075SOL     OW12435   2.507   5.537   1.538  0.1474 -0.3551 -0.5324
 1075SOL    HW112436   2.539   5.626   1.571 -0.1075 -0.1080 -0.9387
 1075SOL    HW212437   2.580   5.491   1.487 -0.0665  0.1221 -1.2900
 1076SOL     OW12438   2.107   6.356   1.304 -0.1388 -0.0427 -0.4704
 1076SOL    HW112439   2.200   6.320   1.300 -0.0861 -0.1661  1.4569
 1076SOL    HW212440   2.103   6.432   1.369 -1.2369  0.3958 -1.0375
 1077SOL     OW12441   2.386   8.889   2.047  0.1990  0.2439 -0.3970
 1077SOL    HW112442   2.408   8.807   1.994  0.8449  0.1006  0.0846
 1077SOL    HW212443   2.469   8.940   2.066 -0.2885  1.3898 -1.2953
 1079SOL     OW12444   2.465   9.860   0.455 -0.3187  0.2352  0.3805
 1079SOL    HW112445   2.489   9.957   0.454  0.7644 -0.0328 -0.7533
 1079SOL    HW212446   2.448   9.829   0.361 -1.7211 -0.4233  0.8390
 1081SOL     OW12447   4.418   1.840   0.736  0.2233 -0.1931  0.2026
 1081SOL    HW112448   4.346   1.817   0.801  0.1274  0.6850  0.4133
 1081SOL    HW212449   4.378   1.878   0.653  0.4622  0.7750  0.5215
 1082SOL     OW12450   2.646   7.014   1.482  0.1028  0.1223  0.0712
 1082SOL    HW112451   2.741   7.037   1.505  0.6970 -2.6238  0.6011
 1082SOL    HW212452   2.646   6.942   1.413 -1.6270  0.7049 -0.5447
 1083SOL     OW12453   2.936   8.527   0.434  0.0343  0.0580 -0.0993
 1083SOL    HW112454   2.838   8.547   0.435  0.2549  1.3157 -1.1908
 1083SOL    HW212455   2.976   8.565   0.350  1.6655  0.6671  0.9421
 1085SOL     OW12456   3.744   9.912   1.721 -0.8334 -0.1169  0.3397
 1085SOL    HW112457   3.819   9.923   1.656  0.8871  0.7200  2.4156
 1085SOL    HW212458   3.760   9.830   1.777 -1.8601 -0.3511  0.3005
 1089SOL     OW12459   2.610   0.188   1.024  0.1494 -0.5397 -0.3847
 1089SOL    HW112460   2.574   0.266   0.972 -0.1272  0.4103  1.2068
 1089SOL    HW212461   2.710   0.193   1.027  0.0774  0.4637  0.7721
 1090SOL     OW12462   2.171   5.929   2.006  0.1360 -0.3892 -0.2424
 1090SOL    HW112463   2.148   5.869   1.930 -1.7599  1.0364 -0.8486
 1090SOL    HW212464   2.269   5.946   2.008  0.3185 -1.2429 -1.7546
 1091SOL     OW12465   2.343   5.257   2.176 -0.3530 -0.0571 -0.8485
 1091SOL    HW112466   2.304   5.348   2.171  0.8359  0.5733  0.8685
 1091SOL    HW212467   2.364   5.224   2.083 -0.7105  1.4277 -1.4632
 1094SOL     OW12468   1.787   2.213   0.784  0.3159  0.6533  0.4564
 1094SOL    HW112469   1.862   2.216   0.849 -0.4088 -2.8517  1.5480
 1094SOL    HW212470   1.798   2.135   0.723 -1.4829  1.1514 -0.5675
 1095SOL     OW12471   3.562   4.214   1.023 -0.5780 -0.1377 -0.6239
 1095SOL    HW112472   3.639   4.152   1.038 -0.7683 -0.4290 -0.8486
 1095SOL    HW212473   3.594   4.308   1.025 -0.4116 -0.2158  0.4742
 1096SOL     OW12474   2.393   6.986   2.012 -0.2633  0.1743  0.0147
 1096SOL    HW112475   2.480   7.035   2.006 -1.2422  2.1786  1.5337
 1096SOL    HW212476   2.395   6.924   2.090 -0.2107  0.2090  0.0407
 1097SOL     OW12477   3.766   4.134   1.296 -0.6898  0.0576 -0.1932
 1097SOL    HW112478   3.815   4.075   1.361 -1.4248 -0.3782 -0.0296
 1097SOL    HW212479   3.757   4.087   1.208  0.5497  0.7577 -0.7156
 1098SOL     OW12480   2.914   7.583   0.280 -0.1706 -0.2820  0.0995
 1098SOL    HW112481   2.883   7.493   0.249 -0.0854 -0.5943  0.9083
 1098SOL    HW212482   2.852   7.653   0.244 -1.2551 -0.8128  0.8947
 1099SOL     OW12483   2.820   0.856   1.064 -0.2383  0.2011  0.0102
 1099SOL    HW112484   2.742   0.878   1.006 -1.5136 -1.7417  0.9341
 1099SOL    HW212485   2.828   0.757   1.073  1.1311  0.4270  1.5646
 1100SOL     OW12486   3.044   6.432   0.259  0.8051  0.4994 -0.2085
 1100SOL    HW112487   3.014   6.463   0.349  1.8201  0.1885  0.2414
 1100SOL    HW212488   2.964   6.421   0.200 -0.0083 -0.4642  1.0215
 1101SOL     OW12489   4.498   2.250   0.848  0.3419 -0.4099 -0.6821
 1101SOL    HW112490   4.548   2.243   0.935  0.6725 -0.4185 -0.8735
 1101SOL    HW212491   4.527   2.176   0.787  1.9688  1.0925 -1.7630
 1102SOL     OW12492   2.065   5.392   2.336 -0.4418 -0.4106  0.3910
 1102SOL    HW112493   2.096   5.456   2.266 -0.8885 -0.8605 -0.2187
 1102SOL    HW212494   2.053   5.302   2.296  0.0734 -0.8600  1.2239
 1103SOL     OW12495   3.514   9.189   1.506  0.9063  0.3069  0.6315
 1103SOL    HW112496   3.540   9.114   1.446 -1.6404  0.0110 -0.1575
 1103SOL    HW212497   3.538   9.276   1.463  0.4211  0.0487 -0.1748
 1105SOL     OW12498   3.593   9.631   0.282 -0.1887 -0.3089  0.3958
 1105SOL    HW112499   3.673   9.680   0.248  0.1267 -0.6550  0.6316
 1105SOL    HW212500   3.517   9.695   0.296 -0.2889 -0.1478 -0.8661
 1108SOL     OW12501   2.287   3.073   0.431  0.5482 -0.6692 -0.0453
 1108SOL    HW112502   2.278   3.171   0.451  1.7714 -0.3774 -0.8537
 1108SOL    HW212503   2.371   3.058   0.378 -0.8457 -1.8372 -1.9921
 1109SOL     OW12504   1.914   5.322   0.519 -0.7485 -0.0870 -0.3911
 1109SOL    HW112505   1.913   5.223   0.504 -2.1952 -0.1072 -0.2349
 1109SOL    HW212506   1.926   5.369   0.431 -1.0853 -0.3786 -0.5947
 1110SOL     OW12507   4.445   2.606   0.506 -0.1913 -0.0493  0.2110
 1110SOL    HW112508   4.488   2.614   0.417  1.6546  2.7317  1.3069
 1110SOL    HW212509   4.508   2.562   0.570  0.5662  2.7638  1.4640
 1111SOL     OW12510   3.955   8.640   1.409  0.2988 -0.7892  0.3442
 1111SOL    HW112511   3.944   8.558   1.353  0.8420 -0.7903  0.2393
 1111SOL    HW212512   3.885   8.642   1.481  0.9713 -1.9014  1.0388
 1112SOL     OW12513   2.538   5.102   1.400 -0.1296  0.1067 -0.5759
 1112SOL    HW112514   2.471   5.171   1.373 -0.9453 -0.6554 -0.4810
 1112SOL    HW212515   2.544   5.031   1.330  0.2225 -0.0889 -0.3515
 1113SOL     OW12516   3.693   5.369   0.333  0.0747  0.2328 -0.3036
 1113SOL    HW112517   3.728   5.365   0.239  1.5426 -1.6359  0.3017
 1113SOL    HW212518   3.738   5.442   0.383  1.8783 -1.0022 -0.0627
 1114SOL     OW12519   1.705   7.928   0.807 -0.2982  0.4256 -0.1718
 1114SOL    HW112520   1.739   8.022   0.801  2.2092 -0.2310  2.2855
 1114SOL    HW212521   1.640   7.921   0.883  0.8210 -0.1194  0.7675
 1116SOL     OW12522   4.390   2.419   2.009  0.1676 -0.1778  0.3006
 1116SOL    HW112523   4.323   2.392   2.077 -0.0216 -0.0451  0.1691
 1116SOL    HW212524   4.460   2.476   2.052 -0.3663  0.5339  0.2355
 1117SOL     OW12525   2.273   2.150   1.239  0.6089 -0.1210  0.0252
 1117SOL    HW112526   2.335   2.086   1.193  0.8553  0.6052 -0.6726
 1117SOL    HW212527   2.314   2.181   1.324  1.7942  1.3383 -1.0463
 1118SOL     OW12528   3.734   4.714   1.743  0.7650  0.1085  0.2734
 1118SOL    HW112529   3.755   4.632   1.691 -0.9523  0.3186 -0.8169
 1118SOL    HW212530   3.655   4.697   1.803  0.1663  1.0341 -0.2244
 1119SOL     OW12531   2.677   0.065   1.276 -0.6058  0.2230  0.3367
 1119SOL    HW112532   2.614  -0.008   1.305 -0.2230 -0.6414 -0.9734
 1119SOL    HW212533   2.646   0.104   1.190  1.0595 -0.7456 -0.7295
 1120SOL     OW12534   4.170   4.675   2.025 -0.9055 -0.2095  0.6374
 1120SOL    HW112535   4.071   4.669   2.034 -1.1301  1.7438 -0.3847
 1120SOL    HW212536   4.212   4.673   2.116 -1.7494 -2.5213  1.0211
 1121SOL     OW12537   3.933   8.719   1.092 -0.6582  0.5857 -0.1839
 1121SOL    HW112538   3.875   8.637   1.085  0.1552 -0.0721  0.6917
 1121SOL    HW212539   3.948   8.740   1.188  2.2328 -0.4548 -0.3673
 1122SOL     OW12540   1.984   2.739   1.801  0.2648  0.1075 -0.4416
 1122SOL    HW112541   1.975   2.834   1.772  1.4412  0.4410  0.2580
 1122SOL    HW212542   2.080   2.711   1.795 -0.2721 -1.5108 -2.0875
 1123SOL     OW12543   3.982   3.272   0.585 -0.1479  1.2308 -0.0719
 1123SOL    HW112544   4.074   3.233   0.591  0.0584  1.6753 -0.3536
 1123SOL    HW212545   3.918   3.214   0.637 -0.3705 -1.0843 -2.8381
 1125SOL     OW12546   2.926   4.046   1.977  0.6761  0.4229  0.3835
 1125SOL    HW112547   2.927   4.144   1.995  1.8279  0.8687 -1.9232
 1125SOL    HW212548   2.834   4.010   1.992 -0.1310  2.1683 -0.2347
 1126SOL     OW12549   4.331   3.005   1.854  0.1855  0.3675  0.0996
 1126SOL    HW112550   4.420   3.021   1.898  0.4282 -0.3642 -0.1288
 1126SOL    HW212551   4.274   2.949   1.914 -0.2184  1.0600  0.3615
 1128SOL     OW12552   3.068   1.239   0.958  0.2240  0.0842  0.1327
 1128SOL    HW112553   3.059   1.334   0.988 -0.2073 -0.2689  1.1157
 1128SOL    HW212554   2.981   1.207   0.921  0.2657 -0.0462  0.1459
 1129SOL     OW12555   2.066   8.051   1.924 -0.0768  0.3975  0.6315
 1129SOL    HW112556   2.024   8.073   1.836  4.4324  0.2123 -1.7407
 1129SOL    HW212557   2.054   7.954   1.943 -1.0935  0.4446  0.2822
 1131SOL     OW12558   3.264   9.126   1.776 -0.0017  0.1123 -0.4615
 1131SOL    HW112559   3.292   9.145   1.870 -0.6208 -0.0740 -0.2324
 1131SOL    HW212560   3.179   9.175   1.757  0.6840  0.9863 -1.2694
 1132SOL     OW12561   1.966   1.604   1.539  0.1395  0.1256  0.0070
 1132SOL    HW112562   1.988   1.691   1.584 -0.2019  0.0088  0.4064
 1132SOL    HW212563   2.038   1.538   1.560  0.6112  0.4324 -0.6411
 1134SOL     OW12564   2.447   3.519   0.269  0.2224  0.4038  0.4983
 1134SOL    HW112565   2.361   3.470   0.253 -0.5004  2.1330 -1.1615
 1134SOL    HW212566   2.507   3.507   0.190 -0.1507  2.4970 -0.1374
 1135SOL     OW12567   2.840   3.712   1.242 -0.1065  0.2130 -0.4099
 1135SOL    HW112568   2.774   3.767   1.294 -0.9189 -0.4167 -0.7719
 1135SOL    HW212569   2.918   3.770   1.217  0.5528  0.3976  1.9336
 1136SOL     OW12570   3.668   2.888   1.214  0.5265 -0.4750  0.1300
 1136SOL    HW112571   3.641   2.794   1.194  0.7462 -0.9606  2.0486
 1136SOL    HW212572   3.697   2.933   1.129 -0.1316 -1.9395 -0.8924
 1137SOL     OW12573   3.130   3.611   1.437  0.0495  0.0384  0.5522
 1137SOL    HW112574   3.116   3.615   1.536 -2.0378 -0.0117  0.2802
 1137SOL    HW212575   3.075   3.537   1.399  1.9008 -0.8178 -0.4882
 1138SOL     OW12576   2.134   0.709   0.602  0.4485 -0.4016  0.5582
 1138SOL    HW112577   2.143   0.732   0.505  2.4668  1.7902  1.2139
 1138SOL    HW212578   2.222   0.723   0.648 -0.3517 -1.8897  2.6275
 1139SOL     OW12579   3.331   2.799   1.938  0.2085  0.8112  0.6103
 1139SOL    HW112580   3.401   2.793   2.010 -1.1206 -1.0982  1.8143
 1139SOL    HW212581   3.247   2.838   1.977 -0.1783  0.7602 -0.1702
 1140SOL     OW12582   5.231   3.037   0.770  0.3578  0.4018  0.0248
 1140SOL    HW112583   5.243   3.062   0.866  3.3232 -0.1671 -0.1487
 1140SOL    HW212584   5.312   3.065   0.719 -0.8718  0.0024 -2.1782
 1141SOL     OW12585   2.716   3.251   1.343 -0.2504  0.0634  0.1909
 1141SOL    HW112586   2.652   3.245   1.419 -0.6874 -0.5905 -0.2181
 1141SOL    HW212587   2.704   3.338   1.295  0.7538  0.9416  1.4944
 1142SOL     OW12588   3.956   9.146   2.347  0.0703  0.2053 -0.1662
 1142SOL    HW112589   4.055   9.135   2.344  0.3703  2.0060  1.5064
 1142SOL    HW212590   3.928   9.218   2.283  0.2128  1.6936  1.4052
 1143SOL     OW12591   2.584   5.790   1.680 -0.0663  0.0559 -0.2211
 1143SOL    HW112592   2.529   5.847   1.620 -1.5391 -0.0288  1.0471
 1143SOL    HW212593   2.670   5.837   1.701 -0.8079  1.3457 -0.0290
 1144SOL     OW12594   3.423   9.193   0.352 -0.2302 -0.2572 -0.1034
 1144SOL    HW112595   3.329   9.191   0.388  0.2525  2.5611  1.4743
 1144SOL    HW212596   3.442   9.285   0.317  2.1670 -0.6578  0.1309
 1145SOL     OW12597   4.294   4.679   1.594 -0.1227 -0.3558  0.0592
 1145SOL    HW112598   4.235   4.698   1.672  0.2618 -0.1557  0.3053
 1145SOL    HW212599   4.346   4.595   1.610 -0.6830 -0.7880 -0.3606
 1146SOL     OW12600   2.144   2.932   2.279  0.7497  0.1934 -0.2634
 1146SOL    HW112601   2.068   2.959   2.337  1.0933  2.2110 -0.7190
 1146SOL    HW212602   2.110   2.887   2.196 -0.0966  2.8452 -1.4085
 1147SOL     OW12603   3.515   0.141   0.458 -0.5020  0.8880 -0.2642
 1147SOL    HW112604   3.555   0.050   0.470  1.0775  1.5797 -0.0812
 1147SOL    HW212605   3.589   0.208   0.446 -1.6832  1.9372 -1.8726
 1148SOL     OW12606   3.338   4.456   1.705 -0.0122 -0.4249  0.3051
 1148SOL    HW112607   3.261   4.417   1.655  0.9284 -0.1532 -1.3875
 1148SOL    HW212608   3.356   4.549   1.673 -0.0076  0.1291  1.8493
 1149SOL     OW12609   2.818   7.773   0.912 -0.4029  0.5728 -0.4907
 1149SOL    HW112610   2.870   7.702   0.865  0.5384  0.8130  0.1838
 1149SOL    HW212611   2.765   7.732   0.986 -1.7256  0.2254 -1.6028
 1150SOL     OW12612   3.208   5.384   1.061 -0.3029 -1.1501 -0.1524
 1150SOL    HW112613   3.135   5.385   0.994 -0.1117 -1.3763 -0.3642
 1150SOL    HW212614   3.290   5.427   1.023 -0.9347  0.9716  0.7841
 1151SOL     OW12615   2.969   4.281   1.289  0.4512 -0.1605  0.6673
 1151SOL    HW112616   2.989   4.238   1.377 -0.6389 -1.6543  0.2213
 1151SOL    HW212617   3.054   4.303   1.242  1.0367 -0.6764  1.4820
 1152SOL     OW12618   1.943   3.840   1.202 -0.2597 -0.2015  0.0024
 1152SOL    HW112619   1.864   3.778   1.199 -1.4501  1.2229  1.5253
 1152SOL    HW212620   2.026   3.788   1.222 -0.8208 -1.6850 -1.4218
 1153SOL     OW12621   1.989   2.321   0.552  0.0863 -0.0617 -0.0384
 1153SOL    HW112622   2.038   2.377   0.619 -0.8059  1.0937 -0.3200
 1153SOL    HW212623   1.906   2.284   0.594  0.1388 -0.3157 -0.1583
 1154SOL     OW12624   3.473  -0.012   1.835  0.4631 -0.1488  0.5595
 1154SOL    HW112625   3.464  -0.007   1.935  3.4483 -0.0968  0.8759
 1154SOL    HW212626   3.568  -0.030   1.811 -0.7844 -3.5858 -2.2189
 1156SOL     OW12627   3.980   4.537   1.500  0.6956  0.3265 -0.1393
 1156SOL    HW112628   3.965   4.561   1.404 -0.6252  2.1379  0.4986
 1156SOL    HW212629   4.056   4.590   1.536  1.1368 -0.2923 -0.1435
 1157SOL     OW12630   3.112   0.349   1.778 -0.5633  0.3800 -0.2645
 1157SOL    HW112631   3.096   0.415   1.851  0.5231 -0.1018  0.4264
 1157SOL    HW212632   3.210   0.328   1.772 -0.4888  1.1741 -2.5363
 1160SOL     OW12633   2.106   8.202   0.440 -0.3217  0.2617  0.1833
 1160SOL    HW112634   2.179   8.204   0.371 -0.2780 -0.0648  0.2191
 1160SOL    HW212635   2.035   8.268   0.415 -0.1683  0.3489 -0.0219
 1162SOL     OW12636   2.533   0.583   1.378 -0.2467  0.2368  0.2387
 1162SOL    HW112637   2.633   0.577   1.376 -0.2970 -0.5961 -2.2431
 1162SOL    HW212638   2.501   0.570   1.472  1.9198 -0.3987  0.9333
 1163SOL     OW12639   2.757   1.275   1.075  0.0330  0.2112 -0.0805
 1163SOL    HW112640   2.696   1.351   1.055 -1.2274 -0.5648  0.7675
 1163SOL    HW212641   2.788   1.280   1.170 -2.0467 -1.6921  0.7344
 1164SOL     OW12642   2.136   5.594   0.463 -0.4443  0.2459 -0.6454
 1164SOL    HW112643   2.085   5.528   0.408  0.2978  0.1309 -1.2028
 1164SOL    HW212644   2.098   5.596   0.556 -1.7105  0.4561 -1.1568
 1165SOL     OW12645   4.247   1.947   1.300  0.0538  0.1544  0.0228
 1165SOL    HW112646   4.332   1.934   1.250 -0.1118  1.0273 -0.4980
 1165SOL    HW212647   4.267   1.984   1.391  0.1406  1.8963 -0.6881
 1166SOL     OW12648   2.057   7.529   1.720  0.0845  0.1274  0.9217
 1166SOL    HW112649   2.005   7.614   1.724 -1.9347 -1.0487  0.1956
 1166SOL    HW212650   2.109   7.526   1.635 -1.0957 -0.0716  0.2020
 1167SOL     OW12651   3.313   4.290   0.963  0.1940 -0.1045 -0.0066
 1167SOL    HW112652   3.283   4.276   0.869  0.2980 -0.6983  0.0508
 1167SOL    HW212653   3.409   4.263   0.973  0.1579 -0.1285  0.2936
 1169SOL     OW12654   4.055   8.026   0.723  0.0532 -0.4694 -0.2257
 1169SOL    HW112655   4.069   7.934   0.686  0.4920 -0.1623 -0.8341
 1169SOL    HW212656   4.135   8.083   0.703 -0.0228 -0.0834  0.5447
 1170SOL     OW12657   2.966   4.707   0.965 -0.0794 -0.1337  0.0871
 1170SOL    HW112658   3.051   4.655   0.973  1.1502  1.9441  1.0867
 1170SOL    HW212659   2.911   4.694   1.048 -0.6704 -1.2993 -0.4662
 1171SOL     OW12660   3.158   0.789   1.563  0.5937 -0.1746  1.1092
 1171SOL    HW112661   3.237   0.851   1.566  0.5583 -0.0924  0.5284
 1171SOL    HW212662   3.190   0.695   1.559  0.7414 -0.0496 -1.9718
 1172SOL     OW12663   3.338   1.165   1.211  0.6588  0.1124 -0.3727
 1172SOL    HW112664   3.358   1.213   1.126 -0.7659 -0.8254 -1.2655
 1172SOL    HW212665   3.371   1.071   1.205 -0.2347 -0.2197 -0.2504
 1173SOL     OW12666   4.932   3.447   1.190 -0.4649 -0.3405 -0.0439
 1173SOL    HW112667   5.022   3.410   1.167 -0.6142 -0.6783 -0.0991
 1173SOL    HW212668   4.864   3.410   1.125 -0.4932  0.6117 -0.5544
 1174SOL     OW12669   2.032   9.234   1.861  0.4737  0.2035  0.2732
 1174SOL    HW112670   1.948   9.280   1.889 -0.2346 -1.6072  1.2737
 1174SOL    HW212671   2.048   9.156   1.923  1.7211 -0.7476 -1.2239
 1175SOL     OW12672   1.626   6.840   1.319 -0.2562 -0.0317 -0.4759
 1175SOL    HW112673   1.659   6.749   1.344 -0.6616 -0.4411 -1.3835
 1175SOL    HW212674   1.650   6.906   1.390 -0.0615 -0.8742  0.2419
 1176SOL     OW12675   4.306   4.705   2.263 -0.2113 -0.0595  0.3214
 1176SOL    HW112676   4.284   4.759   2.345  0.2923  0.3285  0.2062
 1176SOL    HW212677   4.395   4.662   2.274 -0.1794 -0.0735  0.0080
 1177SOL     OW12678   4.543   4.548   2.334 -0.4343  0.4256  0.1574
 1177SOL    HW112679   4.626   4.598   2.311 -0.1212 -0.0420  0.2678
 1177SOL    HW212680   4.533   4.544   2.434  0.4857 -1.2563  0.2060
 1180SOL     OW12681   2.591   6.642   1.087  0.3117 -0.3220 -0.7210
 1180SOL    HW112682   2.578   6.704   1.010 -1.7629  0.2209  0.0398
 1180SOL    HW212683   2.537   6.559   1.072  0.1090 -0.3267  0.0203
 1182SOL     OW12684   3.783   8.330   0.836  0.1298  0.2012  0.6047
 1182SOL    HW112685   3.874   8.371   0.825 -0.4372  1.4572  0.4303
 1182SOL    HW212686   3.752   8.293   0.748  0.5670 -0.4289  0.7161
 1184SOL     OW12687   2.685   3.670   0.358 -1.2750 -0.6325  0.3930
 1184SOL    HW112688   2.607   3.610   0.339 -1.7957  0.5704 -1.4025
 1184SOL    HW212689   2.764   3.637   0.306 -1.0164 -0.9113  0.9594
 1185SOL     OW12690   2.798   5.066   1.135 -0.0732  0.4128  0.1966
 1185SOL    HW112691   2.801   5.016   1.221 -1.5736  0.3193  0.2198
 1185SOL    HW212692   2.867   5.031   1.072  0.3932 -0.1542  1.0227
 1186SOL     OW12693   4.280   4.146   0.538 -0.2238  0.2225  0.0601
 1186SOL    HW112694   4.360   4.206   0.533 -1.3024  1.8181  1.4567
 1186SOL    HW212695   4.197   4.202   0.544 -1.5176 -1.4072 -1.9067
 1187SOL     OW12696   2.817   7.941   0.469  0.1746 -0.0770 -0.2629
 1187SOL    HW112697   2.800   7.853   0.513 -1.9034  0.2854 -0.3095
 1187SOL    HW212698   2.904   7.978   0.502  0.7830 -1.8692  0.1923
 1189SOL     OW12699   2.370   6.440   1.015 -0.3189 -0.0047  0.2437
 1189SOL    HW112700   2.312   6.366   1.046  0.2613  0.0900  1.5670
 1189SOL    HW212701   2.439   6.405   0.951 -1.6683 -0.1482 -1.1735
 1192SOL     OW12702   1.940   5.596   0.678  0.2233 -0.3585 -0.5614
 1192SOL    HW112703   1.879   5.523   0.649 -0.5598  0.9134 -2.1800
 1192SOL    HW212704   2.011   5.559   0.738 -0.1951 -2.4184 -1.3246
 1193SOL     OW12705   3.293   9.899   2.256 -0.2769  0.3296  0.3127
 1193SOL    HW112706   3.251   9.973   2.307  2.2202  2.0296  0.0138
 1193SOL    HW212707   3.353   9.937   2.185 -0.0604 -1.9736 -0.7882
 1194SOL     OW12708   3.011   4.971   0.966  0.7268 -0.0600  0.8769
 1194SOL    HW112709   3.106   4.997   0.955  0.7059 -0.6919 -1.0877
 1194SOL    HW212710   3.003   4.871   0.965 -0.0532  0.0007 -0.0540
 1196SOL     OW12711   3.789   1.118   2.232  0.3555 -0.6774  0.4366
 1196SOL    HW112712   3.753   1.185   2.297  0.3124 -0.8627  0.6070
 1196SOL    HW212713   3.878   1.149   2.197  0.3806 -0.5784  0.5889
 1197SOL     OW12714   2.156   6.536   1.996 -0.4984 -0.2103 -0.2470
 1197SOL    HW112715   2.208   6.549   2.080  0.3915  1.0136 -0.9757
 1197SOL    HW212716   2.129   6.440   1.987 -0.4056 -0.3838  1.3111
 1198SOL     OW12717   5.240   1.847   0.553  0.0278  0.1193 -0.2823
 1198SOL    HW112718   5.233   1.854   0.453  0.7370 -2.4407 -0.5459
 1198SOL    HW212719   5.192   1.765   0.584 -0.4035  1.0286  1.5304
 1201SOL     OW12720   2.995   0.239   0.640  0.0360 -0.3969 -0.0608
 1201SOL    HW112721   3.085   0.229   0.684  1.1169  2.0879 -1.6149
 1201SOL    HW212722   2.991   0.180   0.559  0.5931  0.1197 -0.4674
 1203SOL     OW12723   2.733   9.437   2.210 -0.2894 -0.5095 -0.5295
 1203SOL    HW112724   2.732   9.460   2.112 -0.9282 -0.4741 -0.5151
 1203SOL    HW212725   2.648   9.391   2.234 -0.0997 -0.5820 -0.0016
 1205SOL     OW12726   3.042   2.920   1.979  0.1102 -0.4145  0.3935
 1205SOL    HW112727   2.999   2.832   1.999  2.7660 -2.0178 -0.6856
 1205SOL    HW212728   2.991   2.967   1.906 -0.8352 -1.4338  0.3930
 1206SOL     OW12729   1.914   7.968   1.660 -0.1034  0.1576 -0.2713
 1206SOL    HW112730   1.865   8.021   1.591 -1.3852 -0.3760  0.2279
 1206SOL    HW212731   1.962   7.892   1.616 -0.5930  0.0485 -0.6207
 1207SOL     OW12732   3.368   1.761   0.742 -0.0994  0.1783 -0.2231
 1207SOL    HW112733   3.321   1.846   0.766 -1.6020 -0.8214  0.4586
 1207SOL    HW212734   3.436   1.739   0.812 -0.7734  0.0399  0.3959
 1209SOL     OW12735   1.970   8.397   0.284  0.0416 -0.8526  0.5850
 1209SOL    HW112736   1.891   8.336   0.282 -0.6624  0.0806 -0.2984
 1209SOL    HW212737   2.001   8.414   0.190 -0.1624  0.6494  0.7794
 1210SOL     OW12738   3.362   9.224   2.004 -0.3654  0.5819 -0.3727
 1210SOL    HW112739   3.278   9.273   1.982 -0.5578  0.4605  0.0803
 1210SOL    HW212740   3.412   9.274   2.075  0.7102  1.4595 -1.7153
 1211SOL     OW12741   3.567   4.653   1.128  0.5118 -0.9245  0.2217
 1211SOL    HW112742   3.483   4.685   1.084  0.7317  0.0205  0.4575
 1211SOL    HW212743   3.546   4.575   1.187 -0.3390 -0.2380  0.8478
 1213SOL     OW12744   3.750   3.405   2.236 -0.0844 -0.3510  1.1099
 1213SOL    HW112745   3.743   3.480   2.303 -0.9006 -0.9165  1.6618
 1213SOL    HW212746   3.835   3.416   2.183 -0.3886  1.1824  0.9119
 1214SOL     OW12747   2.015   7.877   2.303  0.8311 -0.1778  0.4575
 1214SOL    HW112748   2.026   7.969   2.266  1.4767 -0.5832 -0.3750
 1214SOL    HW212749   1.918   7.858   2.319  0.7729  0.9771  1.4923
 1215SOL     OW12750   2.174   9.519   2.004 -0.0411  0.0149 -0.1509
 1215SOL    HW112751   2.171   9.578   2.084  0.2647 -0.9709  0.5985
 1215SOL    HW212752   2.258   9.464   2.006  0.4647  0.7131 -1.6662
 1217SOL     OW12753   1.996   3.424   0.476  0.2732  0.6535 -0.3974
 1217SOL    HW112754   1.923   3.358   0.494  1.7619 -0.6026  1.2494
 1217SOL    HW212755   1.979   3.507   0.530  1.7283 -0.9085  2.6210
 1218SOL     OW12756   3.702   2.289   2.143 -0.1937  0.4062 -0.1955
 1218SOL    HW112757   3.778   2.301   2.079  0.9911 -1.3466  0.8307
 1218SOL    HW212758   3.737   2.255   2.230 -2.0303  0.7261  0.6882
 1219SOL     OW12759   3.402   0.835   0.390 -0.3735 -0.0657  0.3590
 1219SOL    HW112760   3.342   0.760   0.418 -1.1828  0.8499  1.1040
 1219SOL    HW212761   3.439   0.816   0.299 -0.6714 -1.2993  0.4850
 1220SOL     OW12762   2.139   8.985   1.463  0.0710 -0.2287  0.4297
 1220SOL    HW112763   2.087   9.069   1.477 -0.8928 -0.7926  0.2778
 1220SOL    HW212764   2.099   8.912   1.518  1.9641 -0.1709  1.9342
 1221SOL     OW12765   3.586   2.480   1.596 -0.5115  0.2742 -0.2238
 1221SOL    HW112766   3.633   2.392   1.601  1.2083  1.1968  0.0592
 1221SOL    HW212767   3.626   2.536   1.523 -0.3311  1.5537  0.8379
 1222SOL     OW12768   3.172   4.067   1.361 -0.3396  0.0088  0.2373
 1222SOL    HW112769   3.210   4.139   1.303 -0.2289 -2.0836 -2.3439
 1222SOL    HW212770   3.247   4.017   1.404 -0.3274 -0.4412 -0.3040
 1226SOL     OW12771   4.033   1.950   1.119 -0.1248  0.0018 -0.1217
 1226SOL    HW112772   4.119   1.932   1.166  0.0550  2.2047  0.4414
 1226SOL    HW212773   3.958   1.954   1.185 -0.6703 -1.8413 -0.6013
 1227SOL     OW12774   2.823   9.569   0.941 -0.2471 -0.0199 -0.0060
 1227SOL    HW112775   2.883   9.560   1.021  0.3491 -1.8570 -0.6104
 1227SOL    HW212776   2.745   9.626   0.963 -1.1236 -2.1100  2.5308
 1228SOL     OW12777   3.121   4.814   1.463  0.0792  0.5459  0.9053
 1228SOL    HW112778   3.158   4.901   1.496  0.7555  0.5832  0.0631
 1228SOL    HW212779   3.126   4.811   1.364 -1.2844  0.1329  0.8440
 1229SOL     OW12780   1.854   0.767   2.036  0.4669 -0.0671  0.2875
 1229SOL    HW112781   1.947   0.732   2.022 -0.0670 -1.3817 -0.1263
 1229SOL    HW212782   1.835   0.838   1.969  0.4900 -1.1993 -0.9465
 1230SOL     OW12783   3.513   4.079   2.291 -0.1392 -0.1705  0.2159
 1230SOL    HW112784   3.526   4.037   2.202  2.9736  1.7380 -0.2973
 1230SOL    HW212785   3.541   4.175   2.288 -0.1904 -0.0017  3.1819
 1231SOL     OW12786   4.643   2.537   1.084 -0.3448  0.3119  0.2686
 1231SOL    HW112787   4.632   2.594   1.002 -1.6411  1.8981  1.5036
 1231SOL    HW212788   4.553   2.505   1.113  0.1716 -0.6616  0.7967
 1232SOL     OW12789   1.699   3.155   1.521 -0.0258  0.4779 -0.0957
 1232SOL    HW112790   1.771   3.193   1.579 -1.6486  1.8260  1.1021
 1232SOL    HW212791   1.639   3.097   1.576  0.1065 -0.6170 -1.0768
 1233SOL     OW12792   3.945   1.290   1.567  0.3019 -0.0025 -0.1614
 1233SOL    HW112793   3.947   1.244   1.656  1.0285 -1.8602 -1.1034
 1233SOL    HW212794   3.974   1.385   1.578 -0.0090 -0.0925  1.6381
 1234SOL     OW12795   4.041   4.314   1.690 -0.2545  0.0095 -0.3969
 1234SOL    HW112796   3.999   4.391   1.642 -0.8945  0.0334  0.1965
 1234SOL    HW212797   3.971   4.249   1.717 -0.0504  0.5372  1.4917
 1236SOL     OW12798   1.872   0.770   1.645  0.4496  0.0744  0.2882
 1236SOL    HW112799   1.858   0.802   1.551 -0.0051  0.1427  0.3779
 1236SOL    HW212800   1.876   0.850   1.706 -2.3711 -0.0693  0.7441
 1237SOL     OW12801   2.551   2.557   0.315  0.1276  0.3639  0.5464
 1237SOL    HW112802   2.634   2.574   0.262 -0.3112  1.5667  0.2262
 1237SOL    HW212803   2.480   2.621   0.286 -0.9741 -0.7825  0.6801
 1238SOL     OW12804   2.029   2.384   1.991  0.0652  0.3347 -0.0253
 1238SOL    HW112805   2.066   2.460   2.044 -0.4370 -0.2435  1.1675
 1238SOL    HW212806   1.979   2.323   2.051  0.1705 -0.7645 -1.0377
 1239SOL     OW12807   3.158   5.351   1.332  0.7132 -0.2053 -0.0873
 1239SOL    HW112808   3.101   5.429   1.359  1.2288  0.2463 -0.3018
 1239SOL    HW212809   3.177   5.355   1.234  0.4659 -0.7853 -0.1637
 1240SOL     OW12810   4.691   3.644   0.604 -0.1676  0.1394 -0.6783
 1240SOL    HW112811   4.748   3.656   0.523 -0.0476 -2.8070 -1.1192
 1240SOL    HW212812   4.749   3.637   0.685  0.0485 -1.2181 -0.9250
 1241SOL     OW12813   4.220   4.412   1.913 -0.3107  0.4026 -0.3700
 1241SOL    HW112814   4.170   4.404   1.826  0.4722  0.3035 -0.8109
 1241SOL    HW212815   4.212   4.506   1.946  0.6328  0.8300 -1.3125
 1242SOL     OW12816   3.214   4.240   1.899  0.2806 -0.1261  0.6077
 1242SOL    HW112817   3.186   4.146   1.879  2.2955 -0.4161 -0.9514
 1242SOL    HW212818   3.187   4.299   1.823  2.0856 -0.0509  0.0232
 1243SOL     OW12819   2.404   2.536   1.633 -0.1630 -0.6070  0.6072
 1243SOL    HW112820   2.312   2.573   1.644 -0.5630 -0.7949 -1.8036
 1243SOL    HW212821   2.422   2.468   1.704 -2.3485 -1.4852  0.3458
 1244SOL     OW12822   1.883   1.871   1.917  0.2751  0.0445  0.0643
 1244SOL    HW112823   1.851   1.779   1.940  0.1991 -0.5927 -2.4124
 1244SOL    HW212824   1.805   1.931   1.903  0.2777 -0.0408 -0.3219
 1245SOL     OW12825   2.729   2.132   0.751  0.0197 -0.7552  0.4500
 1245SOL    HW112826   2.630   2.140   0.757 -0.1672 -2.7542  0.4262
 1245SOL    HW212827   2.760   2.157   0.659 -0.4368 -0.0276  0.4904
 1246SOL     OW12828   4.173   2.927   2.064  0.3205  0.0098 -0.2519
 1246SOL    HW112829   4.078   2.911   2.091  0.2220 -0.4176 -0.8280
 1246SOL    HW212830   4.197   3.022   2.080 -1.0018  0.7589 -2.4670
 1247SOL     OW12831   2.090   3.417   0.836  0.0141  0.9180  0.1738
 1247SOL    HW112832   1.990   3.414   0.835  0.0093  1.3089 -0.9973
 1247SOL    HW212833   2.126   3.331   0.801  0.0529  1.7771 -2.0068
 1248SOL     OW12834   2.633   4.897   0.822 -0.2411  0.1648  0.7577
 1248SOL    HW112835   2.615   4.839   0.902 -1.7135  0.2852  0.5262
 1248SOL    HW212836   2.574   4.870   0.747 -0.1077  1.2093  0.2637
 1249SOL     OW12837   2.691   0.427   2.040  0.1539  0.2462 -0.6101
 1249SOL    HW112838   2.754   0.390   2.108 -1.7483 -0.3621  0.8902
 1249SOL    HW212839   2.700   0.377   1.955  1.4524 -0.0486 -0.3034
 1250SOL     OW12840   2.591   5.095   1.656  0.1883 -0.4112  0.4804
 1250SOL    HW112841   2.546   5.175   1.694 -0.6302 -0.4427 -0.4222
 1250SOL    HW212842   2.573   5.089   1.558  1.3843 -0.9376  0.2766
 1252SOL     OW12843   4.775   3.241   0.774  0.4163 -0.2462 -0.0847
 1252SOL    HW112844   4.870   3.260   0.750  0.4785  0.7679  0.9396
 1252SOL    HW212845   4.732   3.188   0.701  2.3742 -2.5908  0.4140
 1253SOL     OW12846   2.770   8.498   0.814  0.3453  0.0494 -0.2834
 1253SOL    HW112847   2.716   8.496   0.897  0.3113 -0.2350 -0.3141
 1253SOL    HW212848   2.806   8.591   0.800  1.8016 -0.3006  0.9845
 1254SOL     OW12849   2.605   0.803   2.351 -0.5227  0.5398  0.2985
 1254SOL    HW112850   2.524   0.747   2.364  1.0378 -1.6919  0.7686
 1254SOL    HW212851   2.650   0.777   2.266  0.2659  1.0248  0.5604
 1255SOL     OW12852   4.460   1.211   0.379  0.0093 -0.0967  0.4201
 1255SOL    HW112853   4.432   1.220   0.283  0.5517  0.9118  0.3472
 1255SOL    HW212854   4.525   1.283   0.401  0.1414 -0.5310  1.4613
 1256SOL     OW12855   2.311   1.120   0.476 -0.4310 -0.2190  0.2030
 1256SOL    HW112856   2.294   1.218   0.486 -0.2560 -0.1569 -0.0812
 1256SOL    HW212857   2.387   1.093   0.535  0.3327  0.0635 -0.6371
 1257SOL     OW12858   2.958   0.734   1.798 -0.3136  0.0653 -0.0565
 1257SOL    HW112859   3.018   0.760   1.722 -0.0247  0.7351  0.3937
 1257SOL    HW212860   2.863   0.738   1.768 -0.1221 -1.8007 -1.0228
 1258SOL     OW12861   3.801   3.349   0.378  0.5196 -0.0308  0.2844
 1258SOL    HW112862   3.855   3.295   0.443  3.0493 -0.6599 -2.2441
 1258SOL    HW212863   3.734   3.290   0.334  0.6489 -0.2232  0.3423
 1259SOL     OW12864   1.919   2.014   1.461 -0.1094  0.6465 -0.6507
 1259SOL    HW112865   1.948   1.995   1.554 -1.7749  0.8048 -0.0699
 1259SOL    HW212866   1.936   1.934   1.403 -0.2219  0.0918  0.0797
 1261SOL     OW12867   2.291   7.642   1.447 -0.1323  0.3280  0.1648
 1261SOL    HW112868   2.255   7.549   1.438 -1.8372  0.7842  1.9362
 1261SOL    HW212869   2.352   7.647   1.526  1.0999  0.3817 -0.7813
 1262SOL     OW12870   3.787   8.472   0.548 -0.0804 -0.4857  0.0472
 1262SOL    HW112871   3.746   8.545   0.494  2.5879  1.2080  0.2015
 1262SOL    HW212872   3.838   8.512   0.624 -0.4696 -2.6520  1.4986
 1263SOL     OW12873   1.928   1.980   0.304 -0.2185  0.2863 -0.2190
 1263SOL    HW112874   1.913   1.881   0.302 -0.8022  0.3660  0.1596
 1263SOL    HW212875   2.020   1.999   0.338  1.0856 -0.2261 -3.3055
 1264SOL     OW12876   3.414   5.229   2.063  0.1693 -0.4311  0.5219
 1264SOL    HW112877   3.433   5.317   2.106 -0.1039  0.3433 -0.8947
 1264SOL    HW212878   3.483   5.211   1.992 -0.7596 -0.5457 -0.3614
 1266SOL     OW12879   2.167   7.969   1.064  0.5129 -0.5948 -0.2433
 1266SOL    HW112880   2.266   7.956   1.052  0.7588  2.4763 -2.1601
 1266SOL    HW212881   2.118   7.928   0.987  0.6899  1.9170 -1.7642
 1267SOL     OW12882   3.697   1.028   1.970 -0.0073 -0.6169  0.0400
 1267SOL    HW112883   3.626   0.957   1.970 -0.3803 -0.2600  0.8529
 1267SOL    HW212884   3.715   1.056   2.064  0.3353  0.1699 -0.2565
 1268SOL     OW12885   2.584   9.720   1.047  0.0233  0.2157  0.5024
 1268SOL    HW112886   2.546   9.812   1.036  0.0865  0.1871  0.0660
 1268SOL    HW212887   2.525   9.654   1.002 -0.7828 -0.1284  2.0213
 1269SOL     OW12888   3.956   8.910   0.906  0.2655  0.5482 -0.2719
 1269SOL    HW112889   4.004   8.995   0.929  2.4045 -0.1176 -2.0892
 1269SOL    HW212890   3.952   8.850   0.986  3.5126  0.1510 -0.3579
 1270SOL     OW12891   5.039   1.501   0.933 -0.1322  0.3135  0.3649
 1270SOL    HW112892   5.114   1.455   0.980 -0.2315  0.4757  0.6825
 1270SOL    HW212893   4.977   1.541   1.000 -1.2345 -0.9788  0.1179
 1271SOL     OW12894   2.064   7.745   2.002 -0.3195 -0.1905  0.1873
 1271SOL    HW112895   2.059   7.693   2.087 -1.6330  0.4310  0.4907
 1271SOL    HW212896   1.977   7.740   1.954 -0.6099  2.0426  0.4207
 1272SOL     OW12897   2.781   7.717   1.586 -0.0408 -0.4039 -0.3799
 1272SOL    HW112898   2.767   7.623   1.617 -0.5152  0.0608  0.8183
 1272SOL    HW212899   2.697   7.769   1.599  0.8134  0.7100  0.8246
 1273SOL     OW12900   3.056   4.642   1.888 -0.0863 -0.0946  0.8797
 1273SOL    HW112901   3.099   4.587   1.960 -2.7928 -1.1484  1.7579
 1273SOL    HW212902   3.042   4.735   1.922  0.4972 -0.0520  1.0009
 1275SOL     OW12903   4.437   3.583   0.730 -0.5639  0.2118  0.2676
 1275SOL    HW112904   4.524   3.597   0.683 -1.0315  0.9816 -0.3845
 1275SOL    HW212905   4.391   3.503   0.692 -0.3190  0.0314  0.3504
 1276SOL     OW12906   2.854   0.104   1.960  0.4433 -0.1124  0.2716
 1276SOL    HW112907   2.827   0.007   1.958  0.9200 -0.2185 -0.9289
 1276SOL    HW212908   2.803   0.154   1.891  1.3449  0.2013 -0.1652
 1277SOL     OW12909   2.093   0.518   0.982 -0.4988  0.1646  0.5239
 1277SOL    HW112910   2.126   0.605   0.947 -1.3350  0.1816 -0.2482
 1277SOL    HW212911   2.053   0.531   1.073 -0.9104  0.6563  0.2760
 1279SOL     OW12912   2.315   6.796   0.572  0.2519  0.2995 -0.2412
 1279SOL    HW112913   2.277   6.830   0.659  0.1108  1.8470 -0.8869
 1279SOL    HW212914   2.329   6.697   0.578  2.8424  0.7344  2.5512
 1280SOL     OW12915   2.524   6.940   1.734 -0.1611 -0.1720 -0.8182
 1280SOL    HW112916   2.576   7.001   1.794 -1.9295  0.0613  0.5221
 1280SOL    HW212917   2.506   6.986   1.647 -0.9544  1.0222 -0.0422
 1281SOL     OW12918   2.786   8.884   0.256  0.1470 -0.2983 -0.3224
 1281SOL    HW112919   2.865   8.827   0.233  0.3820 -0.4288  0.7606
 1281SOL    HW212920   2.764   8.872   0.353 -0.2691  0.8872 -0.2693
 1282SOL     OW12921   3.231   1.363   0.288  0.3901 -0.0021  0.0668
 1282SOL    HW112922   3.275   1.294   0.346 -1.6098  0.1765  1.8897
 1282SOL    HW212923   3.241   1.453   0.331  0.3884  0.4093 -0.7814
 1283SOL     OW12924   2.975   4.166   0.430 -0.4741 -0.3028  0.6213
 1283SOL    HW112925   2.948   4.100   0.500 -1.2507  0.7022  1.2858
 1283SOL    HW212926   2.989   4.256   0.472 -2.4844  0.6808 -0.7249
 1284SOL     OW12927   3.136   8.381   2.328  0.3036 -0.0688  0.4374
 1284SOL    HW112928   3.159   8.306   2.389 -0.8277 -0.3626  0.5079
 1284SOL    HW212929   3.056   8.358   2.274  0.4358  0.7610 -0.1354
 1285SOL     OW12930   2.036   7.256   1.860  0.5460 -0.2172  0.4395
 1285SOL    HW112931   2.070   7.326   1.797  1.6092  0.3210  1.5910
 1285SOL    HW212932   1.972   7.298   1.924 -2.1771 -1.1714 -1.5480
 1286SOL     OW12933   3.104   7.770   0.368  0.1881 -0.0159 -1.1375
 1286SOL    HW112934   3.049   7.690   0.346  0.3392 -0.5219  0.2687
 1286SOL    HW212935   3.049   7.834   0.422  0.1637  0.7068 -1.9943
 1287SOL     OW12936   3.618   5.726   0.826  0.4861  0.5754  0.5143
 1287SOL    HW112937   3.546   5.770   0.879 -1.1457 -0.8907 -0.4384
 1287SOL    HW212938   3.666   5.660   0.883 -1.6588 -1.4338  0.0912
 1288SOL     OW12939   3.957   9.868   0.440 -0.4443  0.3908 -0.1411
 1288SOL    HW112940   3.905   9.845   0.357 -0.8899 -0.5999  0.4036
 1288SOL    HW212941   4.006   9.953   0.425 -0.6907  0.3364 -1.3578
 1289SOL     OW12942   2.806   7.382   1.287  0.5525 -0.2229  0.2104
 1289SOL    HW112943   2.839   7.476   1.293 -0.6476  0.2270 -0.0724
 1289SOL    HW212944   2.715   7.376   1.328  0.5705 -1.2323  0.1107
 1290SOL     OW12945   2.447   3.546   0.534  0.2844  0.3137 -0.7172
 1290SOL    HW112946   2.536   3.569   0.573  2.3532 -1.5636 -4.1050
 1290SOL    HW212947   2.455   3.537   0.435 -3.2606 -1.7901 -0.8949
 1292SOL     OW12948   2.406   6.097   1.073  0.0425  0.3048  0.8327
 1292SOL    HW112949   2.454   6.165   1.016  0.9856 -1.0729 -0.0670
 1292SOL    HW212950   2.312   6.087   1.041  0.0569  0.7872  0.6301
 1294SOL     OW12951   3.155   8.410   0.748  0.0112 -0.0652 -0.0086
 1294SOL    HW112952   3.187   8.367   0.832 -0.3544 -0.6841 -0.1904
 1294SOL    HW212953   3.058   8.391   0.736 -0.3269  1.4007  0.2849
 1295SOL     OW12954   2.258   9.773   0.652 -0.1137 -0.2774  0.4148
 1295SOL    HW112955   2.203   9.816   0.724 -1.0026  0.6748 -0.8051
 1295SOL    HW212956   2.338   9.830   0.633  1.6236 -1.9208  2.5493
 1296SOL     OW12957   2.385   3.032   1.253 -0.1271  0.0578  0.0628
 1296SOL    HW112958   2.363   3.129   1.246 -0.8559  0.0257  1.5838
 1296SOL    HW212959   2.374   2.988   1.164 -3.2938  0.6530  0.1128
 1297SOL     OW12960   2.938   3.055   1.310 -0.4972  0.0537 -0.0972
 1297SOL    HW112961   2.856   3.102   1.343 -0.1506  0.7508 -0.2129
 1297SOL    HW212962   2.995   3.029   1.388 -1.4410 -1.5871  0.0629
 1298SOL     OW12963   2.148   9.215   0.897  0.4922  0.3338  0.1798
 1298SOL    HW112964   2.049   9.224   0.894  0.7239  3.0044 -0.3644
 1298SOL    HW212965   2.173   9.158   0.976 -1.4341  0.0733  0.6352
 1300SOL     OW12966   3.230   3.931   2.335 -0.0533 -0.3824 -0.2171
 1300SOL    HW112967   3.190   3.936   2.244 -1.3914 -2.1567  0.2480
 1300SOL    HW212968   3.326   3.960   2.331  0.2612 -1.6352 -2.4071
 1303SOL     OW12969   3.184   8.905   0.318 -0.2865 -1.1038  0.1977
 1303SOL    HW112970   3.226   8.918   0.228 -1.0078 -0.0881  0.0084
 1303SOL    HW212971   3.130   8.985   0.342 -0.6934 -1.6769  1.2253
 1304SOL     OW12972   3.828   1.887   1.302 -0.7104 -0.1066  0.1146
 1304SOL    HW112973   3.734   1.920   1.298  0.0396  1.9166 -2.0463
 1304SOL    HW212974   3.828   1.787   1.299 -2.6729 -0.1029 -4.2961
 1305SOL     OW12975   3.176   8.805   1.276  0.4133 -0.1124  0.5656
 1305SOL    HW112976   3.080   8.777   1.277  0.6793 -1.2002 -1.3475
 1305SOL    HW212977   3.208   8.818   1.370 -1.2490 -0.9730  1.2754
 1310SOL     OW12978   4.889   2.982   0.355  0.4811 -0.3041  0.2666
 1310SOL    HW112979   4.816   3.043   0.323  0.3515 -0.6536 -0.1129
 1310SOL    HW212980   4.921   3.013   0.444  0.6063  0.4795 -0.0423
 1311SOL     OW12981   2.640   1.222   2.269 -0.5533  0.1097  0.9053
 1311SOL    HW112982   2.698   1.301   2.286 -1.4216  1.0984 -0.6210
 1311SOL    HW212983   2.694   1.138   2.276  0.8160  0.9553  0.5332
 1312SOL     OW12984   3.831   5.367   1.839  0.7349  0.6997  0.2135
 1312SOL    HW112985   3.800   5.444   1.896 -1.2115  0.5978 -0.6768
 1312SOL    HW212986   3.844   5.399   1.745  1.2407  0.2485  0.1339
 1313SOL     OW12987   3.051   8.021   1.260  0.1112 -0.6882  0.0873
 1313SOL    HW112988   3.058   7.925   1.233  0.0811 -0.7465  0.2822
 1313SOL    HW212989   3.020   8.026   1.355 -0.8010 -0.4699 -0.2147
 1314SOL     OW12990   4.224   3.733   0.862 -0.2343  0.5158  0.3622
 1314SOL    HW112991   4.222   3.792   0.781  0.5311  2.0377  1.4360
 1314SOL    HW212992   4.297   3.665   0.852 -0.3441  0.4963 -0.3455
 1315SOL     OW12993   3.570   2.646   1.154  0.1361  0.6730  0.2711
 1315SOL    HW112994   3.537   2.626   1.062 -0.4555 -0.7694  0.7867
 1315SOL    HW212995   3.516   2.594   1.221 -1.1413  3.6378  1.6347
 1316SOL     OW12996   2.907   8.252   1.497 -0.1722  0.2981 -0.0549
 1316SOL    HW112997   2.831   8.278   1.437 -1.0469  2.0820  1.7387
 1316SOL    HW212998   2.983   8.316   1.483  0.7050 -1.0064 -1.2827
 1317SOL     OW12999   3.623   8.608   1.613 -0.0634  0.6690  0.1601
 1317SOL    HW113000   3.716   8.609   1.652 -0.1105 -0.9721  0.3326
 1317SOL    HW213001   3.585   8.700   1.616  1.1205  1.1361  1.1699
 1318SOL     OW13002   3.381   2.480   1.258 -0.6523  0.1294  0.4783
 1318SOL    HW113003   3.319   2.553   1.228 -3.3574 -1.8104  1.1869
 1318SOL    HW213004   3.385   2.409   1.188 -0.4944 -0.5377  1.1645
 1319SOL     OW13005   2.060   7.275   0.981  0.1989 -0.2442  0.1935
 1319SOL    HW113006   2.008   7.190   0.987 -0.1414 -0.1051 -0.7152
 1319SOL    HW213007   2.142   7.260   0.927  0.8588 -0.3430  1.2235
 1321SOL     OW13008   3.504   1.183   1.718  0.0281  0.4593  0.5463
 1321SOL    HW113009   3.602   1.173   1.735 -0.0335 -1.8522 -0.3230
 1321SOL    HW213010   3.489   1.202   1.621 -0.4499 -0.3914  0.4487
 1323SOL     OW13011   1.800   0.962   1.404 -0.0648  0.3308  0.6006
 1323SOL    HW113012   1.890   0.997   1.378  0.4196 -1.1040  0.2973
 1323SOL    HW213013   1.731   0.996   1.340  0.0429  2.4592  1.5563
 1324SOL     OW13014   1.914   7.662   0.694  0.2269 -0.3013 -0.2871
 1324SOL    HW113015   1.917   7.645   0.793  1.5850 -0.5656 -0.3571
 1324SOL    HW213016   1.927   7.575   0.646 -0.1460 -0.1286 -0.6997
 1325SOL     OW13017   3.737   0.165   2.020  0.4753  0.0462 -0.3365
 1325SOL    HW113018   3.756   0.235   2.089  0.5097 -0.0930 -0.2034
 1325SOL    HW213019   3.813   0.161   1.955  0.4719  0.1343 -0.3464
 1326SOL     OW13020   2.165   3.641   0.569  0.3399  0.0867  0.2471
 1326SOL    HW113021   2.244   3.583   0.550 -0.8717 -0.4845 -3.4997
 1326SOL    HW213022   2.151   3.704   0.493 -2.8761  0.0725  0.7407
 1327SOL     OW13023   4.345   1.597   1.802 -0.0256  0.2830  0.1798
 1327SOL    HW113024   4.359   1.661   1.726  1.0700  0.2345  0.3205
 1327SOL    HW213025   4.314   1.647   1.883  0.6054  0.6164  0.2227
 1328SOL     OW13026   4.569   3.852   0.471  0.1073  0.0588  0.4670
 1328SOL    HW113027   4.481   3.846   0.425 -0.3937  0.8012  1.3166
 1328SOL    HW213028   4.584   3.769   0.525  0.4326 -0.5499 -0.5253
 1329SOL     OW13029   2.813   3.176   2.146 -0.4658  0.3589 -0.2238
 1329SOL    HW113030   2.780   3.101   2.089 -1.0356 -0.8514  1.6507
 1329SOL    HW213031   2.902   3.151   2.185  0.4659  1.6502 -1.4600
 1330SOL     OW13032   2.616   3.851   1.388  0.2601  0.7201  0.0358
 1330SOL    HW113033   2.564   3.935   1.405 -1.1604 -0.2589  0.6332
 1330SOL    HW213034   2.561   3.789   1.331  2.0514  0.9501 -2.0106
 1331SOL     OW13035   2.049   9.907   0.546  0.2480  0.1527 -0.3070
 1331SOL    HW113036   2.067   9.961   0.464  0.5473 -0.7252 -0.8330
 1331SOL    HW213037   2.126   9.844   0.562  0.1454  0.2520  0.5853
 1332SOL     OW13038   2.487   1.833   1.338 -0.1198 -0.0566  0.8052
 1332SOL    HW113039   2.524   1.745   1.366  1.9664  0.4804 -0.2185
 1332SOL    HW213040   2.474   1.891   1.418  0.3681 -0.5873  1.2685
 1333SOL     OW13041   3.514   9.837   1.564 -0.5758  1.0240  0.1079
 1333SOL    HW113042   3.481   9.910   1.504  1.8993  0.7979 -1.6130
 1333SOL    HW213043   3.567   9.877   1.638 -2.0400  1.1655  1.1099
 1335SOL     OW13044   4.676   0.712   1.120  0.0043  0.3233 -0.3832
 1335SOL    HW113045   4.581   0.692   1.144 -0.3263  0.7932 -1.2746
 1335SOL    HW213046   4.717   0.633   1.076  0.3724 -0.2666  0.9897
 1336SOL     OW13047   2.600   1.008   0.984 -0.4635  0.0702  0.4272
 1336SOL    HW113048   2.518   1.043   0.938 -1.3619 -1.5834  0.7127
 1336SOL    HW213049   2.665   1.082   0.999 -1.8543  1.3742  0.0678
 1337SOL     OW13050   3.034   1.475   1.103 -0.0436  0.0830  0.3722
 1337SOL    HW113051   2.995   1.566   1.118 -1.3818 -0.3034 -0.6684
 1337SOL    HW213052   2.989   1.409   1.163 -0.0757 -0.1370  0.1090
 1338SOL     OW13053   2.494   1.782   0.788 -0.1827 -0.0103 -0.1933
 1338SOL    HW113054   2.452   1.737   0.867  0.2315  2.5267  1.5484
 1338SOL    HW213055   2.455   1.744   0.704 -1.1333 -2.3051  1.2128
 1339SOL     OW13056   2.619   3.188   1.802  0.1823  0.1820 -0.1064
 1339SOL    HW113057   2.595   3.216   1.895 -0.8683  0.5281 -0.4682
 1339SOL    HW213058   2.650   3.093   1.802  3.8209  1.3092  1.1479
 1340SOL     OW13059   3.633   1.393   1.419  0.1019  0.3883 -0.2008
 1340SOL    HW113060   3.616   1.294   1.420  1.0087  0.2174  2.6543
 1340SOL    HW213061   3.552   1.440   1.387 -0.8704 -1.2167 -0.1728
 1342SOL     OW13062   3.157   9.367   1.972  0.3511 -0.2812 -0.0649
 1342SOL    HW113063   3.103   9.390   2.054  0.2787 -1.8482  0.3376
 1342SOL    HW213064   3.096   9.331   1.902  0.7559 -1.2219  0.0683
 1343SOL     OW13065   1.884   9.594   1.100 -0.4749 -0.1943 -0.5431
 1343SOL    HW113066   1.981   9.572   1.096 -0.3312  0.4793 -0.8063
 1343SOL    HW213067   1.868   9.661   1.173 -0.5025  0.8726 -1.5012
 1345SOL     OW13068   3.687   8.986   0.863 -0.2677  0.0968  0.5077
 1345SOL    HW113069   3.785   8.966   0.867 -0.2580  0.2301  0.9954
 1345SOL    HW213070   3.645   8.931   0.790  0.3736  0.9267 -0.4990
 1346SOL     OW13071   2.577   2.090   1.803 -0.6633 -0.0764 -0.3631
 1346SOL    HW113072   2.498   2.073   1.862  1.4505 -2.0478  2.0534
 1346SOL    HW213073   2.558   2.058   1.711 -1.4976 -3.7800  1.0175
 1347SOL     OW13074   2.761   0.379   0.538  0.1849 -0.5296  0.0978
 1347SOL    HW113075   2.847   0.340   0.572 -0.7330 -2.3907  0.3367
 1347SOL    HW213076   2.700   0.398   0.615  0.6863  1.5705 -0.0030
 1348SOL     OW13077   3.694   0.733   0.311  0.3572  0.1035 -0.2308
 1348SOL    HW113078   3.738   0.656   0.264  1.5933  0.8313 -0.2853
 1348SOL    HW213079   3.679   0.709   0.407 -0.3894 -0.6585 -0.5284
 1350SOL     OW13080   4.691   2.853   1.731  0.3224 -0.7251  0.0006
 1350SOL    HW113081   4.781   2.890   1.752 -0.3670  0.5876  0.7325
 1350SOL    HW213082   4.647   2.821   1.816 -0.2896 -0.4537 -0.2108
 1351SOL     OW13083   2.960   5.708   2.268 -0.1616  0.0337 -0.5113
 1351SOL    HW113084   2.908   5.790   2.290  1.6321  1.2751 -0.7590
 1351SOL    HW213085   3.047   5.710   2.317  0.6254 -0.8739 -1.8270
 1353SOL     OW13086   4.651   3.108   0.562 -0.4166  0.0477 -0.0514
 1353SOL    HW113087   4.653   3.017   0.603 -0.5568 -0.6032 -1.4472
 1353SOL    HW213088   4.670   3.101   0.464 -1.0690  1.4483 -0.3003
 1356SOL     OW13089   3.850   4.186   2.235 -0.1953 -0.2427 -0.3533
 1356SOL    HW113090   3.798   4.267   2.262  0.6736  0.3053 -0.3046
 1356SOL    HW213091   3.947   4.210   2.227  0.1748 -1.4472  0.3995
 1357SOL     OW13092   2.500   9.285   2.249 -0.1103  0.0026 -0.1238
 1357SOL    HW113093   2.471   9.237   2.331 -0.3819 -0.6233 -0.5768
 1357SOL    HW213094   2.431   9.274   2.177  0.2965  0.2213 -0.5577
 1358SOL     OW13095   4.569   2.319   1.333  0.2314 -0.3608 -0.4035
 1358SOL    HW113096   4.515   2.374   1.270 -0.4439 -0.7373 -0.1521
 1358SOL    HW213097   4.621   2.380   1.394  0.5530 -0.0007 -1.0301
 1359SOL     OW13098   3.944   8.878   1.797  0.3959 -0.5919 -0.1408
 1359SOL    HW113099   3.866   8.849   1.852  1.0326  2.9150  2.8519
 1359SOL    HW213100   3.913   8.941   1.726  0.3534  0.3463  0.6853
 1362SOL     OW13101   4.988   2.607   1.886  0.6929 -0.6879  0.0677
 1362SOL    HW113102   5.046   2.540   1.839 -0.8759 -1.1806 -1.1845
 1362SOL    HW213103   4.893   2.577   1.883 -0.1604  2.0452 -1.3028
 1363SOL     OW13104   3.997   0.698   2.094  0.1819 -0.0070  0.5920
 1363SOL    HW113105   3.977   0.790   2.060  1.9464  0.9611  2.0897
 1363SOL    HW213106   3.969   0.691   2.189  0.0490 -1.0431  0.4857
 1364SOL     OW13107   3.333   2.265   1.850 -0.0874 -0.1365  0.1069
 1364SOL    HW113108   3.312   2.229   1.759 -1.2835  0.6708  0.0509
 1364SOL    HW213109   3.249   2.275   1.903  0.3274  1.5208  0.5059
 1366SOL     OW13110   4.783   1.740   0.679  0.4096 -0.4409  0.1827
 1366SOL    HW113111   4.693   1.696   0.680  0.4386 -0.7011 -3.1726
 1366SOL    HW213112   4.780   1.825   0.732 -1.5830 -0.8544  0.7449
 1368SOL     OW13113   2.778   2.045   1.463 -0.5744  0.0853 -0.0403
 1368SOL    HW113114   2.823   2.001   1.386 -0.5188  0.7080 -0.3624
 1368SOL    HW213115   2.841   2.109   1.507 -0.3732 -0.7692  0.9467
 1369SOL     OW13116   2.206   7.825   0.361  0.3948  0.0110  0.3732
 1369SOL    HW113117   2.227   7.890   0.434  0.4073 -0.9524  1.2564
 1369SOL    HW213118   2.253   7.851   0.277  1.8013  0.1688  1.2031
 1370SOL     OW13119   2.164   2.582   2.098  0.1163  0.0405 -0.6349
 1370SOL    HW113120   2.118   2.671   2.102 -0.7523 -0.3758 -1.1477
 1370SOL    HW213121   2.225   2.573   2.176 -0.7976  0.5516  0.1583
 1371SOL     OW13122   1.812   2.866   0.913 -0.8787  0.3206  0.1691
 1371SOL    HW113123   1.837   2.777   0.950 -0.1966  0.2742 -0.4067
 1371SOL    HW213124   1.742   2.854   0.842 -2.1854  0.4098  1.4189
 1372SOL     OW13125   2.840   1.680   1.110  0.6439 -0.0297  0.1306
 1372SOL    HW113126   2.820   1.736   1.029 -1.3317 -1.4182 -0.3716
 1372SOL    HW213127   2.876   1.739   1.182  1.8619  1.3373 -1.5349
 1375SOL     OW13128   3.451   2.388   0.483  0.1428 -0.3544  0.0982
 1375SOL    HW113129   3.532   2.403   0.541  0.2152 -1.4061  0.2752
 1375SOL    HW213130   3.414   2.476   0.455  0.7154  0.1521  0.9089
 1379SOL     OW13131   3.621   7.912   0.758  0.2187  0.0919 -0.1340
 1379SOL    HW113132   3.525   7.921   0.732 -0.3143  1.0160  2.0412
 1379SOL    HW213133   3.630   7.846   0.832  1.2981 -0.1196 -0.4327
 1381SOL     OW13134   1.975   2.477   1.748 -0.1424  0.1476  0.9220
 1381SOL    HW113135   1.958   2.575   1.761 -1.1224  0.1921 -0.5258
 1381SOL    HW213136   2.000   2.435   1.835  0.8192  1.7906  1.4420
 1382SOL     OW13137   3.787   2.085   0.543 -0.1156 -0.4465  0.1099
 1382SOL    HW113138   3.738   2.163   0.581  0.2742 -0.4101  0.5367
 1382SOL    HW213139   3.836   2.037   0.616  2.9288  1.2483 -0.7562
 1383SOL     OW13140   2.205   4.508   1.503  0.2938 -0.1987  0.1912
 1383SOL    HW113141   2.171   4.416   1.486  0.5736 -0.4299  0.8750
 1383SOL    HW213142   2.181   4.536   1.596 -0.5965  0.7799 -0.3183
 1384SOL     OW13143   2.441   7.643   1.697  0.2643 -0.2137 -0.0531
 1384SOL    HW113144   2.458   7.545   1.711  0.9122  0.1262  1.6643
 1384SOL    HW213145   2.420   7.686   1.785 -2.2398  0.7853 -1.0956
 1385SOL     OW13146   4.295   4.892   1.378 -0.0035 -0.1821 -0.1375
 1385SOL    HW113147   4.300   4.989   1.399 -1.5987 -0.1659  0.2142
 1385SOL    HW213148   4.292   4.839   1.462 -2.6428 -0.3215 -0.2885
 1386SOL     OW13149   1.845   9.302   2.328  0.0941  0.5653  0.0032
 1386SOL    HW113150   1.876   9.237   2.258 -0.8373  0.6560 -0.4956
 1386SOL    HW213151   1.758   9.341   2.300 -0.8689 -0.2801  1.7934
 1387SOL     OW13152   4.003   1.644   1.628 -0.6827 -0.9374 -0.4708
 1387SOL    HW113153   3.906   1.660   1.645 -0.0872  1.1301  1.1021
 1387SOL    HW213154   4.052   1.639   1.715  0.8507 -0.4216 -1.2839
 1388SOL     OW13155   2.799   5.124   2.079 -0.0524 -0.9987 -0.3221
 1388SOL    HW113156   2.749   5.045   2.042 -1.9836  0.3896 -0.7742
 1388SOL    HW213157   2.766   5.207   2.036  1.8586  0.0960  0.2703
 1391SOL     OW13158   4.008   2.927   0.772  0.6278 -0.3148 -0.0919
 1391SOL    HW113159   4.053   2.864   0.835 -0.9864  0.6844  2.1084
 1391SOL    HW213160   3.938   2.979   0.821  0.8049  2.0212 -2.2215
 1392SOL     OW13161   4.499   1.736   1.410 -0.1232  0.2689 -0.7314
 1392SOL    HW113162   4.565   1.797   1.367  1.4667 -0.1670  1.0483
 1392SOL    HW213163   4.480   1.767   1.503 -2.6204  0.5110 -1.2669
 1393SOL     OW13164   3.217   0.222   1.464  0.4210  0.2109 -0.7390
 1393SOL    HW113165   3.126   0.227   1.505  0.2029 -2.2750 -0.8568
 1393SOL    HW213166   3.215   0.260   1.372 -0.1580  1.4632 -0.2192
 1394SOL     OW13167   2.264   4.139   1.864 -0.2797 -0.4810 -0.6785
 1394SOL    HW113168   2.360   4.124   1.841  0.1917 -1.2757  1.7544
 1394SOL    HW213169   2.257   4.190   1.950 -2.0416 -1.4233 -0.2418
 1395SOL     OW13170   3.496   4.428   1.930  0.5575  0.7849 -0.1899
 1395SOL    HW113171   3.415   4.438   1.872  0.6751  1.8733 -0.1691
 1395SOL    HW213172   3.528   4.334   1.926 -1.5419 -0.0213  0.8638
 1397SOL     OW13173   2.611   8.041   0.314  0.0730 -0.8323 -0.2380
 1397SOL    HW113174   2.687   7.994   0.357  0.1820 -0.2485  0.2143
 1397SOL    HW213175   2.585   8.121   0.369 -1.4358 -1.5279  0.0837
 1398SOL     OW13176   2.495   2.407   1.871  0.0744  0.1884 -0.0888
 1398SOL    HW113177   2.398   2.383   1.882  0.0857  0.8179  1.6409
 1398SOL    HW213178   2.552   2.334   1.908  0.2021  0.8610  1.0588
 1399SOL     OW13179   3.849   1.510   0.442 -0.2304  0.3885 -0.6982
 1399SOL    HW113180   3.752   1.535   0.438 -0.4585 -0.0832  1.3627
 1399SOL    HW213181   3.860   1.417   0.408 -0.6387  0.1196 -0.1101
 1400SOL     OW13182   5.001   3.008   0.611  0.1437 -0.5449  1.0351
 1400SOL    HW113183   4.940   2.942   0.653  0.2973 -1.0112  0.5224
 1400SOL    HW213184   5.092   2.999   0.651  0.3544 -1.1678  0.4174
 1401SOL     OW13185   3.713   9.476   2.205 -0.0581 -0.2565 -0.9031
 1401SOL    HW113186   3.663   9.538   2.145  0.9187  0.8319 -0.5927
 1401SOL    HW213187   3.739   9.523   2.289 -0.0126 -1.3161 -0.3063
 1403SOL     OW13188   2.115   5.915   1.042  0.1099  0.2867 -0.0050
 1403SOL    HW113189   2.056   5.901   0.962  1.0902  0.2832 -0.7319
 1403SOL    HW213190   2.081   5.992   1.095 -1.3247 -0.5365  0.3053
 1404SOL     OW13191   3.166   1.589   0.681 -0.7508 -0.0244  0.4362
 1404SOL    HW113192   3.180   1.501   0.727 -0.3719 -0.8087 -1.1665
 1404SOL    HW213193   3.241   1.651   0.704 -0.0311 -0.7535  0.0898
 1407SOL     OW13194   2.668   6.067   1.851  0.1751  0.6224 -0.1181
 1407SOL    HW113195   2.654   6.125   1.771  0.8821 -0.7561 -1.2714
 1407SOL    HW213196   2.765   6.064   1.873  0.1538 -0.1584 -0.1110
 1408SOL     OW13197   3.626   1.477   2.028 -0.5305 -0.3251 -0.0148
 1408SOL    HW113198   3.653   1.397   1.974  0.4435 -0.8675  1.2692
 1408SOL    HW213199   3.530   1.498   2.009 -1.0377 -2.2787  0.2134
 1409SOL     OW13200   1.792   0.210   0.662  0.1447 -0.2190 -0.2414
 1409SOL    HW113201   1.805   0.277   0.735 -0.0907  0.1764 -0.5668
 1409SOL    HW213202   1.808   0.253   0.573  2.6927 -1.2287 -0.3319
 1410SOL     OW13203   3.797   3.639   1.030 -0.0507  0.3074  0.8164
 1410SOL    HW113204   3.784   3.557   1.086 -0.0729  1.1869  2.1290
 1410SOL    HW213205   3.708   3.672   0.999 -0.1862  0.7702  1.6752
 1411SOL     OW13206   3.743   8.774   0.648 -0.2545  0.2076 -0.0972
 1411SOL    HW113207   3.769   8.854   0.595 -0.1802  0.9032  0.9909
 1411SOL    HW213208   3.643   8.772   0.658 -0.1274  1.2372  1.5414
 1412SOL     OW13209   2.699   8.196   1.677 -0.6908 -0.2370  0.0962
 1412SOL    HW113210   2.688   8.098   1.662 -2.9376 -0.1635  1.1039
 1412SOL    HW213211   2.764   8.232   1.610 -0.7703 -2.1798 -1.0886
 1413SOL     OW13212   3.785   8.324   2.315  0.1732 -0.2802 -0.0851
 1413SOL    HW113213   3.859   8.350   2.253 -1.2999  0.4353 -1.5974
 1413SOL    HW213214   3.728   8.255   2.271 -2.7571  2.5299 -0.8865
 1414SOL     OW13215   2.890   6.003   1.619 -0.6131  0.3763  0.1745
 1414SOL    HW113216   2.894   5.918   1.672 -1.5288 -0.6703 -1.3973
 1414SOL    HW213217   2.913   5.984   1.523 -3.5370  1.3753 -0.7782
 1415SOL     OW13218   2.503   6.766   2.203 -0.0336  0.1936  0.0437
 1415SOL    HW113219   2.594   6.748   2.165  0.2746 -0.5636  1.0898
 1415SOL    HW213220   2.504   6.851   2.255 -0.4630  1.2442 -1.6301
 1416SOL     OW13221   2.954   3.712   0.915  0.3031 -0.3607  0.0505
 1416SOL    HW113222   2.937   3.750   1.006 -1.8698 -1.1651  0.0144
 1416SOL    HW213223   2.937   3.782   0.846 -1.8508 -0.8054  0.0863
 1417SOL     OW13224   2.254   7.627   0.932  0.5437  0.4482  0.1094
 1417SOL    HW113225   2.303   7.647   0.848  0.1645  1.1968  0.0591
 1417SOL    HW213226   2.299   7.673   1.009  0.1985  0.7460  0.1344
 1419SOL     OW13227   2.523   7.003   2.358  0.5754  0.1992 -0.4105
 1419SOL    HW113228   2.489   6.938   2.426 -0.4231  1.2267  0.0884
 1419SOL    HW213229   2.616   7.032   2.383  2.0550 -2.8730 -1.9639
 1420SOL     OW13230   2.501   8.831   1.276 -0.1325  0.7458 -0.0109
 1420SOL    HW113231   2.451   8.910   1.312  0.5496  0.0662  2.4601
 1420SOL    HW213232   2.451   8.747   1.298 -1.3972  0.4581 -3.5122
 1421SOL     OW13233   3.752   5.026   1.274 -0.0817 -0.1861  0.0066
 1421SOL    HW113234   3.788   4.948   1.223 -0.7759 -0.5394  0.0476
 1421SOL    HW213235   3.750   5.005   1.372  2.1868  0.8652  0.3045
 1422SOL     OW13236   3.052   0.922   1.974  0.1732  0.2577 -0.3880
 1422SOL    HW113237   3.027   0.848   1.912 -1.6868  0.4159  0.1508
 1422SOL    HW213238   3.136   0.897   2.023  0.3616 -0.8614 -1.2616
 1423SOL     OW13239   3.072   5.539   0.774 -0.3289 -0.2291  0.5094
 1423SOL    HW113240   3.075   5.458   0.715  0.6267 -1.0141  1.6167
 1423SOL    HW213241   3.079   5.621   0.717 -0.4079 -0.9456 -0.5524
 1424SOL     OW13242   3.676   8.568   2.004  0.2032 -0.7648 -0.2104
 1424SOL    HW113243   3.650   8.661   1.976  0.6381 -0.4975  0.2718
 1424SOL    HW213244   3.689   8.511   1.923  2.2547  0.2219 -0.5897
 1425SOL     OW13245   3.441   1.882   2.197  0.0913 -0.2782 -0.1695
 1425SOL    HW113246   3.460   1.940   2.276 -0.0214  0.8440 -0.9482
 1425SOL    HW213247   3.399   1.797   2.227 -1.9698  1.0310  0.8294
 1426SOL     OW13248   1.671   2.792   0.424  0.2863 -0.0198 -0.5760
 1426SOL    HW113249   1.710   2.702   0.405  0.2836  0.4216 -2.7934
 1426SOL    HW213250   1.725   2.862   0.377 -0.9494  0.9477 -0.5865
 1427SOL     OW13251   2.355   2.290   1.505 -0.2918  0.6125  0.2951
 1427SOL    HW113252   2.256   2.276   1.510 -0.1055 -0.5186  0.8879
 1427SOL    HW213253   2.377   2.381   1.539 -1.0531  0.5627  0.9389
 1428SOL     OW13254   4.255   3.159   2.174 -0.0708 -0.0140 -0.4246
 1428SOL    HW113255   4.249   3.251   2.213  0.7984  0.7642 -2.1066
 1428SOL    HW213256   4.351   3.137   2.156 -0.4737 -0.3309 -2.2042
 1429SOL     OW13257   3.244   0.147   0.334 -0.3914  0.1061 -0.1814
 1429SOL    HW113258   3.180   0.070   0.339 -0.6726  0.0319 -3.6292
 1429SOL    HW213259   3.321   0.130   0.396 -1.5700 -1.8517  0.8138
 1431SOL     OW13260   3.962   3.123   1.085 -0.1701  0.0663  0.2964
 1431SOL    HW113261   4.006   3.046   1.132 -0.9912 -0.5556  0.0484
 1431SOL    HW213262   4.010   3.141   0.999 -1.3071 -1.5905 -0.7049
 1432SOL     OW13263   2.020   2.970   0.448  0.3663 -0.3406  0.2496
 1432SOL    HW113264   1.963   3.027   0.508 -1.2176 -1.6728  0.0395
 1432SOL    HW213265   2.107   3.017   0.430 -0.5012  1.5511  0.8864
 1433SOL     OW13266   4.557   2.704   1.438 -0.0312  0.7459 -0.4774
 1433SOL    HW113267   4.640   2.761   1.438 -0.4415  1.3422 -0.2751
 1433SOL    HW213268   4.479   2.759   1.408 -0.4186  0.2752 -0.3280
 1434SOL     OW13269   2.515   2.034   1.140 -0.4650  0.3195 -0.4345
 1434SOL    HW113270   2.518   1.944   1.183 -0.2884  0.8047  0.5747
 1434SOL    HW213271   2.529   2.105   1.209  0.5731  1.0816 -1.4049
 1435SOL     OW13272   2.501   0.011   1.743  0.0791 -0.1269  0.2902
 1435SOL    HW113273   2.487   0.075   1.818  0.5064 -0.5041  0.6928
 1435SOL    HW213274   2.468   0.053   1.658  1.7743  1.2578  0.2824
 1436SOL     OW13275   2.109   7.570   0.329  0.0218 -0.1999  0.1947
 1436SOL    HW113276   2.134   7.660   0.364 -0.6787  0.0843 -0.0237
 1436SOL    HW213277   2.095   7.507   0.406 -0.4473  0.1341  0.3836
 1439SOL     OW13278   2.230   3.668   2.058 -0.3919  0.2385 -0.3474
 1439SOL    HW113279   2.205   3.751   2.107  2.5205  0.9664 -0.0500
 1439SOL    HW213280   2.307   3.686   1.997 -2.0815 -1.3601 -3.0666
 1441SOL     OW13281   2.409   9.274   0.796  0.6647  0.5450 -0.1526
 1441SOL    HW113282   2.460   9.335   0.857  1.0860  0.2919 -0.2500
 1441SOL    HW213283   2.319   9.256   0.836  1.0693  0.0872  0.5811
 1442SOL     OW13284   3.043   3.106   1.064  0.1956  0.5531 -0.6835
 1442SOL    HW113285   3.069   3.202   1.075 -0.5141  0.4707  1.8798
 1442SOL    HW213286   2.975   3.082   1.133  0.3843 -1.8054 -1.2970
 1443SOL     OW13287   2.922   9.432   1.629  0.3156  0.0278  0.0837
 1443SOL    HW113288   2.896   9.514   1.578  3.6754  2.2525  1.7518
 1443SOL    HW213289   2.875   9.431   1.717  0.6468  0.4721  0.2712
 1444SOL     OW13290   2.965   9.954   1.647 -0.3756 -0.0976  0.5789
 1444SOL    HW113291   3.001   9.907   1.727 -2.4418  1.5519  2.5316
 1444SOL    HW213292   3.008  10.044   1.638  1.0113 -0.8982 -1.1229
 1445SOL     OW13293   4.292   2.368   2.268  0.2910  0.0303 -0.2233
 1445SOL    HW113294   4.369   2.417   2.309  0.9487 -0.9410 -0.2894
 1445SOL    HW213295   4.288   2.275   2.304 -0.9325  0.1042 -0.1265
 1446SOL     OW13296   4.134   1.524   0.718  0.0938  0.3712 -0.3186
 1446SOL    HW113297   4.150   1.506   0.815  0.9246  0.0604 -0.5096
 1446SOL    HW213298   4.045   1.486   0.692  0.6882 -1.2278 -0.1068
 1448SOL     OW13299   3.199   8.600   1.879 -0.0749  0.4854  0.3866
 1448SOL    HW113300   3.193   8.574   1.976 -3.0597  1.3642  0.4686
 1448SOL    HW213301   3.189   8.699   1.871 -0.9900  0.2924 -0.9190
 1450SOL     OW13302   2.070   6.368   0.525  0.3133  0.2297  0.0409
 1450SOL    HW113303   2.128   6.329   0.596  0.4490  0.9915  0.3513
 1450SOL    HW213304   2.025   6.451   0.560  0.3646  0.5987 -0.7515
 1452SOL     OW13305   2.223   4.036   0.550 -0.2078 -0.2703 -0.4885
 1452SOL    HW113306   2.189   4.130   0.549 -0.4773 -0.2954  2.1104
 1452SOL    HW213307   2.225   4.003   0.645  1.5150 -2.2910 -1.2084
 1453SOL     OW13308   1.879   6.832   0.627  0.3999 -0.3834  0.0305
 1453SOL    HW113309   1.825   6.907   0.665 -0.6385 -1.0953 -0.0180
 1453SOL    HW213310   1.927   6.864   0.545  1.2680  0.6661  0.9264
 1454SOL     OW13311   2.631   3.024   1.190 -0.6238  0.0471 -0.4608
 1454SOL    HW113312   2.663   3.116   1.210 -0.0249  0.2094 -2.0548
 1454SOL    HW213313   2.541   3.010   1.231 -0.9351  1.5111 -0.6148
 1455SOL     OW13314   2.246   3.878   2.216  0.0038 -0.1766  0.2472
 1455SOL    HW113315   2.302   3.960   2.228 -0.2877  0.3176 -1.5568
 1455SOL    HW213316   2.263   3.814   2.291  1.4783  0.8215  0.7809
 1456SOL     OW13317   3.965   2.756   1.815 -0.5050  0.4237 -0.4009
 1456SOL    HW113318   4.054   2.797   1.798 -0.4228  0.3331 -0.1913
 1456SOL    HW213319   3.940   2.771   1.911 -0.5953  0.2145 -0.3924
 1457SOL     OW13320   2.562   3.022   0.337  0.3561  0.5306  0.0637
 1457SOL    HW113321   2.570   2.958   0.414 -0.6503  2.1445  1.5491
 1457SOL    HW213322   2.616   2.988   0.260 -0.0426 -2.0279  0.8552
 1458SOL     OW13323   2.011   8.122   2.187 -0.1366 -0.5646 -0.4827
 1458SOL    HW113324   2.024   8.220   2.201 -0.3733 -0.5627 -0.2718
 1458SOL    HW213325   2.049   8.095   2.098 -0.6669 -0.1613 -0.8333
 1459SOL     OW13326   1.903   9.328   0.806  0.3276  0.6850  0.4247
 1459SOL    HW113327   1.952   9.377   0.734  0.1901  0.4755  0.1892
 1459SOL    HW213328   1.834   9.388   0.846  0.3890  0.7942  0.3673
 1460SOL     OW13329   4.377   2.452   1.203 -0.1008  0.1278  0.6751
 1460SOL    HW113330   4.328   2.518   1.259 -0.6890  0.1923  0.0884
 1460SOL    HW213331   4.311   2.398   1.149  0.5532  1.4043 -1.4482
 1461SOL     OW13332   4.320   1.565   0.517 -0.4111 -0.1946  0.6175
 1461SOL    HW113333   4.404   1.521   0.549 -0.4487 -0.3551  0.4946
 1461SOL    HW213334   4.248   1.549   0.584 -0.9900 -2.1156 -0.4255
 1462SOL     OW13335   4.469   3.158   1.390  0.3999 -0.0090  0.0432
 1462SOL    HW113336   4.409   3.230   1.425 -1.0368 -1.0542 -0.2248
 1462SOL    HW213337   4.460   3.076   1.446 -0.0987 -0.8976 -1.2994
 1464SOL     OW13338   4.022   4.093   0.265  0.4126 -0.0329  0.2041
 1464SOL    HW113339   3.931   4.124   0.292  0.1635  0.4280 -1.1287
 1464SOL    HW213340   4.016   4.040   0.180  1.5499  1.2495 -0.7022
 1466SOL     OW13341   2.905   1.017   0.490  0.5622  0.1810 -0.0937
 1466SOL    HW113342   2.891   1.113   0.466 -0.4579 -0.2154 -1.1374
 1466SOL    HW213343   2.929   1.010   0.587 -0.8583  1.3745  0.3582
 1467SOL     OW13344   2.666   0.936   1.315 -0.4510  0.1515 -0.7725
 1467SOL    HW113345   2.713   0.943   1.227  0.6684  1.0292 -0.1169
 1467SOL    HW213346   2.725   0.891   1.381 -1.5235 -1.0501 -0.6131
 1469SOL     OW13347   2.872   8.349   0.629 -0.3632  0.3907 -0.2614
 1469SOL    HW113348   2.838   8.399   0.708 -2.1270 -0.6432 -0.3566
 1469SOL    HW213349   2.868   8.407   0.548  0.3239  1.0453  0.1692
 1470SOL     OW13350   4.200   1.643   2.332  0.0115  0.8092  0.3132
 1470SOL    HW113351   4.217   1.599   2.244  0.4077  1.0477  0.2695
 1470SOL    HW213352   4.105   1.627   2.359  0.6728 -1.6459  1.2107
 1471SOL     OW13353   3.588   5.068   0.621  0.1224  0.2120 -0.1595
 1471SOL    HW113354   3.642   5.003   0.675 -1.7750  0.5405  2.2146
 1471SOL    HW213355   3.553   5.021   0.540 -0.6185 -1.5813  1.1456
 1472SOL     OW13356   3.535   3.699   1.966  0.4496 -0.1204 -0.1652
 1472SOL    HW113357   3.572   3.607   1.977 -0.1760 -0.2789  0.6000
 1472SOL    HW213358   3.517   3.716   1.869  2.1470 -0.1862 -0.5183
 1474SOL     OW13359   2.356   6.387   1.542  0.1704  0.7492 -0.4964
 1474SOL    HW113360   2.322   6.303   1.499  0.5685  0.1907  0.2776
 1474SOL    HW213361   2.287   6.458   1.534 -1.3694 -0.4876  1.4220
 1475SOL     OW13362   3.721   1.689   1.815  0.1393 -0.2104 -0.3664
 1475SOL    HW113363   3.696   1.619   1.881 -1.2554  1.9433  1.4738
 1475SOL    HW213364   3.711   1.779   1.857  3.5099  1.0664 -2.1217
 1476SOL     OW13365   3.743   9.531   1.690  0.6270 -0.5286 -0.5503
 1476SOL    HW113366   3.769   9.579   1.774 -0.1797 -2.1819  0.6898
 1476SOL    HW213367   3.735   9.596   1.615 -1.5999  1.4901  1.3450
 1478SOL     OW13368   2.814   4.286   2.349  0.0990 -0.2359  0.7872
 1478SOL    HW113369   2.907   4.309   2.319  0.3227 -1.4394  0.5040
 1478SOL    HW213370   2.808   4.294   2.449  1.1155 -2.1576  1.0244
 1479SOL     OW13371   4.194   1.514   1.026  0.2501  0.2990  0.9858
 1479SOL    HW113372   4.257   1.494   1.100 -0.6318 -1.9230  1.1793
 1479SOL    HW213373   4.204   1.609   0.997  1.2796  0.9024  3.2864
 1480SOL     OW13374   3.561   1.418   0.987 -0.0755 -0.0573 -0.1968
 1480SOL    HW113375   3.624   1.375   1.052  0.5571  0.8991 -0.1763
 1480SOL    HW213376   3.484   1.356   0.971  0.4844 -0.9195  0.3489
 1481SOL     OW13377   3.752   1.862   2.204 -0.0250  0.1619 -0.1341
 1481SOL    HW113378   3.743   1.775   2.253 -0.2056  0.4115  0.2737
 1481SOL    HW213379   3.697   1.858   2.120 -1.3030  0.4439  0.6686
 1482SOL     OW13380   1.684   9.581   2.120  0.4146 -0.2189  0.0517
 1482SOL    HW113381   1.627   9.626   2.189 -0.0653 -0.0202 -0.4679
 1482SOL    HW213382   1.742   9.648   2.075 -1.2333  0.1182 -1.6242
 1483SOL     OW13383   3.587   5.575   0.581  0.4171  0.2252  0.1251
 1483SOL    HW113384   3.604   5.657   0.635  1.3533  0.1393 -0.0185
 1483SOL    HW213385   3.667   5.557   0.523  0.6254 -1.3659  0.9050
 1485SOL     OW13386   3.363   4.843   0.389  0.2222  0.0092  0.4754
 1485SOL    HW113387   3.290   4.856   0.456  1.5579  1.7861  1.6282
 1485SOL    HW213388   3.386   4.931   0.347  0.7672 -0.7554 -0.8621
 1487SOL     OW13389   3.596   9.883   0.486  0.1536 -0.0325 -0.2095
 1487SOL    HW113390   3.670   9.840   0.434  0.0476 -0.6974  0.1812
 1487SOL    HW213391   3.568   9.822   0.561 -0.5121  0.3921 -0.1063
 1488SOL     OW13392   2.375   9.525   2.307  0.2644 -0.4799  0.0975
 1488SOL    HW113393   2.418   9.437   2.287  0.0445 -0.6682  0.4597
 1488SOL    HW213394   2.347   9.528   2.403 -0.7828 -0.4603 -0.2022
 1489SOL     OW13395   3.229   9.940   0.636 -0.0583 -0.3467 -0.1650
 1489SOL    HW113396   3.190   9.888   0.560  1.2695 -0.3750 -0.8504
 1489SOL    HW213397   3.228   9.885   0.719  0.7065 -1.2278 -0.7269
 1490SOL     OW13398   2.088   9.789   1.365 -0.3538 -0.5437  0.1657
 1490SOL    HW113399   2.050   9.810   1.275 -0.5191  3.6869  1.1057
 1490SOL    HW213400   2.167   9.728   1.355 -0.1685  0.1429 -2.8673
 1491SOL     OW13401   2.466   4.796   0.634 -0.0164 -0.1608 -0.3618
 1491SOL    HW113402   2.407   4.716   0.639  0.5739 -0.5068  1.2092
 1491SOL    HW213403   2.411   4.879   0.636 -0.4587 -0.4839  0.9212
 1492SOL     OW13404   3.964   8.277   0.535  0.1630 -0.3318 -0.2754
 1492SOL    HW113405   4.004   8.296   0.624 -1.8816 -0.7008  0.7558
 1492SOL    HW213406   3.891   8.344   0.517  0.4659 -0.3430 -1.6142
 1493SOL     OW13407   5.362   3.572   1.309  0.2482 -0.1290 -0.2115
 1493SOL    HW113408   5.282   3.620   1.344  1.2385  1.2669  0.1871
 1493SOL    HW213409   5.434   3.572   1.379  0.8775 -0.6707 -0.8458
 1495SOL     OW13410   3.752   9.718   1.899 -0.0742 -0.2464  0.1059
 1495SOL    HW113411   3.762   9.767   1.985  0.5179 -1.0061  0.4769
 1495SOL    HW213412   3.669   9.661   1.902 -0.3301  0.1180 -0.0244
 1496SOL     OW13413   2.259   8.356   1.474  0.3125 -0.1912 -0.2529
 1496SOL    HW113414   2.325   8.344   1.548  1.1889 -0.9985 -1.1505
 1496SOL    HW213415   2.198   8.277   1.471 -0.5544  0.4407  0.4181
 1497SOL     OW13416   3.349   9.499   0.550  0.0044 -0.3065 -0.8978
 1497SOL    HW113417   3.273   9.441   0.580  0.1710  0.2443  0.6255
 1497SOL    HW213418   3.432   9.472   0.599  0.0601  1.2757 -0.0967
 1501SOL     OW13419   3.788   4.921   1.924  0.6075 -0.1902 -0.1275
 1501SOL    HW113420   3.796   4.860   1.846 -0.5262  0.5451 -0.8289
 1501SOL    HW213421   3.700   4.967   1.922  1.6256  1.8524  0.1063
 1502SOL     OW13422   5.348   3.577   1.047 -0.5275 -0.2418 -0.0128
 1502SOL    HW113423   5.311   3.666   1.023 -0.4606  0.1115  1.1936
 1502SOL    HW213424   5.349   3.566   1.146 -0.8563 -1.7202 -0.1552
 1503SOL     OW13425   2.039   1.836   0.595 -0.0568 -0.4978 -0.8494
 1503SOL    HW113426   2.038   1.842   0.695  0.1834 -1.7872 -0.7626
 1503SOL    HW213427   2.083   1.918   0.557 -1.3995  0.6583  0.0276
 1504SOL     OW13428   2.788   9.926   0.749 -0.4596  0.3755 -0.0259
 1504SOL    HW113429   2.874   9.941   0.799  0.0257  0.2553 -0.8160
 1504SOL    HW213430   2.807   9.877   0.664 -1.0710  1.8526 -1.0485
 1505SOL     OW13431   3.358   5.333   1.494 -0.4078  0.1976  0.1371
 1505SOL    HW113432   3.441   5.360   1.445 -1.2329  0.9794 -0.8271
 1505SOL    HW213433   3.278   5.343   1.435 -1.3044  0.2868  1.3330
 1506SOL     OW13434   4.043   3.552   1.256  0.4359  0.0588  0.2496
 1506SOL    HW113435   4.111   3.497   1.207  0.4615  0.1834  0.1460
 1506SOL    HW213436   3.953   3.534   1.218  0.2578 -0.9656  1.1365
 1507SOL     OW13437   2.451  -0.023   1.041  0.2318 -0.3386  0.1774
 1507SOL    HW113438   2.388  -0.029   0.963 -1.4088 -0.1290  1.4567
 1507SOL    HW213439   2.497   0.066   1.038 -1.4050  0.5523  0.5950
 1508SOL     OW13440   5.279   3.780   0.465  0.5027  0.4538  0.1213
 1508SOL    HW113441   5.242   3.695   0.501 -1.2832  1.3080  0.3878
 1508SOL    HW213442   5.319   3.834   0.539  2.4604 -0.5299 -0.1877
 1509SOL     OW13443   3.673   1.380   2.299 -0.2287 -0.0624  0.3060
 1509SOL    HW113444   3.615   1.365   2.220  1.3389  0.5126 -0.9866
 1509SOL    HW213445   3.701   1.476   2.303 -2.1347  0.4403  2.8666
 1510SOL     OW13446   3.175   3.517   1.952 -0.4127 -0.1814 -0.0129
 1510SOL    HW113447   3.242   3.562   2.011 -1.6000 -1.3817  2.2782
 1510SOL    HW213448   3.086   3.518   1.995 -1.6511  0.2113 -2.4658
 1511SOL     OW13449   3.490   4.408   0.646 -0.1882 -0.4527  0.4721
 1511SOL    HW113450   3.448   4.483   0.595  1.6127  0.8066  0.7834
 1511SOL    HW213451   3.476   4.322   0.596  0.6814  0.6045 -1.6873
 1512SOL     OW13452   1.674   0.397   1.222 -0.3110 -0.6111  0.4734
 1512SOL    HW113453   1.632   0.485   1.200  3.4651  0.8119 -1.6219
 1512SOL    HW213454   1.739   0.410   1.297 -0.6883 -1.9159  1.0282
 1514SOL     OW13455   3.301   2.680   0.440 -0.5031  0.0404 -0.3098
 1514SOL    HW113456   3.233   2.735   0.489 -0.0990  1.3732 -1.2114
 1514SOL    HW213457   3.306   2.709   0.345  1.0472 -0.2967 -0.3555
 1516SOL     OW13458   2.433   9.524   0.867 -0.2922 -0.6619  0.1231
 1516SOL    HW113459   2.466   9.585   0.795 -1.0422 -1.7280 -1.1439
 1516SOL    HW213460   2.334   9.531   0.875  0.0227  1.3547  2.8360
 1517SOL     OW13461   2.847   6.971   1.771 -0.1909  0.3019  0.2776
 1517SOL    HW113462   2.873   6.970   1.674 -2.4318 -0.6265 -0.3566
 1517SOL    HW213463   2.892   7.048   1.817  1.8723  0.0255 -1.2056
 1518SOL     OW13464   3.347   0.872   1.262 -0.2031 -0.4170  0.5376
 1518SOL    HW113465   3.252   0.859   1.237 -0.0039  0.0603 -0.4829
 1518SOL    HW213466   3.361   0.841   1.356 -1.3587 -0.4846  0.6960
 1519SOL     OW13467   2.239   3.303   1.435  0.5914  0.3878  0.0831
 1519SOL    HW113468   2.237   3.315   1.336 -1.7422  0.0026  0.0534
 1519SOL    HW213469   2.334   3.289   1.465  1.3346  0.6304 -2.0603
 1520SOL     OW13470   2.503   6.755   0.850 -0.6055 -0.1337 -0.3891
 1520SOL    HW113471   2.498   6.669   0.799  0.3031  0.8101 -2.1020
 1520SOL    HW213472   2.426   6.814   0.823  1.2565  1.3849 -2.6424
 1522SOL     OW13473   3.738   0.522   1.124  0.6239  0.4666 -0.1739
 1522SOL    HW113474   3.703   0.612   1.151 -1.6569 -0.9625  1.7985
 1522SOL    HW213475   3.693   0.494   1.039  0.8763  0.9116 -0.4593
 1524SOL     OW13476   4.141   9.129   0.923  0.1084  0.2501  0.4135
 1524SOL    HW113477   4.123   9.206   0.984 -1.1296  1.8956 -1.9237
 1524SOL    HW213478   4.237   9.101   0.933  1.0688  3.2132  0.1364
 1525SOL     OW13479   2.299   5.968   1.651 -0.0751 -0.1887 -0.0678
 1525SOL    HW113480   2.377   6.018   1.689 -0.3607 -0.5656  1.0234
 1525SOL    HW213481   2.269   5.898   1.716 -3.5022  2.1712  1.0597
 1526SOL     OW13482   3.599   4.720   0.533  0.5151  0.2489  0.4006
 1526SOL    HW113483   3.513   4.676   0.562  1.1793 -0.8938  0.6961
 1526SOL    HW213484   3.590   4.752   0.439 -0.3240  0.3579  0.5153
 1527SOL     OW13485   1.828   0.209   1.088 -0.4721  0.5517  0.0800
 1527SOL    HW113486   1.757   0.258   1.138 -1.8503  0.4296 -1.6992
 1527SOL    HW213487   1.879   0.274   1.031 -2.2173  0.0259 -2.1797
 1528SOL     OW13488   1.983   7.351   2.123 -0.0755  0.3646 -0.2512
 1528SOL    HW113489   2.013   7.438   2.163  2.4562  0.4059 -2.1061
 1528SOL    HW213490   2.052   7.281   2.142 -0.0144 -0.1842 -2.4322
 1530SOL     OW13491   1.826   0.984   1.850 -0.0388 -0.2034 -0.2815
 1530SOL    HW113492   1.766   1.056   1.886  1.1729  0.2774  0.8153
 1530SOL    HW213493   1.910   1.024   1.814  0.0945 -0.9634 -0.8384
 1531SOL     OW13494   2.162   6.590   1.478 -0.2135 -0.0934 -0.6886
 1531SOL    HW113495   2.140   6.658   1.409  1.2419  0.7676 -0.3314
 1531SOL    HW213496   2.112   6.610   1.562 -1.7532 -0.9681 -1.3924
 1532SOL     OW13497   4.717   1.879   1.014  0.2870  0.4877 -0.0912
 1532SOL    HW113498   4.737   1.783   1.034  0.5877  0.6530  0.4039
 1532SOL    HW213499   4.794   1.936   1.043  0.8946  0.6960 -2.0513
 1533SOL     OW13500   3.079   4.379   1.681 -0.1227 -0.0407  0.2742
 1533SOL    HW113501   3.027   4.304   1.639  1.6556 -0.5450 -1.0661
 1533SOL    HW213502   3.042   4.466   1.650 -0.1737 -0.3970 -0.6803
 1534SOL     OW13503   2.827   6.771   0.428 -0.4824  0.6472 -0.9403
 1534SOL    HW113504   2.798   6.707   0.356  1.1278  0.3275 -1.3331
 1534SOL    HW213505   2.792   6.862   0.407 -0.4523  0.4528 -1.8703
 1537SOL     OW13506   3.359   2.520   1.702  0.3184 -0.1841 -0.1920
 1537SOL    HW113507   3.332   2.442   1.759  0.7453 -0.8685 -0.9047
 1537SOL    HW213508   3.450   2.503   1.664  0.0108  0.2266 -1.1181
 1538SOL     OW13509   4.669   3.716   1.058  0.2880  0.2332  0.1057
 1538SOL    HW113510   4.715   3.690   1.143 -2.2323  1.1170  1.7871
 1538SOL    HW213511   4.682   3.814   1.042 -0.8324  0.4643  0.5242
 1539SOL     OW13512   2.562   8.432   2.104 -0.4572  0.1992 -0.2175
 1539SOL    HW113513   2.609   8.487   2.174  0.6833  1.4082 -1.8991
 1539SOL    HW213514   2.538   8.491   2.027 -2.6684 -0.9065 -0.4102
 1540SOL     OW13515   3.171   0.436   0.843 -0.0159  0.1030  0.2988
 1540SOL    HW113516   3.195   0.349   0.801  0.6887  0.2326  0.4228
 1540SOL    HW213517   3.235   0.507   0.812 -0.4702  0.5354  0.3412
 1542SOL     OW13518   1.740   1.036   0.262  0.1516  0.4016  0.3588
 1542SOL    HW113519   1.814   0.993   0.314  0.0904 -1.4376 -1.0063
 1542SOL    HW213520   1.770   1.051   0.168 -1.0965 -0.0454 -0.1132
 1543SOL     OW13521   3.177   8.736   2.131 -0.0529  0.0998 -0.0152
 1543SOL    HW113522   3.222   8.825   2.122 -0.9236  0.5241 -0.2409
 1543SOL    HW213523   3.207   8.693   2.217 -1.2027  1.5333  1.1392
 1544SOL     OW13524   3.439   3.413   2.329  0.0752 -0.1412 -0.2464
 1544SOL    HW113525   3.427   3.437   2.232 -0.5046 -2.5804 -0.8136
 1544SOL    HW213526   3.497   3.482   2.373 -0.7047  1.7093 -2.0030
 1546SOL     OW13527   2.483   0.730   1.139 -0.1583  0.3909  0.7644
 1546SOL    HW113528   2.508   0.823   1.110  0.3970  0.6886  2.1700
 1546SOL    HW213529   2.521   0.712   1.229  0.4697 -1.5375  0.1257
 1547SOL     OW13530   2.715   7.267   1.023 -0.2532  0.5514 -0.1177
 1547SOL    HW113531   2.660   7.190   1.056 -0.9787  1.3094  0.4660
 1547SOL    HW213532   2.747   7.321   1.101  0.8962  0.4075 -0.4819
 1549SOL     OW13533   2.599   2.617   2.253 -0.1687 -0.1718 -0.9173
 1549SOL    HW113534   2.692   2.581   2.267 -0.3870 -0.9254 -1.4061
 1549SOL    HW213535   2.537   2.573   2.317 -0.4690 -0.7969 -1.6378
 1551SOL     OW13536   4.633   4.662   0.516 -0.4251 -0.1555  0.0756
 1551SOL    HW113537   4.727   4.643   0.544 -0.8889 -0.3261  1.5580
 1551SOL    HW213538   4.580   4.693   0.594 -1.3171  1.1109 -0.9999
 1553SOL     OW13539   3.516   2.924   1.791 -0.1811  0.0467  0.2279
 1553SOL    HW113540   3.454   2.865   1.844 -0.9685 -0.6833 -1.4769
 1553SOL    HW213541   3.466   2.963   1.714  1.4741 -0.5378 -1.1663
 1555SOL     OW13542   1.835   7.768   1.831 -0.2629 -0.4567  0.0430
 1555SOL    HW113543   1.864   7.848   1.779 -1.3307 -0.3562 -0.4209
 1555SOL    HW213544   1.736   7.774   1.847 -0.5566 -2.2458 -0.9825
 1557SOL     OW13545   3.344   3.665   2.146 -0.1225  0.6069 -0.3491
 1557SOL    HW113546   3.434   3.655   2.102 -0.1600 -2.0845  0.0979
 1557SOL    HW213547   3.356   3.691   2.241  0.2635 -0.6007 -0.0476
 1558SOL     OW13548   2.851   2.505   0.581  0.3677  0.1943 -0.2747
 1558SOL    HW113549   2.802   2.527   0.665  1.4851 -1.3187  0.8099
 1558SOL    HW213550   2.905   2.584   0.553 -0.3828  0.8716  0.1689
 1561SOL     OW13551   2.615   1.514   0.755 -0.4695 -0.1137 -0.2789
 1561SOL    HW113552   2.564   1.467   0.683 -1.7384 -0.4583  0.8334
 1561SOL    HW213553   2.579   1.606   0.767 -1.0647 -0.4779  0.7482
 1562SOL     OW13554   3.109   9.353   0.613  0.1946 -0.4940  0.4636
 1562SOL    HW113555   3.169   9.327   0.689 -1.7168 -0.5892  1.9895
 1562SOL    HW213556   3.015   9.362   0.646  0.0534  4.3958 -0.7996
 1563SOL     OW13557   2.909   1.317   1.301  0.1440  0.3536 -0.0269
 1563SOL    HW113558   2.980   1.246   1.296 -0.3689 -0.2912  1.6298
 1563SOL    HW213559   2.871   1.319   1.393 -1.3160  1.3676 -0.6483
 1565SOL     OW13560   1.833   0.040   0.877 -0.0577  0.3732  0.1711
 1565SOL    HW113561   1.803   0.092   0.797  0.3202  1.0560  0.4652
 1565SOL    HW213562   1.808   0.090   0.960  0.2906  0.0793  0.4538
 1566SOL     OW13563   3.386   8.476   1.493  0.5538 -0.3860 -0.3756
 1566SOL    HW113564   3.412   8.503   1.400  0.6226 -0.5019 -0.3902
 1566SOL    HW213565   3.410   8.548   1.557 -0.7025  0.2603 -0.6220
 1567SOL     OW13566   1.888   0.123   2.193 -0.6552 -0.5178  0.2481
 1567SOL    HW113567   1.835   0.173   2.261 -1.4724  0.0898 -0.8231
 1567SOL    HW213568   1.841   0.127   2.105  1.0159 -0.2590 -0.6373
 1568SOL     OW13569   3.543   9.255   2.235 -0.4386 -0.1478 -0.0240
 1568SOL    HW113570   3.580   9.180   2.181  0.7538 -0.8637  1.7404
 1568SOL    HW213571   3.601   9.336   2.223 -1.7309  0.5239 -1.9338
 1569SOL     OW13572   2.343   8.666   2.246 -0.5640 -0.3847 -0.3207
 1569SOL    HW113573   2.428   8.673   2.298 -0.4088 -1.4762 -0.4210
 1569SOL    HW213574   2.341   8.737   2.176 -1.3358  1.9152  1.9632
 1570SOL     OW13575   3.323   5.472   2.178 -0.6604  0.1472  0.4195
 1570SOL    HW113576   3.318   5.541   2.107  2.3572 -0.4225 -0.4150
 1570SOL    HW213577   3.241   5.414   2.174 -0.8784  0.5737 -2.0982
 1571SOL     OW13578   3.197   7.632   1.522 -0.1274  0.0261  0.0669
 1571SOL    HW113579   3.204   7.539   1.487  2.1668  0.0228  0.4994
 1571SOL    HW213580   3.265   7.690   1.478  0.2295  0.8910  1.7416
 1572SOL     OW13581   2.621   1.048   0.595 -0.2112  0.0229  0.3384
 1572SOL    HW113582   2.668   1.135   0.583  0.0540 -0.0229  1.0363
 1572SOL    HW213583   2.649   0.984   0.524 -1.2505  0.8661 -0.8522
 1573SOL     OW13584   2.936   2.758   0.453 -0.4061 -0.5102 -0.0506
 1573SOL    HW113585   3.009   2.817   0.489 -1.7701  0.5701  0.9781
 1573SOL    HW213586   2.965   2.721   0.365  1.4876 -0.2817  0.4510
 1576SOL     OW13587   3.929   3.771   1.982 -0.5500 -0.1672  0.2075
 1576SOL    HW113588   3.863   3.846   1.983  1.8069  2.0255 -1.4152
 1576SOL    HW213589   3.953   3.748   1.888  0.5820 -1.3013  0.7496
 1577SOL     OW13590   2.868   2.816   1.179  0.1299 -0.3567  0.8597
 1577SOL    HW113591   2.884   2.907   1.217  1.6262  0.7064 -2.1119
 1577SOL    HW213592   2.942   2.755   1.208  2.1894  0.8842 -1.5542
 1578SOL     OW13593   3.044   3.880   1.185 -0.2193  0.1948  0.2383
 1578SOL    HW113594   3.078   3.937   1.259  3.1251 -1.5182  0.0917
 1578SOL    HW213595   3.072   3.919   1.097 -1.5728  0.5811 -0.0383
 1579SOL     OW13596   3.043   2.436   0.780  0.3581  0.0010 -0.1738
 1579SOL    HW113597   2.988   2.399   0.705 -0.3827  0.0169  0.3584
 1579SOL    HW213598   3.004   2.408   0.867  0.4827  1.0188  0.2242
 1580SOL     OW13599   3.530   8.839   1.546  0.3100 -0.0969 -0.0748
 1580SOL    HW113600   3.577   8.874   1.465  2.3512 -1.1132  0.6397
 1580SOL    HW213601   3.527   8.910   1.616  0.8563 -0.0452 -0.1015
 1582SOL     OW13602   3.714   8.338   1.521  0.2144  0.1934  0.5297
 1582SOL    HW113603   3.677   8.430   1.536  2.0551  0.8988  0.9598
 1582SOL    HW213604   3.781   8.341   1.446  2.1260 -0.2521  2.1655
 1583SOL     OW13605   3.034   0.418   1.265  0.0553 -0.3791  0.2204
 1583SOL    HW113606   3.035   0.465   1.177 -1.9517  1.4533  1.1306
 1583SOL    HW213607   2.984   0.332   1.256  0.3548 -0.4763 -0.5465
 1584SOL     OW13608   2.997   1.355   1.751 -0.0047 -0.5038  0.0558
 1584SOL    HW113609   2.979   1.448   1.786 -2.6800 -1.0909  0.3610
 1584SOL    HW213610   3.033   1.298   1.825  2.3486  0.4451 -0.3122
 1585SOL     OW13611   4.876   2.986   2.328 -0.6671  0.7381  0.3209
 1585SOL    HW113612   4.792   2.948   2.368 -1.3121  1.5263 -0.2673
 1585SOL    HW213613   4.866   3.085   2.320  1.5826  1.2687  3.2742
 1586SOL     OW13614   2.055   0.102   1.249  0.3982 -0.2485 -0.0190
 1586SOL    HW113615   2.130   0.131   1.189 -0.1624 -0.7108 -0.9553
 1586SOL    HW213616   1.968   0.131   1.210  0.0470 -0.1741  0.8034
 1587SOL     OW13617   2.632   1.294   0.309 -0.5792 -0.0015  0.5373
 1587SOL    HW113618   2.564   1.244   0.255 -0.0457 -1.5504  1.2608
 1587SOL    HW213619   2.724   1.269   0.278 -0.3079  0.8574  0.6386
 1588SOL     OW13620   2.776   4.815   0.468  0.4813 -0.0100  0.3050
 1588SOL    HW113621   2.707   4.756   0.426  1.1105  0.0355 -0.8236
 1588SOL    HW213622   2.805   4.776   0.555 -1.6336  0.4577  1.2445
 1589SOL     OW13623   4.420   0.675   1.219  0.2267 -0.9089  0.0173
 1589SOL    HW113624   4.412   0.732   1.300 -0.2311 -2.4040  1.0528
 1589SOL    HW213625   4.338   0.685   1.162 -0.1412 -1.0139  0.5258
 1591SOL     OW13626   2.974   9.949   2.220  0.2031 -0.4215  0.1935
 1591SOL    HW113627   2.980   9.875   2.153 -2.1307  0.3480 -0.9035
 1591SOL    HW213628   2.948  10.034   2.174 -2.3687 -0.0718  2.1930
 1592SOL     OW13629   2.624   6.365   1.394  0.1112  0.0950  0.7681
 1592SOL    HW113630   2.527   6.389   1.406 -0.0552 -0.6679  0.9792
 1592SOL    HW213631   2.679   6.449   1.390 -0.8344  0.6238 -1.8444
 1593SOL     OW13632   3.661   1.533   0.691  0.2413  0.1488 -0.5208
 1593SOL    HW113633   3.616   1.543   0.602 -0.7548  1.4777  0.1040
 1593SOL    HW213634   3.593   1.544   0.763  1.3469  0.8933  0.4228
 1594SOL     OW13635   3.396   1.199   2.185  0.3468 -0.3597 -0.3766
 1594SOL    HW113636   3.377   1.216   2.088 -2.4530 -1.0088  0.0309
 1594SOL    HW213637   3.408   1.101   2.199 -0.8745 -0.4401  0.1812
 1598SOL     OW13638   3.580   9.110   0.593 -0.5519  0.0254  0.3046
 1598SOL    HW113639   3.668   9.069   0.568 -0.1386 -0.2106  2.0678
 1598SOL    HW213640   3.528   9.131   0.511  0.0326 -2.3241 -0.6987
 1599SOL     OW13641   2.119   4.390   1.158  0.2254  0.3615 -0.2148
 1599SOL    HW113642   2.051   4.441   1.212  1.1354  1.1870  0.1778
 1599SOL    HW213643   2.094   4.293   1.156 -1.4690  0.7935 -0.8641
 1601SOL     OW13644   3.573   9.687   0.729  0.1985  0.2585  0.1686
 1601SOL    HW113645   3.583   9.590   0.707  1.3449  0.2990  0.5006
 1601SOL    HW213646   3.499   9.699   0.794  0.2503 -0.4297  0.3527
 1602SOL     OW13647   2.573   6.159   0.381  0.0136  0.5141 -0.5175
 1602SOL    HW113648   2.592   6.257   0.379  0.3281  0.4703  0.0959
 1602SOL    HW213649   2.503   6.137   0.313 -1.7216  1.5198  0.9221
 1603SOL     OW13650   2.671   8.547   0.411 -0.1293  0.7076  0.0874
 1603SOL    HW113651   2.627   8.512   0.328 -0.0510 -0.7792  0.6786
 1603SOL    HW213652   2.617   8.623   0.447 -0.2691  1.2439 -1.2070
 1604SOL     OW13653   3.317   8.970   2.109  0.0683  0.1490  0.4754
 1604SOL    HW113654   3.342   9.061   2.075 -0.5499 -0.1896 -0.9036
 1604SOL    HW213655   3.400   8.917   2.128  0.4928  1.6758  3.2364
 1605SOL     OW13656   4.703   2.839   0.597 -0.6747  0.3543  0.2288
 1605SOL    HW113657   4.770   2.770   0.626  0.9282  2.1149  0.7458
 1605SOL    HW213658   4.681   2.823   0.500  0.8204  0.0029 -0.0825
 1606SOL     OW13659   2.586   6.998   1.031  0.2862  0.0853  0.1662
 1606SOL    HW113660   2.657   6.969   0.967  0.1673 -0.6673  0.3606
 1606SOL    HW213661   2.595   6.946   1.116  0.3328  0.9497  0.6873
 1607SOL     OW13662   2.119   3.458   2.192  0.2441  0.1841 -0.1238
 1607SOL    HW113663   2.165   3.536   2.149 -0.3058  0.1684 -0.7483
 1607SOL    HW213664   2.132   3.376   2.136  1.0241 -0.2378  0.6548
 1608SOL     OW13665   3.461   8.375   0.404  0.0690 -0.6090  0.6911
 1608SOL    HW113666   3.496   8.447   0.345  0.6690 -1.2535  0.2496
 1608SOL    HW213667   3.523   8.297   0.401  0.5670 -0.3281  2.8363
 1609SOL     OW13668   2.727   8.850   1.445 -0.9804 -0.2790  0.2531
 1609SOL    HW113669   2.652   8.861   1.380 -1.0700 -0.7376  0.2767
 1609SOL    HW213670   2.810   8.891   1.407 -0.6973 -1.7505 -0.7491
 1610SOL     OW13671   3.282   1.934   1.393 -0.4371  0.0165  0.2443
 1610SOL    HW113672   3.245   1.841   1.385  0.4152 -0.1791 -1.8536
 1610SOL    HW213673   3.242   1.992   1.322  1.7096  0.3056 -0.7907
 1611SOL     OW13674   3.323   8.127   1.142 -0.2143  0.8425  0.6465
 1611SOL    HW113675   3.311   8.218   1.102 -0.6986  0.2516 -0.5580
 1611SOL    HW213676   3.250   8.111   1.210  0.0797  1.4846  1.1214
 1612SOL     OW13677   1.718   9.482   0.931 -0.3594  0.1032  0.3636
 1612SOL    HW113678   1.777   9.537   0.989  1.8962 -1.1920 -0.6197
 1612SOL    HW213679   1.635   9.457   0.981 -0.5742  2.7899  1.4242
 1613SOL     OW13680   2.944   3.183   1.787 -0.2269 -0.4456 -0.1264
 1613SOL    HW113681   2.870   3.148   1.844 -0.3017  0.0786  0.0982
 1613SOL    HW213682   2.909   3.257   1.728 -0.2417 -1.2329 -1.1224
 1614SOL     OW13683   3.044   7.972   0.928  0.5856 -0.1684  0.2368
 1614SOL    HW113684   3.125   7.947   0.875  1.5811  0.3619  1.4487
 1614SOL    HW213685   2.978   7.897   0.928  1.4353 -0.9170 -0.1070
 1615SOL     OW13686   3.618   2.253   0.706  0.3044 -0.0821 -0.0473
 1615SOL    HW113687   3.654   2.234   0.797  0.3283 -1.0724 -0.2656
 1615SOL    HW213688   3.630   2.350   0.685 -0.5786  0.3534  1.4012
 1616SOL     OW13689   2.753   6.881   0.867  0.0506  0.0513 -0.5496
 1616SOL    HW113690   2.804   6.883   0.782 -1.0984 -0.1878 -1.2561
 1616SOL    HW213691   2.673   6.822   0.857 -1.3156  1.7651 -0.0280
 1617SOL     OW13692   2.302   8.372   2.362  0.2473  0.5147 -0.1003
 1617SOL    HW113693   2.383   8.423   2.331 -0.4503  0.5132 -2.0071
 1617SOL    HW213694   2.331   8.294   2.417  1.5364  0.7575 -0.4164
 1618SOL     OW13695   4.113   4.337   0.314 -0.2463 -0.1479  0.1366
 1618SOL    HW113696   4.084   4.362   0.407  0.2901  0.6538  0.0906
 1618SOL    HW213697   4.091   4.241   0.297  3.1065 -1.3929  2.4480
 1619SOL     OW13698   1.950   9.902   1.582  0.3017  0.2997  0.0373
 1619SOL    HW113699   1.918   9.981   1.530 -1.2132 -1.2534 -1.4601
 1619SOL    HW213700   1.992   9.836   1.519  1.1343 -0.2987  1.2046
 1622SOL     OW13701   4.361   1.518   1.340 -0.2767 -0.3651 -0.2895
 1622SOL    HW113702   4.430   1.580   1.376 -1.8370  0.3850  1.4490
 1622SOL    HW213703   4.359   1.434   1.395  0.2203 -1.0137 -1.2267
 1623SOL     OW13704   4.456   2.599   2.363 -0.0999  0.2729  0.5752
 1623SOL    HW113705   4.541   2.584   2.312  0.0261 -0.7820  1.0708
 1623SOL    HW213706   4.427   2.694   2.352  0.9446  0.5516  0.0954
 1624SOL     OW13707   2.282   0.432   1.357 -0.3276 -0.0448 -0.1074
 1624SOL    HW113708   2.371   0.476   1.362 -0.1495 -0.5578  1.4893
 1624SOL    HW213709   2.252   0.428   1.261  1.7393 -0.6457 -0.7576
 1625SOL     OW13710   2.193   8.239   1.083  0.2004  0.8309  0.3715
 1625SOL    HW113711   2.250   8.242   1.165  0.8182 -0.2159 -0.0100
 1625SOL    HW213712   2.142   8.153   1.082  2.5859 -0.6170 -1.9106
 1626SOL     OW13713   3.724   2.674   0.343 -0.0893 -0.0664  0.2159
 1626SOL    HW113714   3.728   2.759   0.290  1.5433 -1.0466 -1.2674
 1626SOL    HW213715   3.780   2.685   0.426 -1.1927  0.8434  0.8599
 1627SOL     OW13716   1.873   1.596   1.257  0.0450  0.0542 -0.1622
 1627SOL    HW113717   1.878   1.628   1.352 -2.0450 -0.0930  0.0230
 1627SOL    HW213718   1.919   1.508   1.250  0.2616  0.0866  0.7058
 1629SOL     OW13719   4.772   2.464   1.481  0.6397 -0.5337 -0.1821
 1629SOL    HW113720   4.693   2.516   1.513  1.6290  1.0482 -0.2611
 1629SOL    HW213721   4.846   2.527   1.457  2.0076 -2.0010  0.0951
 1630SOL     OW13722   2.349   5.356   1.675  0.0168 -0.0891 -0.0175
 1630SOL    HW113723   2.268   5.406   1.705 -1.4802 -1.9142 -0.9063
 1630SOL    HW213724   2.393   5.405   1.600 -1.7295 -0.3530 -1.2288
 1632SOL     OW13725   1.772   2.262   0.302 -0.0986 -0.1686 -0.0525
 1632SOL    HW113726   1.712   2.289   0.378 -2.2698 -0.1363 -1.7251
 1632SOL    HW213727   1.818   2.176   0.325 -2.6347 -1.4698  0.3638
 1633SOL     OW13728   1.831   0.236   1.421 -0.3640 -0.4576 -0.4183
 1633SOL    HW113729   1.812   0.317   1.477  1.4491  0.4506 -1.0604
 1633SOL    HW213730   1.746   0.201   1.383 -1.4933 -0.4948  2.0987
 1634SOL     OW13731   4.928   3.623   0.369  0.0852 -0.3008 -0.3037
 1634SOL    HW113732   4.981   3.706   0.350 -1.7182  0.8977 -0.1503
 1634SOL    HW213733   4.885   3.591   0.285 -0.9810  0.1511  0.0724
 1635SOL     OW13734   3.958   2.035   1.547  0.0834 -0.1047 -0.1383
 1635SOL    HW113735   3.930   1.989   1.631  0.7172  0.1799  0.2309
 1635SOL    HW213736   3.923   1.985   1.468 -0.0620 -0.6687  0.2823
 1636SOL     OW13737   2.139   2.308   0.337 -0.2608  0.5634  0.1551
 1636SOL    HW113738   2.145   2.209   0.322  0.1945  0.6460 -0.2110
 1636SOL    HW213739   2.085   2.326   0.419 -0.5094  0.0150  0.1136
 1637SOL     OW13740   3.166   3.962   2.064 -0.0544 -0.6313  0.2442
 1637SOL    HW113741   3.080   3.987   2.020  0.9464  0.7264 -1.0157
 1637SOL    HW213742   3.214   3.895   2.008  0.2390 -0.5157  0.3552
 1638SOL     OW13743   3.999   2.361   0.444  0.4808 -0.0710 -0.2442
 1638SOL    HW113744   3.984   2.436   0.509  2.0271  1.2159 -1.3325
 1638SOL    HW213745   3.970   2.389   0.353  1.9926 -0.4139 -0.8515
 1639SOL     OW13746   2.937   1.890   1.266  0.2147 -0.3485  0.9801
 1639SOL    HW113747   2.992   1.830   1.325 -0.8526 -0.0963  2.2651
 1639SOL    HW213748   2.987   1.975   1.249 -0.4339  0.5970  3.5580
 1640SOL     OW13749   2.368   6.706   1.752  0.2199 -0.3735 -0.1656
 1640SOL    HW113750   2.432   6.630   1.762  1.4478  0.5045 -1.0466
 1640SOL    HW213751   2.415   6.791   1.776 -0.3907  0.3722 -1.5737
 1641SOL     OW13752   2.600   0.232   2.366  0.1386  0.0745 -0.4626
 1641SOL    HW113753   2.662   0.307   2.340 -0.3000 -0.1782 -2.2931
 1641SOL    HW213754   2.645   0.173   2.432  1.2824  0.7559 -0.6235
 1642SOL     OW13755   2.232   3.596   1.785  0.6054 -0.2257 -0.3351
 1642SOL    HW113756   2.200   3.596   1.880 -2.4466 -2.2591 -1.2898
 1642SOL    HW213757   2.254   3.689   1.757  0.9559  0.4760  2.1797
 1644SOL     OW13758   2.437   4.418   1.824  0.5332  0.1713  0.4641
 1644SOL    HW113759   2.474   4.327   1.804  0.4365 -0.1195  1.5466
 1644SOL    HW213760   2.448   4.437   1.921 -2.3990 -0.0418  0.8793
 1645SOL     OW13761   3.351   0.202   1.707  0.0425 -0.5362  0.1765
 1645SOL    HW113762   3.321   0.187   1.613  1.9225 -0.6382 -0.4453
 1645SOL    HW213763   3.374   0.114   1.749 -1.3641 -0.5503  0.9532
 1646SOL     OW13764   2.169   3.838   0.386  0.1704  0.3726 -0.3716
 1646SOL    HW113765   2.184   3.919   0.443 -0.1486 -0.0886  0.3777
 1646SOL    HW213766   2.173   3.864   0.289  1.6658  0.9870 -0.1544
 1647SOL     OW13767   3.896   4.655   2.094 -0.1637  0.4238  0.1575
 1647SOL    HW113768   3.881   4.673   2.191  0.3876 -0.1042  0.3471
 1647SOL    HW213769   3.808   4.639   2.050 -0.3532 -0.3149  0.7773
 1648SOL     OW13770   3.667   2.960   0.545  0.1830 -0.0534 -0.0009
 1648SOL    HW113771   3.742   3.008   0.590  0.9418  1.3281 -2.6077
 1648SOL    HW213772   3.688   2.949   0.448 -1.5690 -2.5698 -0.1292
 1649SOL     OW13773   5.156   3.278   1.228  0.4951 -0.1130  0.0878
 1649SOL    HW113774   5.202   3.308   1.312  0.6802 -1.5573  0.5104
 1649SOL    HW213775   5.175   3.181   1.212 -1.0735 -0.3187 -0.6203
 1650SOL     OW13776   2.227   9.535   0.547  0.0531  1.0174  0.2611
 1650SOL    HW113777   2.142   9.503   0.588 -0.2658  0.9627 -0.4286
 1650SOL    HW213778   2.237   9.633   0.561  0.6488  0.7616  1.7020
 1651SOL     OW13779   3.472   0.046   2.105 -0.0656 -0.2488 -0.2004
 1651SOL    HW113780   3.410   0.125   2.102  0.3738  0.0520 -2.5159
 1651SOL    HW213781   3.566   0.077   2.092  0.1049 -1.1188 -1.1443
 1652SOL     OW13782   2.966   3.871   0.295  0.5175  0.0150  0.9889
 1652SOL    HW113783   2.900   3.882   0.369 -1.3464 -0.5686 -0.5729
 1652SOL    HW213784   2.949   3.939   0.224  4.4775  2.8892  2.5880
 1653SOL     OW13785   3.161   2.869   0.558 -0.2892 -0.1408  0.3939
 1653SOL    HW113786   3.132   2.889   0.651 -0.6371  1.1200  0.0312
 1653SOL    HW213787   3.242   2.924   0.536 -0.3237 -0.2863 -0.1033
 1654SOL     OW13788   2.658   4.000   2.001  0.3892  0.0489  0.0979
 1654SOL    HW113789   2.641   4.029   2.096  3.4434 -0.3450  0.8165
 1654SOL    HW213790   2.675   3.902   1.999  1.3927  0.2383 -0.7116
 1655SOL     OW13791   1.710   6.571   1.343 -0.1903  0.0900  0.1015
 1655SOL    HW113792   1.781   6.592   1.410  0.1872  0.4665 -0.4085
 1655SOL    HW213793   1.641   6.513   1.385  0.3276 -0.1353  0.6562
 1656SOL     OW13794   3.415   0.933   2.185 -0.4993 -0.1920  1.0144
 1656SOL    HW113795   3.337   0.874   2.166 -0.4775  0.3780 -0.8858
 1656SOL    HW213796   3.441   0.922   2.281 -1.5199 -2.0229  1.1157
 1657SOL     OW13797   2.766   4.507   1.446  0.7526 -0.0308 -0.6267
 1657SOL    HW113798   2.745   4.409   1.453  1.7620 -0.1489  1.1510
 1657SOL    HW213799   2.847   4.528   1.502  0.4046  1.8675 -0.7964
 1658SOL     OW13800   1.897   0.393   0.851  0.3150 -0.0429  0.1253
 1658SOL    HW113801   1.963   0.418   0.922 -1.4525  0.1748  1.7226
 1658SOL    HW213802   1.888   0.469   0.787 -0.3630  1.0060  1.4272
 1659SOL     OW13803   4.408   2.866   2.304  0.4300 -0.2746 -0.1669
 1659SOL    HW113804   4.331   2.899   2.358  0.1960  0.4587 -0.9433
 1659SOL    HW213805   4.444   2.941   2.248  2.7240 -0.1694  1.3801
 1660SOL     OW13806   3.019   0.514   1.984 -0.4545 -0.8279 -0.1687
 1660SOL    HW113807   3.018   0.595   1.925  1.0096 -1.6675 -1.3812
 1660SOL    HW213808   3.001   0.541   2.078  0.1621  0.9311 -0.5374
 1661SOL     OW13809   2.836   4.511   1.821  0.1095  0.0205  0.2297
 1661SOL    HW113810   2.927   4.537   1.853  0.4413  0.5009 -1.0919
 1661SOL    HW213811   2.800   4.581   1.759 -1.1198 -0.2089  0.6620
 1663SOL     OW13812   4.989   3.797   1.124 -0.1820 -0.7817 -0.1096
 1663SOL    HW113813   4.943   3.787   1.035 -0.0492 -1.0032 -0.1525
 1663SOL    HW213814   4.921   3.820   1.193  0.1089  2.2310 -0.7839
 1664SOL     OW13815   3.705   1.027   0.383  0.2526  0.2634  0.6088
 1664SOL    HW113816   3.681   1.011   0.479 -0.9547 -1.8479  0.0038
 1664SOL    HW213817   3.727   0.939   0.340  1.9278  1.3319 -0.7560
 1665SOL     OW13818   5.348   3.108   1.048  0.6601 -0.5936  0.1003
 1665SOL    HW113819   5.369   3.205   1.037 -0.7134  0.0974  3.0359
 1665SOL    HW213820   5.421   3.064   1.100 -0.8801 -0.0729  2.7988
 1667SOL     OW13821   3.352   9.203   1.120  0.0155 -0.2740 -0.7676
 1667SOL    HW113822   3.294   9.160   1.051  0.4924 -0.1283 -1.2690
 1667SOL    HW213823   3.315   9.291   1.146 -0.6544 -0.7283 -0.1669
 1668SOL     OW13824   3.079   9.659   0.834  0.3531  0.7655 -0.2712
 1668SOL    HW113825   3.012   9.593   0.868  1.5533 -0.5710 -0.4536
 1668SOL    HW213826   3.082   9.655   0.734  1.1785  0.3352 -0.2330
 1669SOL     OW13827   3.012   5.678   2.002 -0.9114 -0.5732 -0.1648
 1669SOL    HW113828   2.967   5.671   2.092 -0.2965 -1.3287  0.0952
 1669SOL    HW213829   3.110   5.662   2.013 -0.2488  3.0069 -0.4490
 1670SOL     OW13830   3.966   3.851   1.068 -0.6548 -0.1625  0.0849
 1670SOL    HW113831   3.902   3.775   1.078 -1.4125  0.2488 -1.4403
 1670SOL    HW213832   4.047   3.834   1.123 -2.5374 -0.1759  2.9509
 1672SOL     OW13833   3.062   1.738   1.454 -0.1585 -0.3261  0.0255
 1672SOL    HW113834   3.114   1.662   1.495  0.3660  1.0268  1.9609
 1672SOL    HW213835   2.975   1.749   1.502 -0.1885  0.3430 -0.1724
 1673SOL     OW13836   3.819   0.836   2.283 -0.1430 -0.1091  0.1397
 1673SOL    HW113837   3.784   0.751   2.243 -1.1378 -0.1191  1.0090
 1673SOL    HW213838   3.757   0.911   2.261  0.7459  0.4126 -0.6446
 1674SOL     OW13839   2.947   7.981   1.506  0.1399 -0.0067 -0.0257
 1674SOL    HW113840   2.928   8.078   1.523 -1.4082 -0.2809 -0.1025
 1674SOL    HW213841   2.861   7.931   1.497  0.8587 -1.7651  2.1449
 1675SOL     OW13842   1.986   4.034   2.244 -0.0783 -0.4744  0.6622
 1675SOL    HW113843   1.998   4.082   2.331  0.7324  0.5684 -0.0045
 1675SOL    HW213844   2.071   3.988   2.219 -0.3257 -0.8226  0.4602
 1676SOL     OW13845   4.572   4.017   0.756 -0.2617  0.7308 -0.0260
 1676SOL    HW113846   4.529   4.008   0.846 -0.9012 -0.2183 -0.4185
 1676SOL    HW213847   4.517   3.968   0.688  1.2606 -0.2448 -0.5812
 1677SOL     OW13848   4.304   4.173   2.253 -0.1292  0.1645  0.4525
 1677SOL    HW113849   4.243   4.179   2.173 -0.7657 -0.3413  0.8870
 1677SOL    HW213850   4.257   4.123   2.326  1.4855 -1.8749  0.1616
 1678SOL     OW13851   2.687   3.479   1.208 -0.3585  0.6195  0.3217
 1678SOL    HW113852   2.733   3.457   1.122  1.2243  3.5128  0.3853
 1678SOL    HW213853   2.711   3.572   1.236 -3.4074  0.8923  2.2503
 1680SOL     OW13854   4.500   1.656   1.093  0.6525 -0.5300  0.1632
 1680SOL    HW113855   4.486   1.626   1.188 -0.2381  1.0328  0.5433
 1680SOL    HW213856   4.515   1.755   1.092 -0.1950 -0.4111 -1.4055
 1681SOL     OW13857   1.615   7.741   0.276 -0.6153 -0.5740  0.0018
 1681SOL    HW113858   1.565   7.827   0.260 -0.9662 -0.7445  0.1672
 1681SOL    HW213859   1.658   7.743   0.366  2.7218  1.0536 -1.5483
 1683SOL     OW13860   4.786   3.932   0.276 -0.2066  0.5211  0.0043
 1683SOL    HW113861   4.876   3.903   0.308 -0.7599 -0.6664  0.5188
 1683SOL    HW213862   4.717   3.903   0.343 -1.1350  0.0626 -1.1505
 1684SOL     OW13863   4.598   2.659   0.821  0.1784  0.5382  0.0308
 1684SOL    HW113864   4.682   2.692   0.779 -0.6772  3.8431  0.8056
 1684SOL    HW213865   4.558   2.587   0.764  1.6266  1.4483 -2.1768
 1685SOL     OW13866   4.150   2.728   0.934  0.0314 -0.6004 -0.2163
 1685SOL    HW113867   4.117   2.680   1.015  1.0643 -1.1207 -0.0923
 1685SOL    HW213868   4.240   2.767   0.952  0.1563 -0.4943 -1.0286
 1686SOL     OW13869   3.725   5.068   0.336  0.4481 -0.6538 -0.0181
 1686SOL    HW113870   3.718   5.165   0.358 -1.2764 -0.2018 -2.3723
 1686SOL    HW213871   3.800   5.053   0.272  0.3308 -0.8177 -0.1175
 1687SOL     OW13872   3.156   2.989   1.509 -0.3327  0.0666  0.4471
 1687SOL    HW113873   3.205   3.068   1.546 -2.3122  2.1585 -1.2025
 1687SOL    HW213874   3.214   2.942   1.442  0.4186  0.8925  0.5103
 1689SOL     OW13875   3.047   2.542   1.888 -0.4308  0.4260 -0.1663
 1689SOL    HW113876   3.130   2.593   1.867 -1.5452  2.5519  0.4599
 1689SOL    HW213877   2.995   2.528   1.804 -0.1608  0.3795 -0.3280
 1690SOL     OW13878   3.262   7.858   0.772  0.8232 -0.1332 -0.1414
 1690SOL    HW113879   3.173   7.882   0.734  0.6829  0.4886  0.5713
 1690SOL    HW213880   3.305   7.787   0.715  0.0794 -0.1040 -0.7418
 1691SOL     OW13881   3.437   2.036   0.581 -0.0392  0.1079  0.4802
 1691SOL    HW113882   3.352   2.038   0.635 -0.1719  0.9777  0.2543
 1691SOL    HW213883   3.468   2.130   0.567 -0.3109 -0.0867 -1.4574
 1692SOL     OW13884   1.652   2.853   0.704 -0.3527  0.1071 -0.0695
 1692SOL    HW113885   1.575   2.912   0.679 -1.4251 -0.8384  0.9244
 1692SOL    HW213886   1.682   2.802   0.623  0.9207  2.3350 -1.0636
 1693SOL     OW13887   2.382   1.623   0.965  0.4130  0.0716  0.3721
 1693SOL    HW113888   2.313   1.687   0.997 -0.2729 -1.0196  1.1167
 1693SOL    HW213889   2.338   1.536   0.941  1.1970  0.1606 -1.4823
 1694SOL     OW13890   1.615   3.514   0.700  0.2286  0.0077 -0.3730
 1694SOL    HW113891   1.560   3.435   0.674  0.5737 -0.0698 -0.8678
 1694SOL    HW213892   1.629   3.573   0.621  0.3325  0.3478 -0.1036
 1695SOL     OW13893   3.448   8.786   1.241  0.2025 -0.5269 -0.5873
 1695SOL    HW113894   3.350   8.802   1.251 -0.1161 -1.4989 -2.0913
 1695SOL    HW213895   3.486   8.853   1.177  0.6634  0.2896  0.5230
 1696SOL     OW13896   3.504   1.634   1.372  0.1108 -0.1971  0.1326
 1696SOL    HW113897   3.523   1.699   1.445 -2.1791 -0.1062  0.6601
 1696SOL    HW213898   3.535   1.673   1.285 -2.9412  2.4862  0.1558
 1697SOL     OW13899   2.375   4.395   1.264  0.0732  0.5754 -1.0473
 1697SOL    HW113900   2.290   4.403   1.211 -0.6974 -1.5320 -0.1911
 1697SOL    HW213901   2.361   4.436   1.354  1.0817  3.2886 -2.0577
 1698SOL     OW13902   2.343   7.117   0.738  1.0066 -0.1386  0.2049
 1698SOL    HW113903   2.327   7.028   0.781 -0.2037 -0.5194 -1.0071
 1698SOL    HW213904   2.362   7.186   0.809  2.2777 -1.4106  1.1313
 1699SOL     OW13905   2.083   2.309   1.579 -0.5002 -0.7509  0.4919
 1699SOL    HW113906   2.010   2.293   1.512 -0.5672 -0.2323  0.4372
 1699SOL    HW213907   2.055   2.382   1.642  0.5786  0.5055 -0.4562
 1700SOL     OW13908   4.974   2.659   1.408 -0.3601 -0.4813 -0.3844
 1700SOL    HW113909   4.968   2.691   1.314  0.6485  1.0504  0.0526
 1700SOL    HW213910   4.919   2.717   1.468  2.3356  1.1880  0.5694
 1701SOL     OW13911   4.151   4.801   1.791  0.2207 -0.3516 -0.3336
 1701SOL    HW113912   4.151   4.743   1.872  0.3546  0.0122 -0.0695
 1701SOL    HW213913   4.181   4.893   1.816  1.6912 -0.6110 -1.0586
 1702SOL     OW13914   3.528   9.009   1.777  0.4781  0.4139 -0.6027
 1702SOL    HW113915   3.604   9.044   1.722 -0.5983 -0.0835 -2.4466
 1702SOL    HW213916   3.443   9.053   1.748 -0.3599 -1.1406 -0.5420
 1703SOL     OW13917   3.931   8.086   0.956  0.5658  0.0394 -0.3920
 1703SOL    HW113918   3.875   8.162   0.923  0.5774  0.1204 -0.2287
 1703SOL    HW213919   3.970   8.037   0.879  1.6948  1.0426 -0.4681
 1704SOL     OW13920   2.666   4.380   0.395  0.2384  0.0902 -0.2593
 1704SOL    HW113921   2.622   4.467   0.370 -2.3667 -0.1929  2.9944
 1704SOL    HW213922   2.689   4.382   0.493  0.9290 -2.5685 -0.3477
 1705SOL     OW13923   3.026   6.239   1.694 -0.1979  0.1057  0.0770
 1705SOL    HW113924   2.971   6.162   1.662 -2.3727  1.6897 -0.0885
 1705SOL    HW213925   3.065   6.287   1.616 -0.6308  0.4539  0.0729
 1706SOL     OW13926   3.837   9.012   0.506 -0.3310 -0.3149  0.4289
 1706SOL    HW113927   3.849   9.088   0.442  0.3540  0.1397  1.0852
 1706SOL    HW213928   3.891   8.934   0.475  0.1648 -0.0261  0.5651
 1709SOL     OW13929   2.387   9.076   0.604  0.1856 -0.0996 -0.3318
 1709SOL    HW113930   2.384   9.151   0.670 -1.8104  0.3006 -0.8343
 1709SOL    HW213931   2.443   9.102   0.525  2.1114 -0.3665  0.9197
 1710SOL     OW13932   2.529   6.430   1.785 -0.5923  0.2336 -0.3752
 1710SOL    HW113933   2.601   6.362   1.798 -1.3323 -0.0417  2.5454
 1710SOL    HW213934   2.465   6.397   1.716  0.8390 -0.5283 -1.3655
 1712SOL     OW13935   4.477   3.762   1.400 -0.0920  0.2723 -0.3132
 1712SOL    HW113936   4.439   3.831   1.461  0.9262 -0.6107  1.3622
 1712SOL    HW213937   4.427   3.762   1.313 -0.9518  2.1797  0.1692
 1714SOL     OW13938   4.015   1.252   2.131  0.1340 -0.4131 -0.0720
 1714SOL    HW113939   4.109   1.231   2.102 -0.4440 -1.5300 -1.2039
 1714SOL    HW213940   4.015   1.280   2.227  1.6534 -0.2194 -0.1187
 1716SOL     OW13941   2.310   4.909   1.659  0.0691  0.0644 -0.2169
 1716SOL    HW113942   2.295   4.921   1.561 -0.1110  0.6308 -0.1270
 1716SOL    HW213943   2.283   4.817   1.686  1.2603 -0.4990 -0.9065
 1717SOL     OW13944   2.692   3.734   1.912 -0.0399  0.3935 -0.1140
 1717SOL    HW113945   2.635   3.653   1.927  2.0264 -0.9794  0.5549
 1717SOL    HW213946   2.708   3.746   1.814 -0.1660 -0.1541 -0.2056
 1720SOL     OW13947   2.068   3.049   1.832  0.3409  0.4407  0.3821
 1720SOL    HW113948   2.117   3.095   1.906  0.1515  0.2985  0.5979
 1720SOL    HW213949   2.132   3.026   1.759  0.4183  1.1244  0.2316
 1721SOL     OW13950   4.466   4.306   1.921  0.3267 -0.4401  0.0211
 1721SOL    HW113951   4.511   4.319   2.009  1.5903  2.1885 -0.9827
 1721SOL    HW213952   4.375   4.348   1.923 -0.1103 -1.3670  0.3936
 1722SOL     OW13953   2.562   2.414   1.108  0.1606  0.0383  0.4347
 1722SOL    HW113954   2.629   2.486   1.089  1.2685 -0.6768  1.5187
 1722SOL    HW213955   2.550   2.357   1.027  2.8757 -1.4263  1.0125
 1723SOL     OW13956   2.546   6.263   0.901  0.0960  0.3038  0.6566
 1723SOL    HW113957   2.506   6.234   0.814 -0.3000  0.8771  0.6474
 1723SOL    HW213958   2.645   6.270   0.891  0.2644 -1.6149  0.8233
 1724SOL     OW13959   5.519   3.244   0.732 -0.4071  0.3056  0.0607
 1724SOL    HW113960   5.610   3.276   0.706 -0.1667 -1.0613 -0.8120
 1724SOL    HW213961   5.500   3.156   0.689 -2.9215  1.4756 -1.3758
 1726SOL     OW13962   3.446   3.384   0.807 -0.3146 -0.4509 -0.2589
 1726SOL    HW113963   3.499   3.388   0.723 -0.5873  1.6941 -0.3635
 1726SOL    HW213964   3.388   3.465   0.814 -1.5226 -1.4047  1.1995
 1728SOL     OW13965   4.701   2.321   2.341  0.2615  0.0561 -0.3829
 1728SOL    HW113966   4.637   2.325   2.418  0.6873 -1.9276  0.0967
 1728SOL    HW213967   4.705   2.228   2.306  0.5744  0.8044 -2.4092
 1729SOL     OW13968   1.825   3.369   0.837 -0.4363  0.2667  0.4768
 1729SOL    HW113969   1.742   3.415   0.807 -1.1134 -2.6365 -2.4113
 1729SOL    HW213970   1.814   3.339   0.932 -2.6251  0.0331  0.1729
 1730SOL     OW13971   2.012   7.422   0.570 -0.0407  0.0765  0.0832
 1730SOL    HW113972   2.065   7.339   0.583  1.4950  1.1955  1.2417
 1730SOL    HW213973   1.925   7.400   0.527  0.8035 -1.9734 -0.6481
 1731SOL     OW13974   3.186   9.520   1.521 -0.0518 -0.3921  0.4179
 1731SOL    HW113975   3.114   9.474   1.574 -0.7579  0.1678 -0.0476
 1731SOL    HW213976   3.232   9.587   1.578 -0.7031  0.0926  0.3859
 1733SOL     OW13977   3.031   7.916   0.626 -0.3569  0.1623  0.0562
 1733SOL    HW113978   2.961   7.933   0.696 -0.0348  1.0577  0.1711
 1733SOL    HW213979   3.048   8.000   0.575 -0.8697 -0.5944 -1.3717
 1735SOL     OW13980   2.135   5.132   2.284 -0.3990  0.0151  0.7409
 1735SOL    HW113981   2.221   5.138   2.234 -0.1720 -2.0376  0.8134
 1735SOL    HW213982   2.147   5.073   2.364 -1.5692  0.6801  1.4290
 1736SOL     OW13983   3.501   3.998   0.822  0.6535 -0.0184 -0.1336
 1736SOL    HW113984   3.545   4.087   0.825  2.2207 -0.7360 -1.1114
 1736SOL    HW213985   3.453   3.988   0.734 -1.5230  0.7601  0.9215
 1737SOL     OW13986   1.768   7.403   0.464  0.0566 -0.1595  0.1622
 1737SOL    HW113987   1.755   7.352   0.379 -0.6282  0.0564  0.1377
 1737SOL    HW213988   1.738   7.497   0.451  0.0658 -0.0926  0.6137
 1738SOL     OW13989   4.276   1.159   0.863  0.2622  0.1907  0.3062
 1738SOL    HW113990   4.209   1.215   0.815 -0.1286 -0.6230 -0.0924
 1738SOL    HW213991   4.362   1.158   0.811  0.4189  0.7761  0.5405
 1740SOL     OW13992   2.127   9.542   0.287 -0.1440 -0.2333 -0.4008
 1740SOL    HW113993   2.156   9.551   0.382  1.2414  0.3554 -0.8746
 1740SOL    HW213994   2.064   9.465   0.279  2.9295 -2.9016  0.2729
 1741SOL     OW13995   3.518   2.783   1.506 -0.2254 -0.0439 -0.2772
 1741SOL    HW113996   3.614   2.807   1.492 -0.4134 -0.1566 -1.8550
 1741SOL    HW213997   3.509   2.734   1.592  0.9607  0.9364  0.4195
 1742SOL     OW13998   2.723   4.014   2.281 -0.1281 -0.1745  0.7110
 1742SOL    HW113999   2.759   3.943   2.341  2.3975 -1.7247 -2.4866
 1742SOL    HW214000   2.769   4.100   2.299  1.5746 -0.9459  0.1311
 1743SOL     OW14001   3.148   9.880   0.324  0.8311  0.1617 -0.3563
 1743SOL    HW114002   3.129   9.908   0.229  2.2905  0.4445 -0.5747
 1743SOL    HW214003   3.153   9.780   0.328  1.3714  0.1728 -0.6972
 1745SOL     OW14004   2.785   4.450   0.686 -0.3118 -0.1148  0.4907
 1745SOL    HW114005   2.780   4.549   0.689  0.7915 -0.0631  0.7568
 1745SOL    HW214006   2.701   4.411   0.725 -0.6663  0.7068  0.5412
 1746SOL     OW14007   2.723   3.537   0.654 -0.3780  0.1607 -0.0202
 1746SOL    HW114008   2.823   3.536   0.649 -0.4768 -1.8873 -2.9259
 1746SOL    HW214009   2.691   3.453   0.697 -0.8875 -0.2686 -1.2118
 1747SOL     OW14010   4.507   1.937   1.849 -0.0923  0.1615 -0.2320
 1747SOL    HW114011   4.514   1.853   1.903  0.4665 -0.0131 -0.5813
 1747SOL    HW214012   4.524   2.016   1.908 -1.3748  0.0820  0.2711
 1748SOL     OW14013   2.641   6.116   2.197  0.5059 -0.0111 -0.1493
 1748SOL    HW114014   2.626   6.200   2.248  0.3947  0.5646 -1.1082
 1748SOL    HW214015   2.562   6.097   2.139  1.0771 -0.0498 -0.9351
 1749SOL     OW14016   4.235   2.549   1.472 -0.5355  0.1669  0.5800
 1749SOL    HW114017   4.139   2.521   1.473 -0.1020 -1.7293 -2.7189
 1749SOL    HW214018   4.243   2.642   1.436 -1.2112  0.7105  1.8352
 1750SOL     OW14019   2.466   5.589   1.883 -0.0433 -0.1125 -0.4689
 1750SOL    HW114020   2.500   5.630   1.799 -0.1126 -1.7698 -1.3316
 1750SOL    HW214021   2.540   5.538   1.927 -0.3302 -0.2846 -0.1828
 1751SOL     OW14022   2.273   8.619   0.615  0.2541 -0.4323 -0.0926
 1751SOL    HW114023   2.179   8.623   0.579  0.5729 -1.0791 -0.9860
 1751SOL    HW214024   2.309   8.526   0.607  1.0000 -0.1743  0.1927
 1752SOL     OW14025   3.647   2.811   2.019  0.2188 -0.3261 -0.4277
 1752SOL    HW114026   3.676   2.718   1.994 -2.7841 -1.3161 -0.4812
 1752SOL    HW214027   3.616   2.860   1.937 -2.0954 -0.7831  0.1181
 1754SOL     OW14028   2.144   0.245   1.512 -0.1829 -0.1665  0.5441
 1754SOL    HW114029   2.191   0.330   1.490 -1.9867  1.1281  1.6065
 1754SOL    HW214030   2.102   0.208   1.430  2.4921 -1.2510 -0.3845
 1755SOL     OW14031   2.943   4.912   1.833 -0.4087  0.3865  0.1911
 1755SOL    HW114032   2.870   4.932   1.899 -0.2310  0.1578  0.4578
 1755SOL    HW214033   2.903   4.899   1.742 -1.2222 -3.8328  1.0163
 1756SOL     OW14034   1.871   7.117   0.720  0.8266 -0.1299 -0.4701
 1756SOL    HW114035   1.961   7.113   0.677  0.1651 -0.3297 -1.8932
 1756SOL    HW214036   1.831   7.207   0.704  0.7305 -0.0767  0.0659
 1758SOL     OW14037   3.053   4.872   0.456  0.1722  0.1698  0.6307
 1758SOL    HW114038   3.046   4.863   0.357 -2.3677  1.0509  0.6763
 1758SOL    HW214039   2.961   4.878   0.495  1.1592  1.8453  2.8276
 1759SOL     OW14040   2.953   0.751   2.254  0.0189 -0.9841 -0.6243
 1759SOL    HW114041   2.879   0.761   2.188  1.8293 -1.6888 -2.8357
 1759SOL    HW214042   2.924   0.691   2.328 -2.3768  0.5783 -0.2355
 1761SOL     OW14043   1.924   9.027   0.732 -0.6048  0.5266 -0.0859
 1761SOL    HW114044   2.015   8.986   0.737 -1.4912 -1.4406  0.9774
 1761SOL    HW214045   1.930   9.126   0.741  1.4951  0.4888 -0.9894
 1762SOL     OW14046   2.212   2.404   1.120 -0.7046 -0.0159  0.2674
 1762SOL    HW114047   2.233   2.333   1.188 -0.5514  1.0545  1.3596
 1762SOL    HW214048   2.118   2.434   1.132 -0.1256  1.4526  1.2024
 1764SOL     OW14049   3.620   4.486   0.894  0.1666  0.3447 -0.0558
 1764SOL    HW114050   3.563   4.455   0.819 -0.9119 -0.7447  1.1996
 1764SOL    HW214051   3.579   4.567   0.937  0.0176  0.0832  0.2958
 1765SOL     OW14052   4.370   3.583   1.580  0.3648  0.6807  0.4410
 1765SOL    HW114053   4.362   3.492   1.537  1.9514  0.0419  1.4568
 1765SOL    HW214054   4.421   3.644   1.519  1.6453  0.0972  0.9082
 1766SOL     OW14055   3.218   5.922   1.998  0.6137  0.0608 -0.2038
 1766SOL    HW114056   3.229   6.008   1.947  2.0259  0.3744  0.6070
 1766SOL    HW214057   3.121   5.898   2.002  0.3386  0.8359 -1.7146
 1767SOL     OW14058   3.273   3.855   1.498 -0.3878  0.5838 -0.2641
 1767SOL    HW114059   3.209   3.780   1.480 -1.2660  1.3029 -0.1310
 1767SOL    HW214060   3.367   3.819   1.498 -0.8551 -0.6620  0.5949
 1768SOL     OW14061   2.464   0.182   1.961 -0.4744 -0.4334 -0.3633
 1768SOL    HW114062   2.475   0.230   2.049  0.8706 -2.5142  0.6368
 1768SOL    HW214063   2.369   0.154   1.950 -0.6853 -0.0171  0.3504
 1770SOL     OW14064   2.846   3.447   0.270  0.4236  0.0278 -0.2342
 1770SOL    HW114065   2.813   3.370   0.323 -0.5222  1.2989  1.0488
 1770SOL    HW214066   2.871   3.416   0.178  0.3531 -1.8431  0.3622
 1771SOL     OW14067   3.184   8.860   1.841 -0.2000 -0.2783 -0.0799
 1771SOL    HW114068   3.170   8.840   1.938  0.7636 -1.9513 -0.2669
 1771SOL    HW214069   3.214   8.955   1.831 -3.7744  1.0086  0.9261
 1772SOL     OW14070   2.480   3.684   1.234 -0.0019 -0.3317 -0.1522
 1772SOL    HW114071   2.440   3.681   1.143  1.5587  0.1378 -0.8729
 1772SOL    HW214072   2.501   3.591   1.265  1.3015 -0.3869 -1.1291
 1773SOL     OW14073   2.693   4.821   1.632 -0.1791  0.9560  0.1368
 1773SOL    HW114074   2.648   4.733   1.646  1.1558 -0.0298 -1.6476
 1773SOL    HW214075   2.640   4.893   1.679 -1.6941 -0.6554  0.9619
 1774SOL     OW14076   3.904   1.213   0.370 -0.7755 -0.8613 -0.4581
 1774SOL    HW114077   3.924   1.198   0.467 -0.5238 -2.3232 -0.7263
 1774SOL    HW214078   3.828   1.153   0.343 -0.2423 -1.1071 -1.3892
 1775SOL     OW14079   3.763   4.451   0.450  0.2967  0.1504 -0.0135
 1775SOL    HW114080   3.744   4.535   0.399  2.3148  1.4628  1.3264
 1775SOL    HW214081   3.700   4.443   0.526  0.6334  0.8891  0.3432
 1776SOL     OW14082   4.488   3.316   0.660  0.0506  0.0721  0.2848
 1776SOL    HW114083   4.546   3.259   0.601  0.3996  0.7876 -0.0699
 1776SOL    HW214084   4.539   3.340   0.742  0.7229  1.7553 -0.6062
 1777SOL     OW14085   4.215   4.965   2.093 -0.2918  0.2806 -0.1513
 1777SOL    HW114086   4.244   5.007   2.007 -0.9938 -0.8499 -0.9579
 1777SOL    HW214087   4.272   4.886   2.112 -0.2232  0.4534  0.3653
 1781SOL     OW14088   3.517   1.508   1.698  0.2548 -0.3627 -0.1274
 1781SOL    HW114089   3.541   1.588   1.643 -0.2989 -0.0395  0.0924
 1781SOL    HW214090   3.569   1.429   1.666  0.4854 -0.0133 -0.6324
 1782SOL     OW14091   2.877   5.771   1.740  0.4167  0.0480 -0.3254
 1782SOL    HW114092   2.874   5.697   1.674  1.3843 -0.4274  0.1635
 1782SOL    HW214093   2.919   5.740   1.825 -1.7441  0.3500  0.9164
 1783SOL     OW14094   2.928   2.208   2.236  0.2489 -0.1453  0.3180
 1783SOL    HW114095   3.007   2.251   2.192 -0.1799  1.0887  0.7244
 1783SOL    HW214096   2.941   2.209   2.335  0.1413 -0.7894  0.3426
 1784SOL     OW14097   3.319   2.306   1.466 -0.0598  0.6018 -0.2831
 1784SOL    HW114098   3.397   2.244   1.457 -1.7219 -1.1859 -2.9535
 1784SOL    HW214099   3.339   2.392   1.419  0.9436  0.8438  0.5523
 1785SOL     OW14100   1.721   1.674   2.068  0.3077  0.2397  0.3564
 1785SOL    HW114101   1.643   1.613   2.048  1.5950 -1.1303 -0.6038
 1785SOL    HW214102   1.713   1.707   2.162 -1.4060  0.0687  0.2979
 1786SOL     OW14103   3.881   1.099   0.750 -0.1204 -0.0496 -0.1619
 1786SOL    HW114104   3.874   1.061   0.842 -0.7355  1.1874  0.3048
 1786SOL    HW214105   3.893   1.198   0.755  2.5946 -0.2595 -1.3334
 1789SOL     OW14106   2.485   0.136   0.452 -1.0399  0.5733 -0.3497
 1789SOL    HW114107   2.525   0.163   0.540 -1.9393  1.0951 -0.1001
 1789SOL    HW214108   2.553   0.150   0.380  0.3908 -1.7375  0.5049
 1790SOL     OW14109   1.936   9.890   1.150 -0.6275  0.3627 -0.4476
 1790SOL    HW114110   1.996   9.961   1.187 -0.7719 -0.2457  0.9713
 1790SOL    HW214111   1.893   9.923   1.066  0.5043  1.3732 -0.6351
 1791SOL     OW14112   3.418   4.205   0.482 -0.1885  0.2579  0.6767
 1791SOL    HW114113   3.478   4.205   0.402 -0.5505 -0.2542  0.4091
 1791SOL    HW214114   3.391   4.111   0.504 -2.1954  0.6132 -0.1726
 1792SOL     OW14115   3.093   9.812   1.877 -0.2200  0.3594 -0.4326
 1792SOL    HW114116   3.018   9.762   1.921 -1.2800  0.4571 -2.0859
 1792SOL    HW214117   3.165   9.748   1.852  1.3613  0.5717  3.2851
 1793SOL     OW14118   3.254   9.340   0.825  0.2422 -0.5509 -0.5923
 1793SOL    HW114119   3.186   9.294   0.881 -0.5319  0.9762 -0.2481
 1793SOL    HW214120   3.325   9.380   0.884  1.0723 -1.5450 -0.9037
 1794SOL     OW14121   1.908   7.150   1.255 -0.2142  0.3470 -0.1349
 1794SOL    HW114122   2.008   7.144   1.263 -0.1256 -0.8641 -1.9032
 1794SOL    HW214123   1.881   7.246   1.249  0.8471  0.6877  0.3320
 1795SOL     OW14124   4.226   3.393   2.307  0.3998 -0.0032  0.1810
 1795SOL    HW114125   4.157   3.435   2.248 -0.4976  0.0282  1.2123
 1795SOL    HW214126   4.281   3.464   2.350 -0.9029  0.1430  1.6701
 1796SOL     OW14127   2.551   9.758   0.726  0.1858 -0.3017 -0.6913
 1796SOL    HW114128   2.521   9.798   0.639 -1.2030 -2.2151 -1.1194
 1796SOL    HW214129   2.610   9.823   0.774 -1.5816  2.0115 -1.5949
 1797SOL     OW14130   4.454   2.982   1.113  0.2958  0.0422 -0.5279
 1797SOL    HW114131   4.551   2.990   1.088  0.8179 -0.0604  1.3764
 1797SOL    HW214132   4.445   2.989   1.213 -1.8866  2.4351 -0.8309
 1798SOL     OW14133   2.279   8.505   1.078 -0.2720  0.0774  0.3321
 1798SOL    HW114134   2.226   8.421   1.070  1.1743 -0.7060 -1.4720
 1798SOL    HW214135   2.235   8.578   1.025 -1.0021  0.1933  1.0942
 1799SOL     OW14136   3.880   8.372   1.298 -0.2316  0.3346 -0.1188
 1799SOL    HW114137   3.908   8.281   1.270 -0.3512  0.4813 -0.7215
 1799SOL    HW214138   3.838   8.420   1.221 -0.9367  0.5960  0.4134
 1800SOL     OW14139   2.632   9.561   1.269  0.1638  0.2538  0.1615
 1800SOL    HW114140   2.617   9.623   1.193  0.0674 -0.5581 -0.4848
 1800SOL    HW214141   2.634   9.467   1.236 -0.1222 -0.1216  1.1925
 1801SOL     OW14142   1.883   0.592   0.657  0.0929 -0.3385 -0.1825
 1801SOL    HW114143   1.822   0.668   0.682 -0.7235 -0.6076 -1.3226
 1801SOL    HW214144   1.977   0.625   0.654 -0.1859  0.4904 -0.0692
 1802SOL     OW14145   2.327   9.394   1.200 -0.1786  0.1391  0.0454
 1802SOL    HW114146   2.418   9.402   1.159 -1.1422  1.3590 -2.0066
 1802SOL    HW214147   2.283   9.310   1.168  0.7902 -1.2292  2.2610
 1803SOL     OW14148   5.048   2.151   1.320 -0.2624 -0.0003 -0.1607
 1803SOL    HW114149   4.965   2.146   1.376  0.0383  1.3447  0.4079
 1803SOL    HW214150   5.029   2.205   1.237 -0.1043 -0.1683 -0.3074
 1804SOL     OW14151   2.871   5.534   1.610 -0.1022 -0.1301 -0.5804
 1804SOL    HW114152   2.954   5.497   1.652 -0.1077  0.7170  0.1889
 1804SOL    HW214153   2.803   5.461   1.599  0.4967 -0.6857 -0.6167
 1805SOL     OW14154   3.993   4.577   1.209  0.0240  0.2529 -0.0921
 1805SOL    HW114155   3.916   4.635   1.184 -1.2798 -1.8085 -0.9608
 1805SOL    HW214156   4.074   4.606   1.157 -0.7191  0.9835 -0.8636
 1806SOL     OW14157   4.097   1.596   1.362  0.7671  0.8252  0.5156
 1806SOL    HW114158   4.071   1.614   1.457  0.6133  0.4883  0.5368
 1806SOL    HW214159   4.196   1.581   1.357  0.3845 -2.0858  1.0760
 1807SOL     OW14160   2.731   8.624   1.560  0.3545  0.5194  0.1800
 1807SOL    HW114161   2.749   8.713   1.519  1.2688 -0.0383 -0.6676
 1807SOL    HW214162   2.817   8.580   1.585  0.0012 -0.6181 -0.5142
 1808SOL     OW14163   2.618   7.977   1.518  0.1329 -0.0093  0.2736
 1808SOL    HW114164   2.524   7.994   1.547 -0.3677 -0.5058 -1.0633
 1808SOL    HW214165   2.627   7.995   1.420  0.8711 -2.2141 -0.0864
 1809SOL     OW14166   2.189   5.657   1.303  0.0751  0.2985  0.0092
 1809SOL    HW114167   2.281   5.669   1.265 -0.1494  0.1993 -0.5789
 1809SOL    HW214168   2.135   5.601   1.240 -0.3431  0.2434  0.4204
 1810SOL     OW14169   3.877   9.614   1.057 -0.4754  0.0651 -0.0298
 1810SOL    HW114170   3.937   9.601   0.977 -0.8620  1.9101 -0.6511
 1810SOL    HW214171   3.884   9.709   1.087 -1.9968 -0.0813  0.7933
 1811SOL     OW14172   3.237   4.244   0.724 -0.1889  0.3409 -0.2040
 1811SOL    HW114173   3.283   4.276   0.641  0.6076 -0.4234 -0.0618
 1811SOL    HW214174   3.192   4.157   0.707 -0.9282  0.7033 -0.1246
 1812SOL     OW14175   3.325   9.491   1.200 -0.3143  0.0856  0.4418
 1812SOL    HW114176   3.344   9.570   1.142 -0.4473  0.2457  0.6182
 1812SOL    HW214177   3.395   9.485   1.271 -0.3395  0.0820  0.4662
 1814SOL     OW14178   2.429   2.821   1.827  0.1342 -0.7513  0.3120
 1814SOL    HW114179   2.523   2.824   1.793 -0.1340  0.6167 -0.3064
 1814SOL    HW214180   2.408   2.904   1.878 -0.8619 -0.8662  0.1141
 1815SOL     OW14181   3.465   7.531   0.912 -0.7924 -0.4203 -0.0289
 1815SOL    HW114182   3.500   7.454   0.859  0.7857 -0.6765  1.3445
 1815SOL    HW214183   3.373   7.509   0.946 -0.7010 -1.3439 -0.3726
 1816SOL     OW14184   2.164   2.008   0.396 -0.4315 -0.2757  0.0262
 1816SOL    HW114185   2.250   1.961   0.377 -0.2589 -0.1053  0.3968
 1816SOL    HW214186   2.171   2.058   0.482 -0.4522  0.8517 -0.6223
 1818SOL     OW14187   1.778   2.148   1.952  0.0582  0.0603  0.3437
 1818SOL    HW114188   1.811   2.148   2.046 -1.7088  0.3111  0.9931
 1818SOL    HW214189   1.797   2.237   1.910  2.1786 -0.5602 -0.0394
 1819SOL     OW14190   2.254   0.820   1.274 -0.1011  0.3559 -0.1937
 1819SOL    HW114191   2.313   0.741   1.261  0.6880  0.5859  1.7407
 1819SOL    HW214192   2.310   0.901   1.292 -0.9708  0.7220  0.9286
 1820SOL     OW14193   5.186   2.990   1.195 -1.1112 -0.1813  0.8252
 1820SOL    HW114194   5.226   2.946   1.275 -1.7775  0.7753  1.6959
 1820SOL    HW214195   5.259   3.033   1.141 -0.7356 -0.2309  1.2891
 1821SOL     OW14196   2.269   3.347   0.466  0.0981 -0.5751  0.5371
 1821SOL    HW114197   2.179   3.390   0.475 -0.0200 -1.1183  2.1198
 1821SOL    HW214198   2.338   3.403   0.512  0.4071 -0.6454  0.1599
 1822SOL     OW14199   1.883   6.231   0.380 -0.4881  0.4872 -0.2934
 1822SOL    HW114200   1.944   6.301   0.417  0.1825 -0.3262  0.1896
 1822SOL    HW214201   1.874   6.157   0.447 -2.2814  0.7425 -0.2242
 1823SOL     OW14202   3.231   8.258   0.328 -0.6923 -0.3731 -0.3461
 1823SOL    HW114203   3.309   8.312   0.362 -0.7174  0.0509 -0.9536
 1823SOL    HW214204   3.196   8.300   0.245 -0.1346 -1.8346 -1.3393
 1826SOL     OW14205   3.227   9.144   1.425 -0.6089  0.4052 -0.1981
 1826SOL    HW114206   3.296   9.159   1.495 -0.2925 -0.1943 -0.3832
 1826SOL    HW214207   3.265   9.087   1.352 -1.3048  0.0638 -0.2961
 1827SOL     OW14208   1.902   9.739   1.999 -0.4178 -0.2602 -0.3694
 1827SOL    HW114209   1.988   9.756   2.046 -1.4182 -0.5655  1.6497
 1827SOL    HW214210   1.901   9.789   1.912  1.4759  0.3370 -0.0724
 1828SOL     OW14211   4.047   4.037   0.881 -0.2297  0.5734 -0.2241
 1828SOL    HW114212   4.085   3.978   0.810  0.0461  0.3917  0.0729
 1828SOL    HW214213   4.029   3.982   0.963 -0.0842  0.8785  0.0133
 1829SOL     OW14214   3.223   4.307   1.216 -0.3217 -0.3341 -0.7718
 1829SOL    HW114215   3.287   4.363   1.270 -2.9124  1.7629  0.2586
 1829SOL    HW214216   3.257   4.298   1.123  1.1604  1.2926 -0.4132
 1830SOL     OW14217   2.400   9.915   1.302 -0.8091 -0.0518  0.0488
 1830SOL    HW114218   2.386   9.816   1.302  0.9978 -0.3143 -1.1017
 1830SOL    HW214219   2.421   9.947   1.210  1.0592  1.0460  0.8276
 1831SOL     OW14220   4.592   3.402   0.923 -0.4187  0.0067 -0.1281
 1831SOL    HW114221   4.624   3.482   0.973  0.7022 -1.3655  1.4301
 1831SOL    HW214222   4.671   3.349   0.891 -1.1388 -0.5276 -1.0320
 1832SOL     OW14223   3.006   5.698   0.977 -0.6554 -0.0211  0.3815
 1832SOL    HW114224   3.047   5.631   0.914  0.0565 -0.6198  1.4726
 1832SOL    HW214225   2.954   5.765   0.924  0.5210 -0.0958 -0.9265
 1833SOL     OW14226   3.234   4.598   0.986 -0.8984  0.0364 -0.3821
 1833SOL    HW114227   3.303   4.646   0.932 -0.5360 -2.4857 -2.2281
 1833SOL    HW214228   3.259   4.502   0.995 -2.5340 -0.2307  1.6911
 1834SOL     OW14229   3.389   1.212   1.476  0.1648 -0.3081 -0.0904
 1834SOL    HW114230   3.301   1.246   1.508 -0.0983 -0.9257 -0.1470
 1834SOL    HW214231   3.387   1.203   1.376  0.3887 -0.0541 -0.1193
 1835SOL     OW14232   4.242   2.505   0.339 -0.0622  0.0595 -0.3103
 1835SOL    HW114233   4.309   2.553   0.395 -0.2579 -0.3048  0.2361
 1835SOL    HW214234   4.205   2.427   0.390 -1.1217  0.4355 -0.5028
 1836SOL     OW14235   3.487   0.287   1.940  0.6044  0.0070  0.4079
 1836SOL    HW114236   3.444   0.241   1.863  1.5490 -1.2763  0.6351
 1836SOL    HW214237   3.575   0.244   1.960  1.1265  1.3836  1.1559
 1837SOL     OW14238   2.854   3.989   0.837 -0.0599 -0.4268 -0.4234
 1837SOL    HW114239   2.876   4.086   0.824  0.5388 -0.6710 -1.2951
 1837SOL    HW214240   2.772   3.981   0.893 -0.1664  0.5912 -0.4151
 1838SOL     OW14241   2.488   8.644   1.952  0.1028  0.1010 -0.5324
 1838SOL    HW114242   2.462   8.618   1.859  1.3186  0.6626 -1.0330
 1838SOL    HW214243   2.585   8.667   1.955 -0.3858  2.1873  0.4296
 1839SOL     OW14244   2.751   1.523   2.284  0.0070  0.4920  0.0076
 1839SOL    HW114245   2.747   1.623   2.279  0.8004  0.5457  0.3343
 1839SOL    HW214246   2.782   1.496   2.376 -0.9924 -0.0768  0.1814
 1840SOL     OW14247   2.180   3.337   1.722 -0.3775 -0.1935 -0.2705
 1840SOL    HW114248   2.201   3.308   1.629  0.4960 -0.0116 -0.1332
 1840SOL    HW214249   2.211   3.431   1.735  0.3372 -0.5320  0.4904
 1841SOL     OW14250   3.724   8.755   0.305  0.0034 -0.6601 -0.1096
 1841SOL    HW114251   3.741   8.853   0.295  0.2506 -0.6496  0.4335
 1841SOL    HW214252   3.809   8.705   0.289  0.4715 -0.6348  2.1112
 1842SOL     OW14253   4.515   4.050   1.246  0.2719 -0.1335  0.1851
 1842SOL    HW114254   4.579   4.002   1.307  0.3809  1.4370  1.3161
 1842SOL    HW214255   4.438   4.085   1.299  0.9337  2.2223 -0.3877
 1843SOL     OW14256   2.416   7.181   1.156 -0.0031 -0.3869  0.3599
 1843SOL    HW114257   2.466   7.109   1.107  0.3045 -0.0663  0.1989
 1843SOL    HW214258   2.466   7.267   1.147  0.3050 -0.4238  1.6479
 1845SOL     OW14259   2.085   6.935   0.465 -0.2847  0.4617 -0.3287
 1845SOL    HW114260   2.150   6.863   0.486  0.9173  1.7599  0.4902
 1845SOL    HW214261   2.113   6.982   0.380 -1.4534 -0.4740 -1.2535
 1847SOL     OW14262   2.719   2.147   2.066 -0.0651  0.6279  0.3569
 1847SOL    HW114263   2.776   2.158   2.148  0.4178 -0.7927  0.2320
 1847SOL    HW214264   2.756   2.202   1.992  0.3242  0.8152  0.6905
 1848SOL     OW14265   3.875   8.956   1.388  0.2066 -0.0021  0.3905
 1848SOL    HW114266   3.877   8.856   1.395 -2.6793 -0.3302 -1.9490
 1848SOL    HW214267   3.938   8.985   1.316  0.2306 -0.2804  0.2959
 1849SOL     OW14268   3.816   2.716   1.572  0.2389 -0.1845 -0.1621
 1849SOL    HW114269   3.880   2.708   1.648 -0.2287 -1.2294  0.1296
 1849SOL    HW214270   3.841   2.795   1.515  0.8298  0.3606  0.8415
 1851SOL     OW14271   4.479   4.048   1.844 -0.1970 -0.1731  0.4668
 1851SOL    HW114272   4.456   4.145   1.849 -1.1458 -0.1369 -3.2335
 1851SOL    HW214273   4.415   3.995   1.900 -1.2980  1.1015  0.4202
 1852SOL     OW14274   4.534   4.342   0.925  0.4791 -0.2411 -0.0696
 1852SOL    HW114275   4.530   4.242   0.917  1.7340 -0.1594 -2.1267
 1852SOL    HW214276   4.456   4.382   0.877  1.0558 -0.1747 -0.9592
 1853SOL     OW14277   3.975   4.306   1.220 -0.6949 -0.1710 -0.1699
 1853SOL    HW114278   3.894   4.250   1.239 -0.4483 -0.3470  0.3732
 1853SOL    HW214279   3.955   4.401   1.244 -0.4643 -0.3525  0.7711
 1854SOL     OW14280   2.700   0.722   2.106  0.1463  0.1690  0.3410
 1854SOL    HW114281   2.672   0.779   2.029  0.9760  0.2977  0.1360
 1854SOL    HW214282   2.669   0.628   2.092 -0.3431  0.3463  0.2059
 1855SOL     OW14283   4.579   2.535   1.722 -0.0015 -0.6908  0.1688
 1855SOL    HW114284   4.560   2.625   1.684 -0.0525 -0.9955 -0.5253
 1855SOL    HW214285   4.493   2.483   1.731 -0.0315 -0.5154  0.9759
 1856SOL     OW14286   5.047   1.660   0.452 -0.1046  0.3073 -0.0678
 1856SOL    HW114287   5.041   1.641   0.550  0.5569  0.3500 -0.0175
 1856SOL    HW214288   4.986   1.598   0.403  0.7291 -0.7728  0.2458
 1857SOL     OW14289   4.311   3.338   1.491 -0.2283  1.1041 -0.7554
 1857SOL    HW114290   4.251   3.280   1.436  1.9852 -1.1256 -0.9251
 1857SOL    HW214291   4.290   3.325   1.588  0.1812  0.0557 -0.8008
 1858SOL     OW14292   5.203   2.792   0.401  0.5117 -0.0354 -0.0387
 1858SOL    HW114293   5.104   2.778   0.396  0.6487 -0.5034 -2.2975
 1858SOL    HW214294   5.223   2.890   0.406 -0.0461  0.1197 -0.7366
 1859SOL     OW14295   2.589   3.865   0.520 -0.2290  0.3593 -0.3000
 1859SOL    HW114296   2.617   3.794   0.455  0.3086  0.2071  0.0930
 1859SOL    HW214297   2.604   3.833   0.613 -2.1585  0.0895 -0.0472
 1862SOL     OW14298   2.017   0.909   0.938  0.7318  0.4721 -0.0985
 1862SOL    HW114299   1.956   0.866   0.872  0.3265 -0.1661  0.6780
 1862SOL    HW214300   2.099   0.853   0.949  1.5467  1.4077 -1.2556
 1865SOL     OW14301   2.458   7.362   1.756  0.1459  0.0855  0.1774
 1865SOL    HW114302   2.511   7.380   1.839 -2.1926  1.0241  1.5119
 1865SOL    HW214303   2.388   7.294   1.775  0.0351 -0.2138 -1.2288
 1866SOL     OW14304   2.669   8.286   1.317  0.2795  0.1799  0.0566
 1866SOL    HW114305   2.583   8.238   1.303  0.2030  0.3121  0.0649
 1866SOL    HW214306   2.742   8.243   1.263  0.1154  0.3311 -0.2888
 1867SOL     OW14307   2.116   6.871   2.057  0.6683  0.0778  0.0724
 1867SOL    HW114308   2.211   6.877   2.025  0.3063 -1.9121 -1.5149
 1867SOL    HW214309   2.090   6.774   2.063 -1.8550  0.6365 -1.3592
 1869SOL     OW14310   2.170   5.914   1.391  0.0095  0.5058 -0.5675
 1869SOL    HW114311   2.212   5.919   1.482 -2.1195  0.1815  0.4636
 1869SOL    HW214312   2.169   5.819   1.359 -1.9726  0.1566  0.4333
 1870SOL     OW14313   1.984   1.755   1.065  0.4120 -0.8418 -0.0021
 1870SOL    HW114314   1.942   1.694   1.132  0.5238 -0.5385  0.3470
 1870SOL    HW214315   2.007   1.842   1.109 -1.8834  0.3426 -1.0310
 1871SOL     OW14316   3.888   1.383   0.749 -0.1132 -0.0262 -0.0069
 1871SOL    HW114317   3.803   1.436   0.745 -2.1783 -3.2520 -0.3723
 1871SOL    HW214318   3.910   1.362   0.845 -0.0681  0.2537  0.0451
 1872SOL     OW14319   3.853   0.881   1.759 -0.1038 -0.4302  0.3884
 1872SOL    HW114320   3.779   0.918   1.703 -0.1415 -1.3186 -0.1598
 1872SOL    HW214321   3.814   0.835   1.839 -0.1557 -1.0302  0.0207
 1874SOL     OW14322   2.931   5.065   2.311  0.0690  0.0410 -0.1353
 1874SOL    HW114323   2.863   5.092   2.243  0.7773  4.0492  0.6089
 1874SOL    HW214324   2.984   4.988   2.276 -1.1415  0.4763 -3.1153
 1875SOL     OW14325   3.362   3.058   0.558 -0.4973 -0.1373 -0.2481
 1875SOL    HW114326   3.459   3.034   0.563 -0.4950  0.0338  0.6196
 1875SOL    HW214327   3.352   3.157   0.573 -0.9257 -0.3782  1.1684
 1876SOL     OW14328   2.544   4.575   1.597  0.8831 -0.2708 -0.1645
 1876SOL    HW114329   2.496   4.494   1.631  1.2976 -0.9411 -1.1241
 1876SOL    HW214330   2.622   4.546   1.541  2.6347  0.8047  1.6785
 1879SOL     OW14331   3.796   3.169   0.749  0.2054  0.6947 -0.4997
 1879SOL    HW114332   3.702   3.142   0.771  0.6664  0.2852  1.0112
 1879SOL    HW214333   3.828   3.235   0.817  0.7159  1.5203 -1.5233
 1880SOL     OW14334   4.213   3.940   1.925 -0.2230 -0.8625  0.0143
 1880SOL    HW114335   4.179   3.875   1.992 -1.1516  0.7231  1.1182
 1880SOL    HW214336   4.153   3.941   1.845 -0.0319 -1.5750 -0.1369
 1882SOL     OW14337   2.064   7.594   2.216  0.0720 -0.3101 -0.0269
 1882SOL    HW114338   2.161   7.586   2.194 -0.4323 -0.1514 -2.4821
 1882SOL    HW214339   2.050   7.671   2.278  1.6100 -0.9102  1.0904
 1883SOL     OW14340   2.773   7.805   2.100 -0.0875 -0.1142  0.4813
 1883SOL    HW114341   2.844   7.833   2.035 -2.3028  0.5018 -1.7541
 1883SOL    HW214342   2.777   7.864   2.180  0.0093  1.8647 -0.9483
 1884SOL     OW14343   4.380   1.067   1.631 -0.6759  0.9855 -0.1404
 1884SOL    HW114344   4.351   1.122   1.553 -0.1921  2.2416  0.5475
 1884SOL    HW214345   4.436   1.123   1.692 -1.7347  0.2776  1.5301
 1885SOL     OW14346   4.086   3.624   1.538 -0.1166 -0.1188  0.5386
 1885SOL    HW114347   4.185   3.613   1.542 -0.1404 -0.1327  1.1947
 1885SOL    HW214348   4.055   3.620   1.443  0.1112 -3.6554  0.5528
 1886SOL     OW14349   3.373   5.790   2.187  0.1489 -0.9011  0.3794
 1886SOL    HW114350   3.331   5.869   2.143  1.3088 -0.4124  0.1240
 1886SOL    HW214351   3.332   5.775   2.277 -1.6899 -1.4255 -0.5364
 1887SOL     OW14352   2.569   2.250   1.311  0.2247 -0.5730  0.5050
 1887SOL    HW114353   2.570   2.305   1.227  0.2551 -3.0272 -1.1734
 1887SOL    HW214354   2.497   2.281   1.371  0.4936  1.5376 -0.2338
 1889SOL     OW14355   2.824   4.662   1.225  0.1217 -0.2950  0.2923
 1889SOL    HW114356   2.854   4.611   1.306  0.4036  2.6133  2.1407
 1889SOL    HW214357   2.803   4.756   1.252 -1.1452  0.3684 -2.8146
 1890SOL     OW14358   3.972   2.004   2.047  0.6551  0.3844  0.7041
 1890SOL    HW114359   4.072   1.996   2.056  0.9150 -0.0158 -2.1175
 1890SOL    HW214360   3.929   1.971   2.131  2.8471 -0.9653  1.3683
 1891SOL     OW14361   2.468   0.521   0.523  0.4047 -0.3601 -0.5491
 1891SOL    HW114362   2.499   0.590   0.457 -3.1647  3.0189  1.1301
 1891SOL    HW214363   2.495   0.548   0.615 -1.0384 -1.2486  0.1513
 1892SOL     OW14364   2.680   4.456   2.198  0.1936  0.4677  0.1742
 1892SOL    HW114365   2.727   4.544   2.201  0.4027  0.4183 -1.3693
 1892SOL    HW214366   2.727   4.391   2.258  1.2138  0.8417 -0.2104
 1893SOL     OW14367   3.943   8.608   2.087 -0.1677 -0.4200 -0.0066
 1893SOL    HW114368   3.945   8.706   2.108 -1.1682 -0.7066  1.4564
 1893SOL    HW214369   3.849   8.577   2.081  0.1474 -1.1146 -1.3590
 1894SOL     OW14370   2.623   2.627   1.975 -0.6577  0.0651 -0.0492
 1894SOL    HW114371   2.553   2.572   1.930  0.0475 -1.3548  0.5332
 1894SOL    HW214372   2.598   2.641   2.071  0.7975 -2.1982  0.7087
 1896SOL     OW14373   3.241   1.585   1.579  0.1070 -0.3895  0.7960
 1896SOL    HW114374   3.340   1.576   1.570  0.0736 -0.1247  0.1454
 1896SOL    HW214375   3.201   1.496   1.598  0.4038 -0.6038  0.4159
 1897SOL     OW14376   2.625   6.134   1.593 -1.3393  0.5212 -0.1112
 1897SOL    HW114377   2.717   6.095   1.582 -0.9442  1.4657 -0.1505
 1897SOL    HW214378   2.611   6.207   1.527 -1.8487  0.8941  0.4017
 1898SOL     OW14379   1.656   9.756   2.350 -0.2576  0.1418 -0.4387
 1898SOL    HW114380   1.602   9.766   2.434 -0.3057 -0.9761 -0.3276
 1898SOL    HW214381   1.749   9.786   2.367 -1.0493  2.9796 -0.8909
 1899SOL     OW14382   4.059   4.611   0.537  0.3910  0.2030  0.6354
 1899SOL    HW114383   3.976   4.660   0.563  0.3259  1.4651 -1.7335
 1899SOL    HW214384   4.137   4.674   0.540  0.8306 -0.3395  0.5295
 1900SOL     OW14385   4.413   3.690   1.117 -0.3346  0.1225  0.4523
 1900SOL    HW114386   4.510   3.707   1.097 -0.2186 -0.4761  0.4964
 1900SOL    HW214387   4.393   3.592   1.107 -0.3881 -0.1291  2.6682
 1901SOL     OW14388   2.590   2.708   1.486 -0.3454 -0.3990 -0.5038
 1901SOL    HW114389   2.573   2.710   1.388 -1.4060  0.4919 -0.3016
 1901SOL    HW214390   2.527   2.644   1.529 -0.9164  0.3538 -0.2082
 1903SOL     OW14391   5.015   3.461   0.746 -0.4557 -0.5368 -0.1217
 1903SOL    HW114392   4.935   3.517   0.763 -1.6901 -2.4609  0.6117
 1903SOL    HW214393   5.060   3.440   0.833 -0.5357 -1.4355 -0.2944
 1904SOL     OW14394   2.339   0.783   1.923  0.6116 -0.2299 -0.1802
 1904SOL    HW114395   2.366   0.687   1.928 -0.1463 -0.4916 -0.8215
 1904SOL    HW214396   2.302   0.812   2.011  0.7301 -0.5695 -0.0187
 1906SOL     OW14397   3.939   1.998   0.865  0.6108 -0.0130  0.7759
 1906SOL    HW114398   4.016   2.016   0.804  0.4580  0.0506  0.6012
 1906SOL    HW214399   3.968   2.008   0.960  0.3487  1.9029  0.6760
 1907SOL     OW14400   2.320   1.884   1.643  0.5382 -0.3147 -0.4035
 1907SOL    HW114401   2.371   1.961   1.604  0.7807 -0.4095 -0.2716
 1907SOL    HW214402   2.377   1.836   1.709 -0.8555  1.6941  2.3945
 1908SOL     OW14403   2.271   0.337   0.476 -0.1780  0.1031  0.1339
 1908SOL    HW114404   2.336   0.411   0.491  0.0905 -0.2253  0.5838
 1908SOL    HW214405   2.317   0.249   0.483 -0.2580 -0.0868 -1.5985
 1911SOL     OW14406   4.168   2.297   1.119  0.5435 -0.2831  0.2778
 1911SOL    HW114407   4.196   2.267   1.027  0.4011 -0.6686  0.3590
 1911SOL    HW214408   4.136   2.218   1.171  0.2863 -0.0057  0.5406
 1912SOL     OW14409   2.443   4.053   2.271  0.1046  0.3920 -0.4989
 1912SOL    HW114410   2.536   4.025   2.295  0.4164  2.1611  0.4091
 1912SOL    HW214411   2.405   4.109   2.345 -0.7518  1.7864 -1.9770
 1913SOL     OW14412   4.750   2.455   1.908 -0.4808 -0.5811  0.6360
 1913SOL    HW114413   4.813   2.393   1.862 -0.1494 -0.5374  1.0368
 1913SOL    HW214414   4.689   2.497   1.840 -1.2091 -1.9140  0.4549
 1915SOL     OW14415   3.604   1.799   1.578 -0.3033  0.3767  0.1031
 1915SOL    HW114416   3.654   1.761   1.656  2.3301 -0.9425 -2.1742
 1915SOL    HW214417   3.617   1.899   1.576 -2.2718  0.7356  2.6088
 1916SOL     OW14418   2.011   6.598   0.682  0.5185  0.0154  0.6531
 1916SOL    HW114419   1.948   6.674   0.667  0.6246 -0.3143 -1.5712
 1916SOL    HW214420   2.080   6.626   0.749  1.2720  2.3530 -1.0241
 1918SOL     OW14421   2.458   8.303   1.637  0.6191  0.1551  0.5031
 1918SOL    HW114422   2.555   8.278   1.641  0.5481 -0.1643  0.1649
 1918SOL    HW214423   2.410   8.265   1.716  0.8012  0.4663  0.7688
 1919SOL     OW14424   3.741   8.487   1.106  0.0912  0.4562 -0.5747
 1919SOL    HW114425   3.665   8.478   1.171  0.1427  1.0334 -0.4305
 1919SOL    HW214426   3.713   8.451   1.017 -0.6474  1.4148 -0.7491
 1920SOL     OW14427   2.819   4.900   1.363 -1.0591  0.2976  0.0370
 1920SOL    HW114428   2.903   4.952   1.378 -0.3109 -0.8344 -0.1278
 1920SOL    HW214429   2.774   4.884   1.451 -0.9463  0.6474  0.1606
 1921SOL     OW14430   3.698   4.961   1.560 -0.1918  0.7587  0.0295
 1921SOL    HW114431   3.611   5.008   1.571  0.4732  1.7725  1.0308
 1921SOL    HW214432   3.688   4.865   1.587 -1.4237  0.4220 -1.5444
 1922SOL     OW14433   3.461   7.378   0.663  0.0232 -0.3595  0.2830
 1922SOL    HW114434   3.404   7.460   0.653  1.0574  0.2363 -0.9224
 1922SOL    HW214435   3.414   7.300   0.621 -0.3087 -0.0648  0.1035
 1923SOL     OW14436   4.538   2.172   2.006 -0.6200  0.0241  0.4167
 1923SOL    HW114437   4.604   2.171   2.081  0.8177  1.4688 -0.7982
 1923SOL    HW214438   4.510   2.266   1.988  1.0720  0.0114 -2.5574
 1925SOL     OW14439   3.005   4.616   1.607 -0.1086 -0.7561  0.0489
 1925SOL    HW114440   3.054   4.692   1.565  1.2161 -1.4352  0.3595
 1925SOL    HW214441   3.019   4.618   1.706 -0.9268 -0.8033  0.1699
 1926SOL     OW14442   2.330   9.266   2.056  0.5167 -0.3139 -0.3638
 1926SOL    HW114443   2.255   9.209   2.090  1.8367 -1.4875  0.6412
 1926SOL    HW214444   2.351   9.241   1.962  0.6616 -1.0357 -0.1405
 1927SOL     OW14445   3.160   3.672   1.732  0.7090  0.4095 -0.0715
 1927SOL    HW114446   3.158   3.605   1.807  1.2971  0.7775  0.2760
 1927SOL    HW214447   3.255   3.691   1.707  0.5340  0.9236 -0.3431
  10.00000  10.00000   2.84800
