chitosan Film  in water:acetic acid 2%
10223
    1CHTO  H203    1   3.788   5.333   0.217  0.8402 -0.5527  0.7784
    1CHTO   O82    2   3.865   5.321   0.166  0.5908 -0.4645  0.3780
    1CHTO  C123    3   3.968   5.403   0.211 -0.5611 -0.5987 -0.2880
    1CHTO  H227    4   3.928   5.501   0.241 -1.1783 -1.1124  0.6106
    1CHTO   O77    5   4.022   5.331   0.331  0.2728  0.1536 -0.8302
    1CHTO  C118    6   4.139   5.398   0.384 -0.7051 -0.2431  0.0130
    1CHTO  H222    7   4.114   5.502   0.409 -0.7297 -0.1465 -0.4102
    1CHTO  C125    8   4.179   5.315   0.507 -0.0748  0.2363 -0.1240
    1CHTO   O84    9   4.283   5.369   0.591  0.3369 -0.2817  0.6228
    1CHTO  H205   10   4.315   5.308   0.654  0.9430 -0.8322 -0.2180
    1CHTO  C114   11   4.260   5.391   0.291 -0.2647 -0.5182  0.3218
    1CHTO  H218   12   4.282   5.286   0.270  2.0426  0.3643 -1.9556
    1CHTO  C116   13   4.220   5.458   0.154  0.5861 -0.8304  0.3282
    1CHTO  H220   14   4.215   5.566   0.177  2.0691 -0.1480 -2.4189
    1CHTO   O79   15   4.322   5.427   0.058  0.4443  0.3398  0.4651
    1CHTO  H201   16   4.361   5.342   0.068  2.5278  1.3194  1.0153
    1CHTO  C120   17   4.084   5.413   0.095  0.3309  0.4734  0.0496
    1CHTO  H224   18   4.103   5.307   0.069  1.1208  0.3955  0.9230
    1CHTO   N21   19   4.037   5.490  -0.027  0.2839  0.3087  0.8425
    1CHTO  H211   20   4.065   5.448  -0.122  0.2497  0.0210  0.9590
    1CHTO  H212   21   3.936   5.528  -0.022 -0.1845 -1.1002  2.6851
    1CHTO   O75   22   4.372   5.458   0.356 -0.0950  0.7167  0.0964
    1CHTO  C112   23   4.509   5.378   0.321 -0.0541  0.1062 -0.5813
    1CHTO  H216   24   4.519   5.357   0.213  0.5621 -0.4508 -0.4215
    1CHTO   O73   25   4.504   5.256   0.399 -0.6072 -0.4050  0.0707
    1CHTO  C113   26   4.624   5.179   0.391  0.5908  0.0450 -0.3299
    1CHTO  H217   27   4.644   5.163   0.283 -2.2029 -3.0364 -0.4770
    1CHTO  C124   28   4.610   5.041   0.445  0.3807  0.0769 -0.5260
    1CHTO   O83   29   4.602   5.019   0.585  0.2851 -0.2841 -0.5889
    1CHTO  H204   30   4.516   4.985   0.599  0.7377 -0.9504  0.6472
    1CHTO  C109   31   4.746   5.247   0.451 -0.4175 -0.1477  0.6599
    1CHTO  H213   32   4.733   5.249   0.560 -0.9715 -1.4606  0.6187
    1CHTO  C110   33   4.765   5.386   0.383  0.8425 -0.1413 -0.0215
    1CHTO  H214   34   4.813   5.369   0.287 -0.8784 -0.5832 -0.8205
    1CHTO   O78   35   4.863   5.453   0.457  0.0222  0.8606  0.1618
    1CHTO  H200   36   4.896   5.524   0.405  2.0218 -0.0285  0.2023
    1CHTO  C111   37   4.630   5.469   0.379 -0.1042  0.5272 -0.9048
    1CHTO  H215   38   4.602   5.509   0.477  0.8607 -0.6333 -0.1460
    1CHTO   N19   39   4.648   5.584   0.293  0.1451  0.0955 -0.5865
    1CHTO  H207   40   4.595   5.665   0.341 -0.2784 -1.1838  1.1446
    1CHTO  H208   41   4.593   5.573   0.201  1.6294 -0.4693 -1.4383
    1CHTO   O74   42   4.871   5.175   0.419  0.1484  0.0264  0.4102
    1CHTO  C115   43   4.979   5.166   0.550  0.5470 -0.9460 -0.3573
    1CHTO  H219   44   4.971   5.251   0.617  2.1995 -0.6830 -0.4755
    1CHTO   O76   45   4.949   5.035   0.641 -0.0112 -0.4704  0.2780
    1CHTO  C122   46   4.960   4.912   0.578 -0.1363 -0.3226  0.5930
    1CHTO  H226   47   4.872   4.901   0.515 -0.6623  1.8344  0.9091
    1CHTO  C126   48   4.954   4.796   0.689 -0.1035 -0.5066  0.2994
    1CHTO   O85   49   4.958   4.667   0.631  0.1477 -0.1289  0.1297
    1CHTO  H206   50   4.945   4.681   0.539 -2.2313  1.4878  0.6528
    1CHTO  C121   51   5.094   4.906   0.492  0.1373  0.4070  0.7138
    1CHTO  H225   52   5.143   4.810   0.519 -2.6851 -1.3982 -0.3166
    1CHTO   O81   53   5.073   4.908   0.355 -0.1174  0.3228 -0.4651
    1CHTO  H202   54   5.150   4.905   0.302  0.8544 -1.4533  0.9903
    1CHTO  C119   55   5.186   5.018   0.531 -0.2122  0.5355  0.6514
    1CHTO  H223   56   5.198   5.008   0.639 -1.0136 -2.7251  0.4774
    1CHTO  C117   57   5.121   5.157   0.490 -0.1538 -0.7408 -0.1049
    1CHTO  H221   58   5.103   5.183   0.386 -1.4837  1.3184  0.6186
    1CHTO   N20   59   5.197   5.273   0.551 -0.6133  0.5119  0.0993
    1CHTO  H209   60   5.294   5.283   0.506 -0.4601  0.1693  0.3503
    1CHTO  H210   61   5.197   5.265   0.659 -1.5034  0.4999  0.1055
    1CHTO   O80   62   5.326   4.998   0.474 -0.0386 -0.0766  0.1442
    1CHTO  C103   63   5.435   4.948   0.567 -0.3628 -0.1538 -0.5057
    1CHTO  H190   64   5.452   5.015   0.650 -0.4158 -1.0125  0.2081
    1CHTO  C101   65   5.414   4.799   0.624 -0.4005 -0.0832  0.0052
    1CHTO  H188   66   5.380   4.737   0.541 -1.5008  1.1933 -0.5096
    1CHTO   O68   67   5.301   4.819   0.746  0.1430  0.1517 -0.2576
    1CHTO  H168   68   5.229   4.879   0.740 -1.5354 -1.7705  0.2396
    1CHTO   C99   69   5.547   4.728   0.679 -0.6775  0.4390 -0.5924
    1CHTO  H186   70   5.588   4.791   0.761 -1.3817 -0.3179  0.3567
    1CHTO   N17   71   5.525   4.589   0.731 -0.2303 -0.2884 -0.0857
    1CHTO  H174   72   5.424   4.556   0.716 -0.8040  0.9462  1.0043
    1CHTO  H175   73   5.556   4.573   0.833 -1.3955  2.3467  0.7113
    1CHTO   C97   74   5.652   4.733   0.568 -0.1875 -0.1840  0.2535
    1CHTO  H184   75   5.611   4.679   0.482 -0.4453 -0.5617  0.6073
    1CHTO   O64   76   5.673   4.871   0.538 -0.2769  0.4646 -0.1427
    1CHTO  C104   77   5.562   4.943   0.478 -0.4102  1.0847  0.1054
    1CHTO  H191   78   5.540   4.892   0.385  1.2813  1.6313 -0.6207
    1CHTO  C108   79   5.624   5.077   0.436 -0.3566 -0.5077  0.2706
    1CHTO   O71   80   5.714   5.069   0.326 -0.0790 -0.3912 -0.0736
    1CHTO  H171   81   5.696   5.133   0.259 -0.5130 -1.5565 -1.0847
    1CHTO   O62   82   5.785   4.673   0.601 -0.1875  0.8141  0.3741
    1CHTO   C91   83   5.885   4.650   0.491  0.9046 -0.1050 -0.5739
    1CHTO  H178   84   5.857   4.723   0.416 -1.0824 -1.5942 -1.3129
    1CHTO   C92   85   5.868   4.509   0.431 -0.2441 -0.2072  0.4983
    1CHTO  H179   86   5.865   4.436   0.512  0.3620 -2.8164 -1.7630
    1CHTO   O66   87   5.736   4.503   0.374 -0.0666 -0.0869  0.0976
    1CHTO  H166   88   5.681   4.432   0.400 -0.9528  0.7334  0.4916
    1CHTO   C93   89   5.980   4.469   0.327  0.5005 -0.4028  0.1547
    1CHTO  H180   90   5.971   4.532   0.237  3.6888 -1.0990 -0.7338
    1CHTO   N16   91   5.975   4.325   0.285 -0.7658  0.3692  0.6227
    1CHTO  H172   92   5.893   4.272   0.332 -2.7410  2.0637 -0.8052
    1CHTO  H173   93   5.963   4.317   0.177 -1.4800  1.2735  0.6314
    1CHTO   C94   94   6.119   4.506   0.395 -0.2742  0.2164 -0.3492
    1CHTO  H181   95   6.140   4.446   0.484  1.2943  1.6146  0.2572
    1CHTO   O61   96   6.129   4.637   0.437  0.4651 -1.0113  0.3361
    1CHTO   C95   97   6.029   4.673   0.532  0.1057  0.2807 -0.1271
    1CHTO  H182   98   6.044   4.615   0.623  0.0526  0.0213 -0.2810
    1CHTO  C106   99   6.061   4.830   0.577 -0.5346 -0.5907 -0.3298
    1CHTO   O69  100   6.195   4.846   0.621 -0.0623 -0.2195 -0.0035
    1CHTO  H169  101   6.191   4.859   0.714  2.0178 -1.4288  0.2618
    1CHTO   O63  102   6.230   4.481   0.270 -0.0113 -0.4046  0.0511
    1CHTO   C96  103   6.389   4.517   0.320 -0.0363  0.0497  0.1764
    1CHTO  H183  104   6.375   4.620   0.353  1.7394 -0.1696  1.7157
    1CHTO   C98  105   6.498   4.503   0.210 -0.1513 -0.3540 -0.0557
    1CHTO  H185  106   6.471   4.560   0.121 -2.0359 -0.6815  0.2819
    1CHTO   O67  107   6.623   4.560   0.257  0.2696  0.0950 -0.3829
    1CHTO  H167  108   6.645   4.535   0.345 -2.2952  0.5565  0.4285
    1CHTO  C102  109   6.522   4.344   0.167 -0.4230 -0.3665  0.3286
    1CHTO  H189  110   6.621   4.343   0.120 -0.8402  0.0705 -0.5813
    1CHTO   N18  111   6.430   4.284   0.070 -0.3868  0.0116  0.1791
    1CHTO  H176  112   6.432   4.319  -0.033  0.2503  2.3470  0.9594
    1CHTO  H177  113   6.437   4.176   0.076 -0.1043  0.1025  1.5819
    1CHTO  C105  114   6.535   4.262   0.297  0.6833 -0.4104  0.3110
    1CHTO  H192  115   6.508   4.158   0.275  1.5215 -0.7270  0.7739
    1CHTO   O65  116   6.444   4.296   0.408 -0.1042 -0.0592  0.2086
    1CHTO  C100  117   6.429   4.435   0.443 -0.3493 -0.5939 -0.3461
    1CHTO  H187  118   6.340   4.438   0.508  0.7840 -0.4158  1.2356
    1CHTO  C107  119   6.545   4.494   0.525 -0.6168 -0.4483  0.5290
    1CHTO   O70  120   6.573   4.425   0.649 -0.3209  0.1054  0.7777
    1CHTO  H170  121   6.601   4.337   0.633  1.3116  0.5192  1.2612
    1CHTO   O57  122   6.699   4.274   0.343  0.1826 -0.1649  0.2775
    1CHTO   C85  123   6.784   4.164   0.315  0.1980  0.1790  0.0538
    1CHTO  H157  124   6.752   4.105   0.226  1.4396  0.4186 -0.5602
    1CHTO   C83  125   6.783   4.069   0.437  0.2324 -0.6298  0.4786
    1CHTO  H155  126   6.679   4.034   0.440  0.2800 -0.6815  1.6036
    1CHTO   O56  127   6.805   4.141   0.555  0.5565  0.0460  0.2491
    1CHTO  H135  128   6.733   4.196   0.580 -0.9826 -1.7140 -0.2034
    1CHTO   C81  129   6.885   3.946   0.422  1.0569 -0.3725 -0.3820
    1CHTO  H153  130   6.851   3.888   0.336  0.1250  0.7370 -0.7832
    1CHTO   N14  131   6.872   3.845   0.530 -0.6750 -0.1589  0.5121
    1CHTO  H141  132   6.931   3.868   0.616  1.8938  0.6544 -1.3899
    1CHTO  H142  133   6.894   3.748   0.491 -0.9075 -0.3473  0.8548
    1CHTO   C79  134   7.027   3.998   0.397  0.1083  0.4351  0.1955
    1CHTO  H151  135   7.089   3.912   0.372  2.2303  2.2282 -0.9280
    1CHTO   O52  136   7.021   4.093   0.286  0.0283 -0.0920  0.1189
    1CHTO   C86  137   6.930   4.204   0.304 -0.1158  0.4517  0.0223
    1CHTO  H158  138   6.975   4.255   0.392 -1.4888 -0.3468  1.2044
    1CHTO   C90  139   6.940   4.306   0.193 -0.1237  0.2812  0.5787
    1CHTO   O60  140   7.050   4.388   0.179 -0.5385 -0.6128  0.3507
    1CHTO  H138  141   7.030   4.470   0.138  1.6585  0.3178  1.0689
    1CHTO   O50  142   7.095   4.058   0.509 -0.3563  0.0520 -0.5427
    1CHTO   C73  143   7.220   4.065   0.576  0.0481  0.0254 -0.6528
    1CHTO  H145  144   7.306   4.019   0.525  0.7862  0.1514  0.4486
    1CHTO   C74  145   7.199   3.989   0.716 -0.0125 -0.1865 -0.4350
    1CHTO  H146  146   7.173   3.883   0.697  0.4512 -0.0570 -1.8373
    1CHTO   O54  147   7.323   3.976   0.784  0.1595 -0.2835 -0.4643
    1CHTO  H133  148   7.317   3.925   0.863 -1.4724  0.3275 -0.1862
    1CHTO   C75  149   7.092   4.062   0.803 -0.2763  0.6949 -0.1312
    1CHTO  H147  150   6.997   4.066   0.748 -0.5649 -1.6559  0.1161
    1CHTO   N13  151   7.071   3.998   0.935 -0.5831 -0.1043  0.3064
    1CHTO  H139  152   7.014   3.907   0.923  2.9151 -2.0606 -2.1847
    1CHTO  H140  153   7.014   4.063   1.000  0.7162 -0.7798  2.1750
    1CHTO   C76  154   7.135   4.217   0.820  0.0884 -0.3983  0.5006
    1CHTO  H148  155   7.223   4.223   0.884 -0.1887 -0.9049  0.9317
    1CHTO   O49  156   7.154   4.278   0.689  0.3162  0.0442  0.0068
    1CHTO   C77  157   7.255   4.214   0.604 -0.0696 -0.2031 -0.5559
    1CHTO  H149  158   7.354   4.218   0.648 -0.4764 -1.4857  0.5004
    1CHTO   C88  159   7.264   4.292   0.474  0.4207 -0.2176  0.4512
    1CHTO   O58  160   7.391   4.231   0.380  0.1719 -0.1552 -0.2211
    1CHTO  H136  161   7.369   4.140   0.371 -1.4814  0.4633 -3.2006
    1CHTO   O51  162   7.009   4.296   0.876  1.0092  0.4779 -0.7204
    1CHTO   C78  163   7.055   4.442   0.909 -0.1012  0.4506 -0.0948
    1CHTO  H150  164   7.154   4.459   0.861  0.4781  0.4689  1.0918
    1CHTO   C80  165   7.074   4.445   1.064 -0.5421 -0.2123 -0.3322
    1CHTO  H152  166   6.980   4.413   1.113 -1.4761  0.0323 -1.9366
    1CHTO   O55  167   7.188   4.360   1.094  0.0024 -0.2670 -0.3780
    1CHTO  H134  168   7.261   4.386   1.042  0.4023  0.4355  0.5077
    1CHTO   C84  169   7.105   4.594   1.115  0.7975 -0.0314 -0.4769
    1CHTO  H156  170   7.200   4.618   1.067  0.6172 -0.1107 -0.8695
    1CHTO   N15  171   7.119   4.605   1.264 -0.3621 -0.2368  0.4242
    1CHTO  H143  172   7.030   4.648   1.304 -0.7271 -0.8349  0.2633
    1CHTO  H144  173   7.206   4.662   1.290 -1.0063  0.7119  0.5328
    1CHTO   C87  174   6.997   4.683   1.058  0.0162  0.3779  1.1913
    1CHTO  H159  175   6.899   4.651   1.093 -1.0324  0.9095 -1.1528
    1CHTO   O53  176   6.996   4.670   0.894 -0.0580  0.0534  0.1514
    1CHTO   C82  177   6.962   4.541   0.850  0.0393 -0.5268  0.1355
    1CHTO  H154  178   6.863   4.523   0.893  0.4705  0.8522  1.7627
    1CHTO   C89  179   6.945   4.536   0.695  0.0972 -0.1471 -0.2973
    1CHTO   O59  180   6.904   4.408   0.649  0.0704 -0.3059 -0.3146
    1CHTO  H137  181   6.953   4.397   0.570  1.0578  1.0231  0.1026
    1CHTO   O45  182   7.017   4.837   1.100 -0.0085 -0.0717  0.3034
    1CHTO   C67  183   6.902   4.921   1.107  1.1649 -0.0988 -0.2636
    1CHTO  H124  184   6.938   5.022   1.129  0.3703  0.2698 -0.6436
    1CHTO   C65  185   6.818   4.931   0.970  0.3006  0.6375  0.3723
    1CHTO  H122  186   6.822   4.836   0.917 -1.4139 -0.3499  1.9458
    1CHTO   O44  187   6.888   5.024   0.886 -0.0021  0.3287 -0.0776
    1CHTO  H102  188   6.847   5.027   0.802  0.1914  0.2544 -0.1746
    1CHTO   C63  189   6.658   4.953   0.997 -0.4371  0.1721  0.3966
    1CHTO  H120  190   6.611   4.861   1.032 -0.4915  0.1426  0.2434
    1CHTO   N11  191   6.588   4.985   0.870  0.8482 -0.3647 -0.6312
    1CHTO  H108  192   6.483   4.961   0.872  0.5269  1.0047 -0.9380
    1CHTO  H109  193   6.613   5.084   0.838 -0.3197  0.0163 -0.4054
    1CHTO   C61  194   6.636   5.043   1.123  0.2111 -0.0992  0.2796
    1CHTO  H118  195   6.528   5.049   1.140  0.6660 -1.3998  4.1320
    1CHTO   O40  196   6.692   4.992   1.238 -0.4407 -0.5115  0.2634
    1CHTO   C68  197   6.794   4.885   1.219 -1.1019 -0.1372 -0.1561
    1CHTO  H125  198   6.744   4.792   1.186 -0.1657 -1.6920  2.6497
    1CHTO   C72  199   6.865   4.855   1.349 -0.4814  0.5049 -0.0807
    1CHTO   O48  200   6.917   4.970   1.415  0.1608 -0.2877  0.2379
    1CHTO  H105  201   7.011   4.970   1.409  0.2240  0.6718  1.0227
    1CHTO   O38  202   6.693   5.172   1.112  0.0484  0.2971 -0.1236
    1CHTO   C55  203   6.618   5.283   1.148 -0.3271  0.4373 -0.2214
    1CHTO  H112  204   6.564   5.266   1.243 -1.9382  2.5848 -0.7066
    1CHTO   C56  205   6.514   5.317   1.028  0.7186  0.2504  0.0107
    1CHTO  H113  206   6.573   5.302   0.936 -0.1384 -0.3038 -0.4632
    1CHTO   O42  207   6.412   5.213   1.023  0.1485  0.4808  0.5710
    1CHTO  H100  208   6.456   5.134   0.998  2.0124  1.1600  1.6067
    1CHTO   C57  209   6.447   5.460   1.041  0.0586 -0.2763  0.2111
    1CHTO  H114  210   6.388   5.458   1.132  1.1401  0.7901  0.9632
    1CHTO   N10  211   6.372   5.492   0.916  0.1322 -0.5445 -0.0803
    1CHTO  H106  212   6.419   5.460   0.824 -1.1856 -0.4450 -0.7979
    1CHTO  H107  213   6.274   5.447   0.918 -0.9226  1.3681 -3.7179
    1CHTO   C58  214   6.565   5.559   1.057  0.0266  0.2163 -0.4662
    1CHTO  H115  215   6.628   5.556   0.966 -0.7798 -1.5218 -0.9987
    1CHTO   O37  216   6.640   5.525   1.175 -0.4970  0.2381 -0.6043
    1CHTO   C59  217   6.715   5.407   1.160  0.2827 -0.5686  0.4394
    1CHTO  H116  218   6.775   5.418   1.070  0.5620  0.1047  0.6989
    1CHTO   C70  219   6.805   5.388   1.279 -0.7578 -0.0178 -1.0203
    1CHTO   O46  220   6.908   5.485   1.281 -0.7116  0.0267  0.1162
    1CHTO  H103  221   6.983   5.444   1.320 -0.3200  0.6849  0.0723
    1CHTO   O39  222   6.506   5.701   1.083  0.3832 -0.2127 -0.1062
    1CHTO   C60  223   6.602   5.804   1.118 -0.2942  0.1648  0.2294
    1CHTO  H117  224   6.631   5.791   1.222  2.1533 -0.2588 -0.4882
    1CHTO   C62  225   6.739   5.804   1.037 -0.0388 -0.0187 -0.5599
    1CHTO  H119  226   6.788   5.713   1.078 -0.2140  0.8479  1.6310
    1CHTO   O43  227   6.705   5.797   0.893 -0.3524 -0.1340  0.1990
    1CHTO  H101  228   6.682   5.709   0.869 -0.9623 -0.0960  0.6503
    1CHTO   C66  229   6.828   5.926   1.084 -0.2948  0.0464 -0.5764
    1CHTO  H123  230   6.845   5.920   1.192 -0.8238 -1.3564 -0.5644
    1CHTO   N12  231   6.964   5.927   1.016  0.0586 -0.9837 -0.7654
    1CHTO  H110  232   7.033   6.001   1.053 -0.4272 -1.7199  1.7281
    1CHTO  H111  233   7.010   5.832   1.035  1.0189 -0.1978  0.9926
    1CHTO   C69  234   6.746   6.056   1.056 -0.1565 -0.0672 -0.3984
    1CHTO  H126  235   6.702   6.053   0.954  0.3475 -3.6663 -0.5835
    1CHTO   O41  236   6.638   6.060   1.155  0.3158  0.1205 -0.4296
    1CHTO   C64  237   6.531   5.940   1.110  0.2726 -0.0055 -0.1501
    1CHTO  H121  238   6.505   5.967   1.006 -3.1507  1.7257  1.0842
    1CHTO   C71  239   6.410   5.937   1.212  0.0421 -0.0848  0.1940
    1CHTO   O47  240   6.343   6.057   1.210  0.2985  0.0427  0.3748
    1CHTO  H104  241   6.323   6.077   1.121 -0.1199 -1.0737  0.2086
    1CHTO   O34  242   6.834   6.190   1.064 -0.4617  0.1416  0.7289
    1CHTO   C49  243   6.814   6.294   0.969 -0.6667 -0.0184 -0.5086
    1CHTO   H91  244   6.739   6.276   0.892 -1.2019 -0.4478  0.1169
    1CHTO   C47  245   6.955   6.317   0.910 -0.0995  0.2437  0.3608
    1CHTO   H89  246   6.941   6.403   0.841  1.0821 -0.4984 -0.8155
    1CHTO   O33  247   6.998   6.202   0.838 -0.3904 -0.1454 -0.3342
    1CHTO   H70  248   7.052   6.227   0.765 -1.3639 -0.5118 -1.1872
    1CHTO   C45  249   7.060   6.367   1.024  0.3503  0.3241 -0.8609
    1CHTO   H87  250   7.069   6.287   1.099  0.3883  0.3771 -0.8086
    1CHTO    N8  251   7.195   6.388   0.961 -0.5318  0.5980 -0.4238
    1CHTO   H75  252   7.220   6.301   0.902 -2.2277  0.2468 -0.6599
    1CHTO   H76  253   7.270   6.396   1.038 -0.1828  0.1679 -0.7221
    1CHTO   C43  254   7.002   6.495   1.099  0.3606  0.2410  0.6468
    1CHTO   H85  255   7.069   6.507   1.184  0.4491 -2.4298  1.0171
    1CHTO   O29  256   6.871   6.469   1.141  0.1781 -0.3117 -0.3144
    1CHTO   C50  257   6.771   6.423   1.049 -0.4499 -0.1088 -0.1335
    1CHTO   H92  258   6.684   6.395   1.110 -0.0816  0.1818  0.5314
    1CHTO   C54  259   6.723   6.538   0.955 -0.2591 -0.4432 -0.2235
    1CHTO   O36  260   6.603   6.508   0.880 -0.0046  0.0105 -0.0922
    1CHTO   H72  261   6.535   6.554   0.926 -0.5723 -2.2644  1.4616
    1CHTO   O27  262   7.007   6.615   1.021  0.4079 -0.3095  0.1215
    1CHTO   C37  263   7.038   6.739   1.093  0.5362 -0.4927  0.3382
    1CHTO   H79  264   7.037   6.728   1.203  0.4512  1.0426  0.4949
    1CHTO   C38  265   7.182   6.797   1.049 -0.6110 -0.0476  0.0103
    1CHTO   H80  266   7.259   6.720   1.068  1.5121  1.6916 -1.3592
    1CHTO   O31  267   7.220   6.906   1.131 -0.1763  0.4773  0.2487
    1CHTO   H68  268   7.306   6.896   1.168  0.3954  1.7922 -0.7039
    1CHTO   C39  269   7.188   6.850   0.903  0.0035 -0.1676  0.4112
    1CHTO   H81  270   7.253   6.937   0.906 -1.5285  1.0342 -0.3562
    1CHTO    N7  271   7.249   6.757   0.800 -0.7698 -0.0069 -0.2547
    1CHTO   H73  272   7.198   6.662   0.794  2.1907 -1.7660  0.9690
    1CHTO   H74  273   7.357   6.746   0.795 -0.7405  0.7826 -1.7069
    1CHTO   C40  274   7.044   6.890   0.849  0.0835 -0.3232  0.4654
    1CHTO   H82  275   6.996   6.808   0.795 -0.0536  0.8753 -1.2593
    1CHTO   O26  276   6.961   6.938   0.953  0.4158 -0.3120 -0.0941
    1CHTO   C41  277   6.928   6.842   1.054  0.1564 -0.1534  0.5786
    1CHTO   H83  278   6.841   6.783   1.021 -0.6235  1.3065  0.0083
    1CHTO   C52  279   6.875   6.915   1.177 -0.7038  0.4244 -0.1670
    1CHTO   O35  280   6.831   6.823   1.288  0.1149  0.6843  0.1679
    1CHTO   H71  281   6.882   6.746   1.306  0.5833  0.6786 -1.1543
    1CHTO   O28  282   7.039   7.001   0.754  0.1635  0.2245 -0.0645
    1CHTO   C42  283   6.997   6.981   0.610  0.1834  0.7604 -0.5393
    1CHTO   H84  284   7.006   6.873   0.594 -0.0577  0.5910  0.4573
    1CHTO   C44  285   7.098   7.050   0.508 -0.0220  0.5982  0.1603
    1CHTO   H86  286   7.097   7.158   0.522  1.0912  0.4053  1.9305
    1CHTO   O32  287   7.228   6.994   0.537 -0.0089  0.1014 -0.2386
    1CHTO   H69  288   7.255   7.010   0.625 -1.5538  0.5919  0.1768
    1CHTO   C48  289   7.058   7.007   0.363  1.0434 -0.0312  0.1599
    1CHTO   H90  290   7.081   6.900   0.363  1.9263  0.1504  0.3416
    1CHTO    N9  291   7.132   7.073   0.246  0.4243  0.8922 -0.1060
    1CHTO   H77  292   7.097   7.044   0.149  0.8124 -1.4678  0.4349
    1CHTO   H78  293   7.124   7.181   0.252  1.5031  0.9777 -0.0654
    1CHTO   C51  294   6.902   7.028   0.336 -0.2547 -0.1054 -0.6048
    1CHTO   H93  295   6.892   7.136   0.325  1.4333  0.0134 -1.1646
    1CHTO   O30  296   6.820   6.979   0.443 -0.4673  0.7476 -0.1266
    1CHTO   C46  297   6.846   7.017   0.582  0.3732 -0.0592 -0.2610
    1CHTO   H88  298   6.828   7.123   0.599  1.3665 -0.0695  0.9415
    1CHTO   C53  299   6.748   6.942   0.666  0.2595  0.4967  0.1535
    1CHTO   O72  300   6.614   6.993   0.643 -0.0350  0.0619 -0.3771
    1CHTO  H199  301   6.566   6.948   0.576  0.8093 -0.4727 -0.6298
    1CHTO   O22  302   6.855   6.956   0.227  0.3095 -0.2570  0.2169
    1CHTO   C31  303   6.736   6.989   0.146  0.2543 -0.5039  0.2099
    1CHTO   H59  304   6.658   7.019   0.219 -1.3558 -0.7391 -1.3817
    1CHTO   C29  305   6.746   7.107   0.051 -0.4470 -0.4046 -0.4174
    1CHTO   H57  306   6.842   7.094  -0.001 -0.1585 -1.5433  0.4005
    1CHTO   O21  307   6.753   7.232   0.121 -0.3690 -0.1603 -0.4079
    1CHTO   H37  308   6.823   7.245   0.182  0.8690  2.6332 -2.3525
    1CHTO   C27  309   6.627   7.121  -0.060 -0.3565  0.2197 -1.1472
    1CHTO   H55  310   6.539   7.162  -0.008 -0.3805  0.6820 -1.5455
    1CHTO    N5  311   6.660   7.214  -0.172  0.2265 -0.0649  0.4860
    1CHTO   H43  312   6.589   7.218  -0.253  2.5215  1.0838 -1.5571
    1CHTO   H44  313   6.661   7.311  -0.125  2.0746  0.8890 -1.4332
    1CHTO   C25  314   6.575   6.991  -0.116 -0.0583 -0.4282  0.0929
    1CHTO   H53  315   6.647   6.960  -0.193  2.8007  1.4957  1.8837
    1CHTO   O17  316   6.573   6.886  -0.007 -0.4843  0.4989 -0.0636
    1CHTO   C32  317   6.688   6.860   0.076  0.0904 -0.1297 -0.1825
    1CHTO   H60  318   6.768   6.820   0.014 -0.5658 -2.4343  0.4438
    1CHTO   C36  319   6.662   6.755   0.186 -0.5945  0.6357  0.3191
    1CHTO   O25  320   6.629   6.628   0.136  0.2877 -0.2069 -0.2805
    1CHTO   H40  321   6.559   6.591   0.187  0.6461 -1.7846 -0.9070
    1CHTO   O15  322   6.426   6.999  -0.194  0.1808  0.9905  0.2063
    1CHTO   C19  323   6.357   6.888  -0.254  0.1161  0.1611  0.1001
    1CHTO   H47  324   6.263   6.932  -0.291 -0.4280  1.9313  3.4041
    1CHTO   C20  325   6.438   6.818  -0.362  0.2965  0.6560  0.7596
    1CHTO   H48  326   6.527   6.770  -0.319 -0.5731 -0.7046  1.0865
    1CHTO   O19  327   6.485   6.921  -0.456  0.1023  0.1326  0.5281
    1CHTO   H35  328   6.415   6.960  -0.504 -1.4942 -2.3985  0.7098
    1CHTO   C21  329   6.346   6.702  -0.430 -0.0383  0.2869 -0.2804
    1CHTO   H49  330   6.261   6.752  -0.476 -0.9150 -1.7853 -0.9568
    1CHTO    N4  331   6.417   6.622  -0.533  0.1241  0.3481 -0.1902
    1CHTO   H41  332   6.520   6.609  -0.502  0.7908 -1.1111 -2.8174
    1CHTO   H42  333   6.421   6.659  -0.634  2.6857 -1.7563 -0.9258
    1CHTO   C22  334   6.293   6.608  -0.317  0.1552 -0.3284  0.0829
    1CHTO   H50  335   6.382   6.546  -0.301 -0.4398 -2.0729 -2.8504
    1CHTO   O14  336   6.234   6.684  -0.214  0.1026 -0.2943  0.4291
    1CHTO   C23  337   6.315   6.787  -0.143 -0.2208  0.2899  0.1415
    1CHTO   H51  338   6.403   6.739  -0.098 -0.0394  0.0529 -0.4722
    1CHTO   C34  339   6.221   6.843  -0.043  0.8485 -0.6350  0.2100
    1CHTO   O23  340   6.288   6.943   0.040 -0.0705  0.3676 -0.2678
    1CHTO   H38  341   6.376   6.918   0.061  0.1288  0.8746 -0.5014
    1CHTO   O16  342   6.187   6.515  -0.365  0.0462  0.2126 -0.2184
    1CHTO   C24  343   6.224   6.348  -0.375  0.2985  0.7886 -0.1852
    1CHTO   H52  344   6.323   6.332  -0.417 -0.2783 -0.6210 -1.0320
    1CHTO   C26  345   6.109   6.288  -0.455 -0.6165 -0.4811 -0.3739
    1CHTO   H54  346   6.014   6.326  -0.412 -0.8269 -1.9515  0.5119
    1CHTO   O20  347   6.122   6.339  -0.589  0.6022  0.0307  0.2166
    1CHTO   H36  348   6.083   6.424  -0.599 -0.2383 -0.4772 -0.9119
    1CHTO   C30  349   6.116   6.137  -0.469  0.8734 -0.2359 -0.2785
    1CHTO   H58  350   6.194   6.111  -0.542 -0.0081 -1.3766 -0.8436
    1CHTO    N6  351   5.989   6.086  -0.535 -0.0988 -0.2054 -0.4249
    1CHTO   H45  352   5.991   5.978  -0.535  3.1629 -0.2236  1.0179
    1CHTO   H46  353   5.985   6.122  -0.637  1.8554 -1.7672 -1.0892
    1CHTO   C33  354   6.143   6.065  -0.336  0.1550 -0.3063  0.1778
    1CHTO   H61  355   6.051   6.058  -0.276 -0.5090 -0.5402 -0.8487
    1CHTO   O18  356   6.241   6.137  -0.263  0.4097 -0.1370 -0.2999
    1CHTO   C28  357   6.224   6.275  -0.241  0.2450  0.1035  0.7636
    1CHTO   H56  358   6.129   6.292  -0.190 -0.0795  1.5576 -0.2983
    1CHTO   C35  359   6.332   6.321  -0.132  0.1643 -0.6548  0.8689
    1CHTO   O24  360   6.472   6.311  -0.176 -0.0796  0.2000 -0.0264
    1CHTO   H39  361   6.470   6.329  -0.268  0.9938 -0.1393 -0.1232
    1CHTO    O9  362   6.176   5.927  -0.360 -0.6521 -0.2771  0.1603
    1CHTO   C13  363   6.203   5.851  -0.230 -0.1278  0.3424 -0.2775
    1CHTO   H26  364   6.148   5.901  -0.147 -2.1768 -1.5591 -0.4377
    1CHTO   C11  365   6.360   5.857  -0.206 -0.0290 -0.1150 -0.5291
    1CHTO   H24  366   6.382   5.962  -0.179 -0.5786  0.1988 -1.2616
    1CHTO    O8  367   6.433   5.820  -0.321 -0.5272 -0.4756  0.6480
    1CHTO    H3  368   6.434   5.893  -0.380  0.4473 -0.6554  0.4441
    1CHTO    C9  369   6.384   5.757  -0.092  0.0728  0.0230  0.9089
    1CHTO   H22  370   6.311   5.775  -0.012 -0.4247 -0.8267  0.6563
    1CHTO    N2  371   6.520   5.774  -0.036 -0.0124  0.1150 -0.4170
    1CHTO   H10  372   6.583   5.853  -0.074 -1.0358  1.3035  0.3269
    1CHTO   H11  373   6.522   5.769   0.071 -2.2072 -1.1148 -0.3970
    1CHTO    C7  374   6.349   5.611  -0.138  0.4690 -0.1300 -0.1938
    1CHTO   H20  375   6.296   5.570  -0.049  3.4453 -2.9285  0.3869
    1CHTO    O4  376   6.249   5.609  -0.248 -0.1128  0.0181 -0.1054
    1CHTO   C14  377   6.144   5.708  -0.248  0.6053 -0.4808 -0.0385
    1CHTO   H27  378   6.083   5.691  -0.157  0.8649 -1.0919  0.0263
    1CHTO   C18  379   6.049   5.687  -0.367 -0.4405  0.4506  0.0455
    1CHTO   O13  380   5.992   5.552  -0.370  0.6093 -0.1020  0.4459
    1CHTO    H7  381   5.919   5.550  -0.312  0.6387 -1.5614  0.4354
    1CHTO    O2  382   6.488   5.519  -0.191  0.4076  0.0137 -0.3194
    1CHTO    C1  383   6.502   5.398  -0.118 -0.5311  0.3115  0.0608
    1CHTO   H14  384   6.410   5.379  -0.059 -0.7104  2.0738  0.3908
    1CHTO    C2  385   6.629   5.398  -0.021 -0.4286  0.7871 -0.1195
    1CHTO   H15  386   6.715   5.434  -0.081 -0.0003  0.2138  0.1477
    1CHTO    O6  387   6.609   5.496   0.086 -0.0942  0.0318 -0.1209
    1CHTO    H1  388   6.689   5.515   0.132 -0.3413  0.4253  0.1477
    1CHTO    C3  389   6.642   5.247   0.038 -0.0122  0.0516 -0.4418
    1CHTO   H16  390   6.570   5.222   0.117 -0.2381  1.0213 -0.3348
    1CHTO    N1  391   6.767   5.245   0.116 -1.1985  0.1473  0.1080
    1CHTO    H8  392   6.847   5.267   0.048 -0.9976 -0.2288  0.2195
    1CHTO    H9  393   6.785   5.145   0.153  0.9347 -0.2339 -1.8358
    1CHTO    C4  394   6.638   5.136  -0.073 -0.2362  0.2182 -0.4331
    1CHTO   H17  395   6.721   5.155  -0.141 -0.2076  0.4759 -0.3291
    1CHTO    O1  396   6.515   5.157  -0.142  0.1187 -0.8506 -0.3758
    1CHTO    C5  397   6.512   5.280  -0.217  0.0810 -0.2009  0.2027
    1CHTO   H18  398   6.607   5.279  -0.271  0.5408  0.9840  0.9834
    1CHTO   C16  399   6.401   5.264  -0.316 -0.2634  0.5633 -0.0203
    1CHTO   O11  400   6.392   5.370  -0.417  0.0871 -0.0033 -0.2089
    1CHTO    H5  401   6.302   5.397  -0.426 -0.2427 -0.9119  0.2005
    1CHTO    O3  402   6.641   5.002  -0.019 -0.2277  0.1472  0.2635
    1CHTO    C6  403   6.599   4.893  -0.108 -0.7745  0.7590  0.6033
    1CHTO   H19  404   6.548   4.926  -0.199  2.0473  1.1822 -0.8852
    1CHTO    C8  405   6.725   4.819  -0.159  0.0363 -0.8500 -0.1979
    1CHTO   H21  406   6.783   4.791  -0.071 -0.9438  0.3653  0.8595
    1CHTO    O7  407   6.811   4.908  -0.238 -0.5480  0.1469 -0.3442
    1CHTO    H2  408   6.837   4.872  -0.320  1.2335  0.7317 -0.0612
    1CHTO   C12  409   6.681   4.684  -0.235  0.1299 -0.7380 -0.1031
    1CHTO   H25  410   6.631   4.718  -0.329 -0.6415 -1.1476  0.1494
    1CHTO    N3  411   6.805   4.616  -0.279  0.0800 -0.6622 -0.4732
    1CHTO   H12  412   6.842   4.559  -0.194 -1.4209  0.3840  0.9071
    1CHTO   H13  413   6.780   4.549  -0.360 -0.3742 -1.6442  0.4592
    1CHTO   C15  414   6.581   4.599  -0.150 -0.0616 -0.1436  0.0264
    1CHTO   H28  415   6.631   4.560  -0.061 -0.5984 -1.1445 -0.1017
    1CHTO   O10  416   6.512   4.475  -0.245 -0.2186 -0.2269 -0.2536
    1CHTO    H4  417   6.574   4.413  -0.279  1.5576  1.6516 -0.5555
    1CHTO    O5  418   6.466   4.677  -0.106  0.0513 -0.1588  0.1862
    1CHTO   C10  419   6.498   4.797  -0.036  0.0670 -0.0369 -0.3529
    1CHTO   H23  420   6.551   4.768   0.055 -0.7794  0.8428  0.4427
    1CHTO   C17  421   6.367   4.867   0.001  0.5850 -0.1199 -0.5177
    1CHTO   O12  422   6.315   4.826   0.128  0.2367 -0.7226  0.1681
    1CHTO    H6  423   6.225   4.853   0.130  0.6209  0.5799  0.2829
    2CHTO  H203  424   3.951   3.773   2.037  0.2170 -1.9793  1.3114
    2CHTO   O82  425   3.912   3.726   1.967  0.3527  0.2791 -0.3498
    2CHTO  C123  426   3.801   3.788   1.899  0.3470  0.3081  0.5121
    2CHTO  H227  427   3.728   3.819   1.975  1.2284  0.5636  1.2778
    2CHTO   O77  428   3.858   3.899   1.834  0.2084 -0.6112 -0.3261
    2CHTO  C118  429   3.766   3.993   1.786  0.1209  0.3849 -0.3830
    2CHTO  H222  430   3.688   4.023   1.858 -1.4310 -0.9993 -1.4370
    2CHTO  C125  431   3.838   4.124   1.741  0.3404  0.0584 -0.2273
    2CHTO   O84  432   3.922   4.093   1.627  0.9830 -0.2817 -0.0111
    2CHTO  H205  433   3.981   4.166   1.628 -0.8854  1.2960 -1.5352
    2CHTO  C114  434   3.691   3.916   1.673  0.6673  0.3774 -0.2331
    2CHTO  H218  435   3.762   3.884   1.597 -1.8724 -0.8156 -2.1413
    2CHTO  C116  436   3.632   3.778   1.721  0.5786 -0.2950  0.0770
    2CHTO  H220  437   3.544   3.793   1.788 -0.8664  0.6747 -1.9754
    2CHTO   O79  438   3.591   3.714   1.600 -0.0604 -0.0456  0.4900
    2CHTO  H201  439   3.659   3.684   1.543  1.2563  0.7816  1.5764
    2CHTO  C120  440   3.739   3.691   1.794 -0.5148  0.9075  0.1057
    2CHTO  H224  441   3.810   3.660   1.715 -0.1733  1.1936  0.3005
    2CHTO   N21  442   3.681   3.569   1.856 -0.4137  0.6461 -0.4969
    2CHTO  H211  443   3.677   3.486   1.787 -0.1342  1.1173 -1.0863
    2CHTO  H212  444   3.599   3.589   1.922  0.0225 -0.8259  0.5178
    2CHTO   O75  445   3.588   4.005   1.613  0.2834  0.5002 -0.2956
    2CHTO  C112  446   3.588   4.002   1.460 -0.6499 -0.0603 -0.5302
    2CHTO  H216  447   3.607   3.901   1.423  1.1002  0.2758 -0.5889
    2CHTO   O73  448   3.692   4.094   1.424 -0.1570  0.7357 -0.4603
    2CHTO  C113  449   3.720   4.108   1.284  0.0438  1.3436  0.2681
    2CHTO  H217  450   3.746   4.007   1.246 -0.2567  0.2226  2.9537
    2CHTO  C124  451   3.835   4.202   1.260 -0.5244  0.1231 -0.3822
    2CHTO   O83  452   3.877   4.205   1.124  0.2111  0.0351  0.8908
    2CHTO  H204  453   3.904   4.293   1.104 -1.6358  0.2494 -0.8423
    2CHTO  C109  454   3.591   4.168   1.218 -0.1785 -0.2217  0.0072
    2CHTO  H213  455   3.578   4.269   1.260 -0.5789  0.3147 -1.3870
    2CHTO  C110  456   3.472   4.071   1.248 -0.7090  0.6007  0.4098
    2CHTO  H214  457   3.494   3.976   1.198 -4.5610 -0.2694  0.2337
    2CHTO   O78  458   3.353   4.129   1.191 -0.4544 -0.3910  0.1440
    2CHTO  H200  459   3.307   4.196   1.239  0.0640 -0.4982  0.7987
    2CHTO  C111  460   3.451   4.050   1.402  0.0435 -0.0638 -0.3341
    2CHTO  H215  461   3.418   4.147   1.442 -1.2559 -0.5903 -0.0829
    2CHTO   N19  462   3.337   3.960   1.426 -0.0698 -0.5650 -0.2136
    2CHTO  H207  463   3.335   3.860   1.385 -1.1259 -0.7749  0.3325
    2CHTO  H208  464   3.242   4.010   1.427 -0.0112 -0.4527  1.5484
    2CHTO   O74  465   3.599   4.184   1.071 -0.4187 -0.3876 -0.1849
    2CHTO  C115  466   3.606   4.345   1.020  0.1670 -0.1268 -0.2445
    2CHTO  H219  467   3.641   4.412   1.098  0.2725  0.5721 -0.8788
    2CHTO   O76  468   3.710   4.368   0.901 -0.1674 -0.3487 -0.4227
    2CHTO  C122  469   3.673   4.285   0.788  0.0232 -0.5467 -0.4698
    2CHTO  H226  470   3.697   4.184   0.823 -2.2357 -0.4957  1.3223
    2CHTO  C126  471   3.775   4.318   0.679 -0.3843 -0.6126  0.4380
    2CHTO   O85  472   3.784   4.459   0.649  0.1657 -0.1177 -0.3282
    2CHTO  H206  473   3.829   4.481   0.569  3.2208  1.8169  1.8007
    2CHTO  C121  474   3.522   4.291   0.738 -0.5980  0.0028  0.2524
    2CHTO  H225  475   3.522   4.322   0.632  0.6049 -1.8464 -0.3321
    2CHTO   O81  476   3.458   4.162   0.751 -0.4187 -0.5188 -0.5393
    2CHTO  H202  477   3.525   4.099   0.732  1.7203  1.7500 -0.7902
    2CHTO  C119  478   3.454   4.408   0.818  0.1113 -0.1894  0.2193
    2CHTO  H223  479   3.511   4.500   0.801 -2.3245  1.3170 -0.0468
    2CHTO  C117  480   3.459   4.384   0.972  0.5522 -0.3104  0.6741
    2CHTO  H221  481   3.400   4.296   0.999  1.8551 -1.9318 -1.6003
    2CHTO   N20  482   3.401   4.496   1.055  0.9338  0.3812 -0.3528
    2CHTO  H209  483   3.452   4.587   1.030 -0.8196  1.3219 -0.5563
    2CHTO  H210  484   3.399   4.486   1.163 -2.3615 -1.9188 -0.5399
    2CHTO   O80  485   3.307   4.451   0.754 -0.5480  0.0451  0.1296
    2CHTO  C103  486   3.307   4.507   0.608  0.2379  0.5661 -0.7063
    2CHTO  H190  487   3.405   4.524   0.565  1.2898 -1.1990  0.9475
    2CHTO  C101  488   3.222   4.412   0.508 -0.0807 -0.1482 -0.3161
    2CHTO  H188  489   3.120   4.407   0.546  0.0554  2.6303  0.5187
    2CHTO   O68  490   3.291   4.251   0.526  0.4307 -0.0813  0.4476
    2CHTO  H168  491   3.223   4.192   0.500 -1.1451  0.7688  2.5284
    2CHTO   C99  492   3.214   4.480   0.367 -0.6084  0.4310 -0.1704
    2CHTO  H186  493   3.320   4.485   0.334 -0.5368 -0.9146 -0.1768
    2CHTO   N17  494   3.143   4.406   0.258 -0.2173  0.5404 -0.0734
    2CHTO  H174  495   3.092   4.319   0.295 -2.4695  0.4637 -3.2268
    2CHTO  H175  496   3.217   4.375   0.185 -0.0271  1.0758 -0.1141
    2CHTO   C97  497   3.152   4.628   0.377  0.2863  0.3412 -0.3685
    2CHTO  H184  498   3.043   4.622   0.391  0.4913  0.7340  1.5742
    2CHTO   O64  499   3.212   4.702   0.483  0.1175 -0.1611  0.4674
    2CHTO  C104  500   3.232   4.638   0.613 -0.1051 -0.6623 -0.9418
    2CHTO  H191  501   3.130   4.619   0.646 -0.1028 -1.6464 -1.4853
    2CHTO  C108  502   3.287   4.737   0.715 -0.0186  0.3356 -0.4972
    2CHTO   O71  503   3.413   4.785   0.658  0.1780 -0.0931 -0.2520
    2CHTO  H171  504   3.467   4.839   0.713  0.2551  0.0543 -0.4736
    2CHTO   O62  505   3.179   4.709   0.262  0.3291  0.4009  0.1601
    2CHTO   C91  506   3.083   4.816   0.222 -0.2337  0.8309  0.3987
    2CHTO  H178  507   3.003   4.814   0.295  1.0409 -3.1082  1.8409
    2CHTO   C92  508   3.004   4.777   0.090 -0.5068 -0.3275 -0.1704
    2CHTO  H179  509   3.081   4.777   0.011 -0.5735 -0.1638 -0.2347
    2CHTO   O66  510   2.937   4.647   0.104 -0.6301  0.5685 -0.1770
    2CHTO  H166  511   2.997   4.579   0.126 -1.3406  0.4328  1.3872
    2CHTO   C93  512   2.896   4.889   0.066  0.2748 -0.6247 -0.2503
    2CHTO  H180  513   2.832   4.879   0.155 -0.6329 -1.4437 -0.9822
    2CHTO   N16  514   2.808   4.871  -0.055 -0.8290  0.4090 -0.0309
    2CHTO  H172  515   2.854   4.898  -0.149  0.6052  0.2908  0.6296
    2CHTO  H173  516   2.720   4.931  -0.037 -0.5391 -0.1177  3.5304
    2CHTO   C94  517   2.966   5.038   0.065  0.6709 -0.1449 -0.1123
    2CHTO  H181  518   3.030   5.052  -0.022 -0.4208 -1.6890 -1.1983
    2CHTO   O61  519   3.056   5.067   0.177 -0.0412  0.3115 -0.0279
    2CHTO   C95  520   3.153   4.967   0.200  0.1092 -0.4261 -0.0381
    2CHTO  H182  521   3.215   4.954   0.111 -0.2628 -1.4970 -0.1541
    2CHTO  C106  522   3.253   5.005   0.319 -0.3300  0.1138 -0.6245
    2CHTO   O69  523   3.178   5.034   0.441 -0.2305 -0.0030 -0.2031
    2CHTO  H169  524   3.200   5.118   0.476 -3.1435  0.5471  0.4278
    2CHTO   O63  525   2.842   5.158   0.069  0.2708  0.1683 -0.0567
    2CHTO   C96  526   2.888   5.292   0.014 -0.3186 -0.6536  0.5613
    2CHTO  H183  527   2.993   5.281  -0.010 -0.5740 -1.2009 -0.3294
    2CHTO   C98  528   2.885   5.414   0.115  0.1235  0.1990 -0.0330
    2CHTO  H185  529   2.790   5.410   0.172 -1.1710 -0.4670 -2.1848
    2CHTO   O67  530   2.990   5.391   0.207 -0.2337 -1.0911 -0.0897
    2CHTO  H167  531   3.051   5.462   0.208 -1.3256 -0.0815  3.0851
    2CHTO  C102  532   2.904   5.557   0.051 -0.6778  0.4734  0.4594
    2CHTO  H189  533   3.012   5.567   0.032 -0.5396  0.0254  1.0147
    2CHTO   N18  534   2.873   5.669   0.146 -0.5373  0.2792  0.1211
    2CHTO  H176  535   2.765   5.668   0.147 -0.5334 -0.5539 -0.1318
    2CHTO  H177  536   2.901   5.764   0.104 -0.1690  0.4383  0.7083
    2CHTO  C105  537   2.819   5.565  -0.079 -0.5621 -0.3304 -0.5307
    2CHTO  H192  538   2.714   5.570  -0.053 -0.3939  2.7651 -0.2476
    2CHTO   O65  539   2.848   5.454  -0.168 -0.1307  0.2851 -0.2164
    2CHTO  C100  540   2.805   5.331  -0.112  0.1639  0.0671 -0.2564
    2CHTO  H187  541   2.698   5.338  -0.085  0.3322  1.2229  0.1508
    2CHTO  C107  542   2.811   5.215  -0.222 -0.1955 -0.3907 -0.0976
    2CHTO   O70  543   2.726   5.247  -0.332 -0.4587  0.2091  0.1405
    2CHTO  H170  544   2.743   5.200  -0.412 -0.5932  2.8112 -1.4850
    2CHTO   O57  545   2.857   5.711  -0.165  0.0272 -0.3832 -0.2916
    2CHTO   C85  546   2.775   5.768  -0.266 -0.1333 -0.8286  0.5517
    2CHTO  H157  547   2.696   5.817  -0.206  0.4757  2.1902 -1.0323
    2CHTO   C83  548   2.712   5.662  -0.362 -0.4576  0.5449 -0.2508
    2CHTO  H155  549   2.650   5.588  -0.313  0.7671 -0.1133  0.3321
    2CHTO   O56  550   2.817   5.588  -0.427  0.0711 -0.1430  0.2532
    2CHTO  H135  551   2.787   5.501  -0.441 -1.2229  0.1617  0.9669
    2CHTO   C81  552   2.617   5.737  -0.460  0.2551 -0.3214 -0.1528
    2CHTO  H153  553   2.546   5.797  -0.403  2.0434  3.3244 -1.6245
    2CHTO   N14  554   2.534   5.648  -0.541 -0.1090  0.4864 -0.0645
    2CHTO  H141  555   2.539   5.549  -0.502  0.4964  0.5379 -0.0138
    2CHTO  H142  556   2.431   5.678  -0.537 -0.5421 -1.0594  0.8077
    2CHTO   C79  557   2.704   5.838  -0.549 -0.1654 -0.3523  0.3991
    2CHTO  H151  558   2.635   5.892  -0.614 -0.4564 -0.9765  0.1859
    2CHTO   O52  559   2.775   5.932  -0.466 -0.4130  0.5632  0.0069
    2CHTO   C86  560   2.853   5.876  -0.359 -0.0111 -0.9291  0.0360
    2CHTO  H158  561   2.940   5.827  -0.407  1.1703 -0.7353  1.9390
    2CHTO   C90  562   2.902   5.991  -0.270 -0.0301  0.7130  0.1920
    2CHTO   O60  563   2.979   6.090  -0.345 -0.6949  0.1465  0.5898
    2CHTO  H138  564   3.052   6.045  -0.384 -0.1043 -0.0306  1.8506
    2CHTO   O50  565   2.792   5.777  -0.645 -0.8255  0.2774  0.5794
    2CHTO   C73  566   2.862   5.847  -0.756  0.9113  0.4822  0.6986
    2CHTO  H145  567   2.886   5.950  -0.727 -1.1216  1.2959 -0.3949
    2CHTO   C74  568   2.762   5.868  -0.881  0.2270  0.2934  0.2173
    2CHTO  H146  569   2.673   5.921  -0.843  0.2785  0.0144  0.7317
    2CHTO   O54  570   2.818   5.958  -0.978  0.2978  0.4756 -0.4399
    2CHTO  H133  571   2.760   6.025  -1.009  1.0231  0.4296 -1.9974
    2CHTO   C75  572   2.729   5.733  -0.952  0.3409 -0.1441 -0.8508
    2CHTO  H147  573   2.667   5.677  -0.881  3.0729 -0.9913  0.9043
    2CHTO   N13  574   2.652   5.726  -1.077 -0.0582 -0.0119 -0.9538
    2CHTO  H139  575   2.681   5.637  -1.130  1.2546  1.2721 -2.4438
    2CHTO  H140  576   2.549   5.715  -1.046  0.1011  2.6834  0.6626
    2CHTO   C76  577   2.865   5.643  -0.970 -0.4982 -0.1458  0.1111
    2CHTO  H148  578   2.923   5.693  -1.048  0.7395 -2.2117 -0.3296
    2CHTO   O49  579   2.942   5.640  -0.846 -0.1181 -0.2844  0.4794
    2CHTO   C77  580   2.991   5.766  -0.794  0.4691  0.0408  0.0249
    2CHTO  H149  581   3.048   5.825  -0.867 -0.0394 -0.7359 -1.0115
    2CHTO   C88  582   3.089   5.742  -0.678 -0.1848  0.2167  1.1078
    2CHTO   O58  583   3.158   5.881  -0.646 -0.1449 -0.2088 -0.3434
    2CHTO  H136  584   3.241   5.881  -0.689 -0.2458 -0.2871 -0.5419
    2CHTO   O51  585   2.839   5.484  -1.035 -0.3835 -0.2966 -0.2758
    2CHTO   C78  586   2.930   5.371  -0.946  0.5333 -0.0643 -0.1313
    2CHTO  H150  587   2.993   5.420  -0.868  1.3600  2.3173 -2.2068
    2CHTO   C80  588   3.029   5.302  -1.045 -0.0432 -0.2459 -0.0808
    2CHTO  H152  589   2.965   5.244  -1.114  0.9144 -0.5719 -0.6932
    2CHTO   O55  590   3.098   5.410  -1.113 -0.0697 -0.2340 -0.0483
    2CHTO  H134  591   3.166   5.443  -1.058 -1.0867  2.8597 -0.5276
    2CHTO   C84  592   3.128   5.205  -0.969 -0.2864  0.6923  0.4769
    2CHTO  H156  593   3.184   5.264  -0.896  0.5726  0.8420 -0.2896
    2CHTO   N15  594   3.229   5.141  -1.054  0.1287  0.1977 -0.1014
    2CHTO  H143  595   3.188   5.101  -1.144 -0.0043 -2.7438  1.2121
    2CHTO  H144  596   3.291   5.067  -1.006 -0.2897 -0.2101 -0.1862
    2CHTO   C87  597   3.047   5.108  -0.883  0.0541  0.2025  0.3903
    2CHTO  H159  598   2.992   5.038  -0.946 -0.1452  2.3283 -1.9030
    2CHTO   O53  599   2.939   5.189  -0.791  0.8720  0.5020 -0.1276
    2CHTO   C82  600   2.847   5.267  -0.870 -0.5077  0.6077  0.4233
    2CHTO  H154  601   2.794   5.205  -0.942  0.1349  0.8056 -0.2183
    2CHTO   C89  602   2.740   5.332  -0.774 -0.0812 -0.5386  0.0264
    2CHTO   O59  603   2.793   5.401  -0.660  0.7779 -0.1549  0.8050
    2CHTO  H137  604   2.853   5.350  -0.608  1.8194 -1.1497 -1.2933
    2CHTO   O45  605   3.160   5.030  -0.781 -0.2461  0.1108 -0.0172
    2CHTO   C67  606   3.191   5.099  -0.660 -0.2661 -0.0116  0.6308
    2CHTO  H124  607   3.180   5.206  -0.676  1.8926  0.2608  0.8764
    2CHTO   C65  608   3.091   5.057  -0.543 -0.1758  0.2394  0.1594
    2CHTO  H122  609   3.031   4.974  -0.581 -1.5475  0.5458  1.6162
    2CHTO   O44  610   3.003   5.172  -0.508  0.1889 -0.3164  0.0831
    2CHTO  H102  611   2.950   5.198  -0.580 -2.2585 -1.7035  1.2903
    2CHTO   C63  612   3.174   4.985  -0.427  0.0857  0.2237  0.4759
    2CHTO  H120  613   3.217   4.891  -0.461 -1.8274 -0.6568  0.4186
    2CHTO   N11  614   3.084   4.934  -0.316 -0.4223  0.2361  0.1136
    2CHTO  H108  615   2.982   4.931  -0.346 -0.0507 -1.6891 -1.0508
    2CHTO  H109  616   3.115   4.834  -0.290 -0.0983  0.0899 -0.8206
    2CHTO   C61  617   3.289   5.086  -0.386  0.3379 -0.2128  0.2458
    2CHTO  H118  618   3.350   5.034  -0.310  2.3157 -1.5908 -2.1877
    2CHTO   O40  619   3.381   5.122  -0.496  0.3788  0.1212 -0.3011
    2CHTO   C68  620   3.344   5.079  -0.634  0.1398  0.6859  0.4698
    2CHTO  H125  621   3.367   4.971  -0.640  2.8484  1.1891  1.0528
    2CHTO   C72  622   3.432   5.150  -0.732  0.1249  0.4224 -0.1663
    2CHTO   O48  623   3.567   5.103  -0.719  0.3237 -0.5979 -0.1443
    2CHTO  H105  624   3.614   5.124  -0.641 -2.8285 -0.3586  1.7585
    2CHTO   O38  625   3.230   5.203  -0.332 -0.4813  0.2812 -0.6808
    2CHTO   C55  626   3.310   5.314  -0.288 -0.0729 -0.0941 -0.2762
    2CHTO  H112  627   3.374   5.335  -0.375 -0.9071 -4.0538 -1.9733
    2CHTO   C56  628   3.401   5.266  -0.167 -0.6973  0.9309 -0.0798
    2CHTO  H113  629   3.345   5.194  -0.106  1.9257 -1.5723 -0.4996
    2CHTO   O42  630   3.509   5.187  -0.228  0.7806  0.4853 -0.2196
    2CHTO  H100  631   3.536   5.240  -0.301 -1.9789  1.6544 -0.4622
    2CHTO   C57  632   3.466   5.390  -0.089  0.3199  0.1135 -0.1276
    2CHTO  H114  633   3.539   5.441  -0.152  2.6724 -3.0507 -0.1031
    2CHTO   N10  634   3.543   5.338   0.032  0.6339 -0.7034 -0.3450
    2CHTO  H106  635   3.529   5.417   0.104  1.8105 -0.7953 -0.0138
    2CHTO  H107  636   3.497   5.247   0.068 -1.3462  0.2668 -0.3570
    2CHTO   C58  637   3.349   5.486  -0.054  0.3923 -0.3838 -0.6719
    2CHTO  H115  638   3.274   5.426   0.001 -2.7085  3.7682 -0.1015
    2CHTO   O37  639   3.295   5.533  -0.175 -0.0777  0.0982 -0.4137
    2CHTO   C59  640   3.219   5.433  -0.248 -0.4116  0.9384  0.1511
    2CHTO  H116  641   3.142   5.388  -0.187  1.1742  0.6044  1.9372
    2CHTO   C70  642   3.161   5.504  -0.369 -0.4940 -0.0656 -0.1487
    2CHTO   O46  643   3.059   5.598  -0.337  0.3223 -0.5967  0.2354
    2CHTO  H103  644   2.980   5.551  -0.318  0.4186 -0.8785 -0.0484
    2CHTO   O39  645   3.381   5.623   0.036  0.4544  0.4208 -0.0089
    2CHTO   C60  646   3.288   5.661   0.131 -0.2339 -0.6550 -0.0761
    2CHTO  H117  647   3.184   5.651   0.100 -0.3975  2.1083 -0.5981
    2CHTO   C62  648   3.288   5.568   0.258  0.0989 -0.5871 -0.4770
    2CHTO  H119  649   3.258   5.468   0.220  1.8647 -1.2833 -0.1150
    2CHTO   O43  650   3.425   5.562   0.312 -0.2309 -0.3749  0.7538
    2CHTO  H101  651   3.426   5.496   0.378  1.0462 -0.5086  0.5984
    2CHTO   C66  652   3.179   5.620   0.363 -0.3706 -0.0343  0.3138
    2CHTO  H123  653   3.079   5.620   0.319 -0.3823 -2.2127  0.2839
    2CHTO   N12  654   3.165   5.529   0.475 -0.7449 -0.1532 -0.5652
    2CHTO  H110  655   3.061   5.524   0.502 -0.5501  1.7281  0.6887
    2CHTO  H111  656   3.217   5.560   0.565  2.6624 -2.3367 -1.6813
    2CHTO   C69  657   3.218   5.763   0.401  0.0416  0.0503 -0.2584
    2CHTO  H126  658   3.321   5.758   0.444  0.7068 -0.5679 -1.8485
    2CHTO   O41  659   3.215   5.851   0.293 -0.6062  0.3454  0.3264
    2CHTO   C64  660   3.302   5.812   0.169 -0.2544  0.4190 -0.6323
    2CHTO  H121  661   3.408   5.827   0.199 -0.5247 -0.5545  0.8396
    2CHTO   C71  662   3.260   5.901   0.040  0.1788  0.1232  0.0640
    2CHTO   O47  663   3.337   5.880  -0.078 -0.4189 -0.3901 -0.5907
    2CHTO  H104  664   3.282   5.870  -0.154 -2.8042  0.6778  0.9571
    2CHTO   O34  665   3.127   5.828   0.523  0.7359  0.7749 -0.1952
    2CHTO   C49  666   3.092   5.939   0.634 -0.3718 -0.2940 -0.3445
    2CHTO   H91  667   3.114   5.894   0.731 -1.4987 -0.0039  0.0527
    2CHTO   C47  668   2.941   5.976   0.633  0.0588  0.0732 -0.4732
    2CHTO   H89  669   2.926   6.045   0.719  0.7423  0.1878 -0.4413
    2CHTO   O33  670   2.858   5.862   0.650  0.2512 -0.8589 -0.2311
    2CHTO   H70  671   2.888   5.812   0.724  1.8732 -1.2864 -1.1638
    2CHTO   C45  672   2.914   6.052   0.493  0.7738  0.1015 -0.0784
    2CHTO   H87  673   2.959   5.997   0.409 -0.3633 -3.4675  1.5499
    2CHTO    N8  674   2.767   6.073   0.470  0.2911 -0.1227  0.3630
    2CHTO   H75  675   2.725   6.113   0.561 -0.7496  0.4614 -0.3665
    2CHTO   H76  676   2.752   6.138   0.386  1.1020 -1.2455 -0.6687
    2CHTO   C43  677   2.991   6.193   0.494  0.1055 -0.5764  0.2014
    2CHTO   H85  678   2.977   6.240   0.397  0.8051  0.2637  0.4975
    2CHTO   O29  679   3.133   6.163   0.519  0.1474  0.1781  0.4785
    2CHTO   C50  680   3.178   6.070   0.615 -0.9721 -0.7395 -0.1978
    2CHTO   H92  681   3.275   6.043   0.569 -0.0244  1.7247  0.2619
    2CHTO   C54  682   3.219   6.148   0.741  0.3625  0.3672 -0.4912
    2CHTO   O36  683   3.117   6.149   0.839  0.9983 -0.4000  0.3715
    2CHTO   H72  684   3.125   6.191   0.923 -1.3279 -0.5854  0.7380
    2CHTO   O27  685   2.945   6.288   0.587 -0.3312 -0.0058 -0.1987
    2CHTO   C37  686   2.905   6.426   0.593  0.5471 -0.1601  0.1366
    2CHTO   H79  687   2.886   6.466   0.492  0.5518  0.6324  0.4392
    2CHTO   C38  688   2.781   6.451   0.676  0.2068  0.0179  0.2333
    2CHTO   H80  689   2.796   6.406   0.776 -1.5681 -0.5762  0.2455
    2CHTO   O31  690   2.672   6.375   0.610 -0.0946  0.1815  0.4125
    2CHTO   H68  691   2.652   6.402   0.522  1.3446  2.5280  0.7731
    2CHTO   C39  692   2.747   6.609   0.688 -0.5053  0.2343  0.4062
    2CHTO   H81  693   2.715   6.642   0.589 -0.5253  0.9154  0.6403
    2CHTO    N7  694   2.632   6.634   0.783 -0.2318  0.8768 -0.4611
    2CHTO   H73  695   2.657   6.625   0.888  1.7641 -1.0101 -1.0605
    2CHTO   H74  696   2.544   6.573   0.769  0.5197 -0.3735  0.1222
    2CHTO   C40  697   2.873   6.690   0.727  0.4933  0.3440  0.5119
    2CHTO   H82  698   2.897   6.669   0.831 -0.7842 -2.2150  0.3236
    2CHTO   O26  699   2.984   6.656   0.638 -0.2547 -0.2475  0.0406
    2CHTO   C41  700   3.016   6.512   0.650  0.2341  0.3483 -0.4566
    2CHTO   H83  701   3.031   6.482   0.754  1.9879  0.8330 -0.5445
    2CHTO   C52  702   3.150   6.498   0.575  0.2287 -0.0286  0.2971
    2CHTO   O35  703   3.255   6.515   0.646 -0.3116 -0.5527 -0.5774
    2CHTO   H71  704   3.255   6.579   0.715 -2.2092 -1.6020  0.4126
    2CHTO   O28  705   2.849   6.828   0.691 -0.1442  0.1621  0.0047
    2CHTO   C42  706   2.918   6.944   0.753 -0.4167  0.5789 -0.1226
    2CHTO   H84  707   2.885   7.030   0.694  1.9519  1.9826  0.5284
    2CHTO   C44  708   3.080   6.954   0.743 -0.8093  0.4533  0.2813
    2CHTO   H86  709   3.124   6.875   0.804 -0.5870 -0.9554 -1.6351
    2CHTO   O32  710   3.117   6.940   0.604 -0.1081  0.0941 -0.1534
    2CHTO   H69  711   3.067   6.867   0.572  0.1394  0.2303 -0.8675
    2CHTO   C48  712   3.126   7.090   0.807 -0.3698 -0.3491 -0.7022
    2CHTO   H90  713   3.086   7.171   0.745 -0.2009 -0.2080 -0.6269
    2CHTO    N9  714   3.278   7.109   0.807  0.1195 -0.3137 -0.2314
    2CHTO   H77  715   3.311   7.192   0.868 -1.0004 -0.9843  1.3270
    2CHTO   H78  716   3.308   7.124   0.705 -1.2175 -2.9462 -1.0402
    2CHTO   C51  717   3.074   7.098   0.947 -0.3807  0.1912  0.2764
    2CHTO   H93  718   3.113   7.013   1.002  0.5533  1.1065  1.0627
    2CHTO   O30  719   2.933   7.094   0.937  0.2148 -0.3241 -0.2859
    2CHTO   C46  720   2.874   6.977   0.893 -0.1966 -0.8973 -0.9034
    2CHTO   H88  721   2.912   6.897   0.957 -1.7464 -1.3617 -0.5461
    2CHTO   C53  722   2.719   6.981   0.898 -0.0959 -0.5022  0.0452
    2CHTO   O72  723   2.664   7.048   1.011 -0.3441  0.2303  0.0509
    2CHTO  H199  724   2.605   6.996   1.062  0.7349  1.4527  2.6290
    2CHTO   O22  725   3.090   7.229   1.009 -0.8098 -0.4769  0.0540
    2CHTO   C31  726   3.059   7.259   1.149 -0.2461 -0.2683  0.6165
    2CHTO   H59  727   3.061   7.369   1.158  0.2665 -0.4232  2.6892
    2CHTO   C29  728   2.922   7.210   1.208  0.5653 -0.1806  0.6332
    2CHTO   H57  729   2.919   7.103   1.182  2.0787  0.2530 -1.4242
    2CHTO   O21  730   2.815   7.267   1.137 -0.0116  0.0888  0.8213
    2CHTO   H37  731   2.734   7.249   1.182  0.5642  0.5124  2.0403
    2CHTO   C27  732   2.906   7.232   1.365  0.5450 -0.0063 -0.4594
    2CHTO   H55  733   2.916   7.339   1.387  0.2957  0.1323 -1.0255
    2CHTO    N5  734   2.773   7.190   1.426 -0.2160 -0.5840 -0.0084
    2CHTO   H43  735   2.779   7.211   1.531  1.3625 -3.2073  0.4643
    2CHTO   H44  736   2.734   7.100   1.380  0.6829 -0.9387 -0.0879
    2CHTO   C25  737   3.033   7.166   1.436 -0.2274  0.1645  0.6770
    2CHTO   H53  738   3.040   7.059   1.411  0.0682  0.0533  1.2264
    2CHTO   O17  739   3.151   7.224   1.384  0.1518  0.2711  0.0989
    2CHTO   C32  740   3.175   7.205   1.242 -0.0346 -0.1853  0.1221
    2CHTO   H60  741   3.191   7.101   1.216  0.6573 -0.2633  0.8534
    2CHTO   C36  742   3.311   7.277   1.222 -1.0086  0.2602  0.8487
    2CHTO   O25  743   3.351   7.242   1.089 -0.3232 -0.1730  0.3584
    2CHTO   H40  744   3.434   7.284   1.084  0.4926 -1.8116 -0.2299
    2CHTO   O15  745   3.043   7.184   1.575 -0.2474  0.0233  0.2449
    2CHTO   C19  746   3.065   7.125   1.706  0.1475  0.4715  0.2548
    2CHTO   H47  747   3.022   7.200   1.774 -1.1823  0.9517 -1.0953
    2CHTO   C20  748   2.987   6.985   1.730 -0.2262 -0.1005  0.1592
    2CHTO   H48  749   3.009   6.906   1.656 -1.2776 -0.3081  0.0572
    2CHTO   O19  750   2.847   7.017   1.715  0.3628  0.2082  0.1233
    2CHTO   H35  751   2.826   7.032   1.625 -0.0795  2.5935  0.5929
    2CHTO   C21  752   3.013   6.931   1.874 -0.0655  0.3235 -0.0335
    2CHTO   H49  753   2.961   6.992   1.948  0.5661  0.4828  0.2740
    2CHTO    N4  754   2.949   6.801   1.886 -0.1262 -0.2555  0.0435
    2CHTO   H41  755   2.980   6.733   1.809 -0.5611 -0.0062 -0.3563
    2CHTO   H42  756   2.970   6.756   1.982  4.0358  0.3248 -0.5264
    2CHTO   C22  757   3.167   6.936   1.902 -0.1450 -0.3359  0.5587
    2CHTO   H50  758   3.218   6.869   1.833  0.5796  1.3888 -0.6207
    2CHTO   O14  759   3.223   7.063   1.882 -0.0173  0.4118  0.0465
    2CHTO   C23  760   3.213   7.110   1.749 -0.7371 -0.0658  0.1729
    2CHTO   H51  761   3.263   7.038   1.683 -3.1327 -0.4703 -1.2267
    2CHTO   C34  762   3.293   7.244   1.743  0.5191  0.2478  0.9238
    2CHTO   O23  763   3.438   7.228   1.750  1.0283 -0.2293  0.2063
    2CHTO   H38  764   3.466   7.153   1.701 -0.2998 -0.7172  0.1760
    2CHTO   O16  765   3.198   6.893   2.035 -0.4594 -0.2010 -0.1350
    2CHTO   C24  766   3.209   6.996   2.146  0.8255 -0.4190  0.3805
    2CHTO   H52  767   3.157   7.088   2.118 -1.6316 -2.2429 -1.3435
    2CHTO   C26  768   3.357   7.024   2.180  0.0387  0.0238  0.4659
    2CHTO   H54  769   3.406   6.924   2.186 -2.2329 -1.1765 -0.2199
    2CHTO   O20  770   3.416   7.114   2.083  0.3191 -0.0751 -0.4639
    2CHTO   H36  771   3.413   7.068   2.001 -1.6471  1.6341 -1.3711
    2CHTO   C30  772   3.378   7.085   2.316  0.3057  0.6045  0.1469
    2CHTO   H58  773   3.357   7.193   2.306 -2.3015 -0.0023 -1.1038
    2CHTO    N6  774   3.524   7.085   2.352  0.1993 -0.6584  0.6323
    2CHTO   H45  775   3.585   7.119   2.270 -1.2242 -1.2062 -0.6978
    2CHTO   H46  776   3.539   7.146   2.440 -0.3545  1.6057 -0.7910
    2CHTO   C33  777   3.283   7.035   2.426 -0.4005  0.9323  0.4376
    2CHTO   H61  778   3.314   6.931   2.443  0.0926  0.6445 -2.0234
    2CHTO   O18  779   3.146   7.034   2.373  0.9554  0.4870  0.4655
    2CHTO   C28  780   3.127   6.944   2.268  0.2957  0.1492  0.4691
    2CHTO   H56  781   3.165   6.846   2.294 -0.3400  0.4201  2.4807
    2CHTO   C35  782   2.975   6.928   2.234 -0.4135 -0.5067 -0.6978
    2CHTO   O24  783   2.901   6.859   2.334  0.1521 -0.4938 -0.1218
    2CHTO   H39  784   2.893   6.906   2.415  0.9941  0.9342 -0.8286
    2CHTO    O9  785   3.301   7.105   2.546  0.0503 -0.2738  0.1411
    2CHTO   C13  786   3.265   7.038   2.679  0.4691  0.3863 -0.2834
    2CHTO   H26  787   3.323   6.943   2.675 -3.2823 -2.0393 -0.4225
    2CHTO   C11  788   3.111   7.008   2.694  0.2589  0.7403 -0.4186
    2CHTO   H24  789   3.078   6.926   2.629 -1.2513 -0.3847  1.6691
    2CHTO    O8  790   3.023   7.122   2.660  0.6650  0.5538 -0.0759
    2CHTO    H3  791   2.936   7.109   2.694  0.6241  1.5502  0.2305
    2CHTO    C9  792   3.086   6.965   2.842  0.0803 -0.6611  0.9870
    2CHTO   H22  793   3.152   6.878   2.858  0.3212 -0.4997  0.8723
    2CHTO    N2  794   2.954   6.900   2.866 -0.2173 -0.4275  0.5010
    2CHTO   H10  795   2.969   6.836   2.952 -2.5343 -0.1599  1.1535
    2CHTO   H11  796   2.926   6.848   2.775  1.4793 -0.2705 -0.1336
    2CHTO    C7  797   3.119   7.089   2.932  0.0417 -0.7111 -1.0254
    2CHTO   H20  798   3.166   7.043   3.021  1.0876 -0.3504 -1.3832
    2CHTO    O4  799   3.214   7.179   2.887 -0.1575 -0.4377 -0.4820
    2CHTO   C14  800   3.320   7.120   2.810 -0.2399 -0.0511 -0.1496
    2CHTO   H27  801   3.376   7.039   2.863 -0.0785 -0.5240 -1.0277
    2CHTO   C18  802   3.429   7.224   2.767  0.3542  0.9359 -0.2590
    2CHTO   O13  803   3.535   7.153   2.708  0.1422  0.2560 -1.1361
    2CHTO    H7  804   3.614   7.203   2.712 -0.6468  1.3969  3.9829
    2CHTO    O2  805   2.978   7.176   2.967  0.6174  0.7865 -0.1972
    2CHTO    C1  806   2.979   7.284   3.062  0.1373 -0.4789  0.3539
    2CHTO   H14  807   2.875   7.321   3.070  0.4136  0.2696  0.5278
    2CHTO    C2  808   3.069   7.410   3.019 -0.1363 -0.0815 -0.3000
    2CHTO   H15  809   3.173   7.375   3.019  0.0058  0.3073 -2.3373
    2CHTO    O6  810   3.031   7.465   2.890  0.5132  0.0456  0.8610
    2CHTO    H1  811   2.939   7.469   2.871  1.0372  1.0003 -1.6522
    2CHTO    C3  812   3.058   7.519   3.145  0.1530  0.6571 -0.0506
    2CHTO   H16  813   2.950   7.538   3.148 -0.5791 -2.7236 -1.6883
    2CHTO    N1  814   3.133   7.642   3.129 -0.1298  0.0006 -0.4358
    2CHTO    H8  815   3.072   7.730   3.115  2.4556  2.2712  1.8964
    2CHTO    H9  816   3.216   7.633   3.061  0.4652 -0.8857  0.4043
    2CHTO    C4  817   3.089   7.440   3.282 -0.0451 -0.0398  0.0188
    2CHTO   H17  818   3.196   7.417   3.282 -0.3290 -1.4318  0.2378
    2CHTO    O1  819   3.000   7.327   3.297  0.0334  0.0965  0.4504
    2CHTO    C5  820   3.019   7.221   3.196 -0.2337 -0.4167  0.2347
    2CHTO   H18  821   3.127   7.205   3.193 -0.0587  0.8930 -0.6871
    2CHTO   C16  822   2.947   7.089   3.248 -0.3265 -0.0478 -0.0560
    2CHTO   O11  823   2.808   7.107   3.227  0.3353 -0.9755  0.3421
    2CHTO    H5  824   2.760   7.028   3.214 -2.3557  0.7166 -0.3547
    2CHTO    O3  825   3.051   7.528   3.393 -0.0268  0.0642 -1.2514
    2CHTO    C6  826   3.126   7.511   3.517 -0.2440 -0.3863 -0.7233
    2CHTO   H19  827   3.164   7.410   3.525 -0.3845 -0.2570  1.8276
    2CHTO    C8  828   3.246   7.610   3.518 -0.7807 -0.4613 -0.0551
    2CHTO   H21  829   3.209   7.712   3.516 -0.7707 -0.4728 -2.5324
    2CHTO    O7  830   3.340   7.591   3.411 -0.3687 -0.4519 -0.7249
    2CHTO    H2  831   3.360   7.670   3.365  1.2186 -0.5464 -0.2311
    2CHTO   C12  832   3.312   7.606   3.658  0.0170  0.0799 -1.0420
    2CHTO   H25  833   3.360   7.506   3.666  0.5374  0.2470 -2.0612
    2CHTO    N3  834   3.421   7.714   3.680  0.1091  0.1699 -0.4601
    2CHTO   H12  835   3.379   7.814   3.680 -2.7502 -0.9716  1.1412
    2CHTO   H13  836   3.501   7.714   3.608 -1.5220  1.4278 -2.3412
    2CHTO   C15  837   3.210   7.605   3.785  0.0933  0.0696 -0.3705
    2CHTO   H28  838   3.166   7.703   3.806 -1.3613 -0.3470 -1.3672
    2CHTO   O10  839   3.264   7.553   3.906  0.1542 -0.1839  0.3805
    2CHTO    H4  840   3.229   7.591   3.984 -0.3059 -0.8671  0.5153
    2CHTO    O5  841   3.098   7.520   3.763 -0.6970 -0.5986 -0.2368
    2CHTO   C10  842   3.032   7.531   3.641  0.8714  0.0635  0.2680
    2CHTO   H23  843   2.991   7.632   3.634 -3.3233 -1.4545  1.5749
    2CHTO   C17  844   2.910   7.434   3.654  0.5089 -0.3375  0.5849
    2CHTO   O12  845   2.815   7.452   3.547  0.3552 -0.2543 -0.0106
    2CHTO    H6  846   2.767   7.533   3.549 -0.7170 -0.9082  1.4613
    3CHTO  H203  847   6.568   2.372   2.435  1.3116  0.2899  1.1777
    3CHTO   O82  848   6.557   2.288   2.474 -0.0345  0.0573  0.3543
    3CHTO  C123  849   6.609   2.181   2.392 -0.8597  0.3985  0.0571
    3CHTO  H227  850   6.711   2.206   2.359 -1.1776  0.8237 -0.6204
    3CHTO   O77  851   6.626   2.069   2.481 -0.6645 -0.6540  0.5001
    3CHTO  C118  852   6.683   1.950   2.422  0.2322  0.4872  0.2333
    3CHTO  H222  853   6.779   1.978   2.375 -0.5170 -1.7725 -2.8515
    3CHTO  C125  854   6.705   1.837   2.535 -0.2487  0.1220 -0.8319
    3CHTO   O84  855   6.812   1.752   2.504 -0.5074  0.0031  0.4885
    3CHTO  H205  856   6.800   1.715   2.419 -0.5133 -1.5436  1.1643
    3CHTO  C114  857   6.595   1.899   2.311  0.3633 -0.3861 -0.5902
    3CHTO  H218  858   6.496   1.875   2.349  0.0207  0.0202 -1.2293
    3CHTO  C116  859   6.575   2.002   2.201 -0.5244  0.0002 -0.2209
    3CHTO  H220  860   6.673   2.011   2.149 -0.4446  1.2023  0.1126
    3CHTO   O79  861   6.489   1.938   2.109  0.3285  0.0751 -0.3968
    3CHTO  H201  862   6.519   1.963   2.024  1.3804  0.2954  0.0260
    3CHTO  C120  863   6.525   2.136   2.270 -0.3826  0.1548  0.6297
    3CHTO  H224  864   6.420   2.118   2.302 -0.6457  1.3391  0.4590
    3CHTO   N21  865   6.517   2.244   2.168 -0.5267  0.2037  0.2287
    3CHTO  H211  866   6.419   2.254   2.122 -0.4226 -0.9314 -0.2435
    3CHTO  H212  867   6.594   2.235   2.093  1.1216 -0.5637  1.9716
    3CHTO   O75  868   6.665   1.785   2.259  0.3330 -0.0179 -0.6180
    3CHTO  C112  869   6.573   1.643   2.253 -0.0839  0.1459  0.2431
    3CHTO  H216  870   6.515   1.634   2.160  2.0326 -0.2873 -1.0736
    3CHTO   O73  871   6.487   1.639   2.369 -0.2784 -0.0311 -0.2663
    3CHTO  C113  872   6.400   1.528   2.356  0.2819  0.0279 -0.2984
    3CHTO  H217  873   6.356   1.529   2.254 -1.2387  1.1424  0.3436
    3CHTO  C124  874   6.294   1.538   2.469 -0.0026 -0.4275 -0.9425
    3CHTO   O83  875   6.174   1.471   2.429 -0.1728 -0.0554  0.5471
    3CHTO  H204  876   6.182   1.402   2.365  0.0495  1.3558 -0.9730
    3CHTO  C109  877   6.482   1.388   2.372 -0.1728 -0.5777  0.5356
    3CHTO  H213  878   6.529   1.387   2.472  1.8194 -0.0707 -0.3872
    3CHTO  C110  879   6.584   1.384   2.256  0.2850  0.5593  0.5142
    3CHTO  H214  880   6.522   1.365   2.168 -0.6971  1.6795  0.9588
    3CHTO   O78  881   6.668   1.272   2.264  0.4256 -0.0474  0.3136
    3CHTO  H200  882   6.709   1.247   2.184  1.7053  1.0493  0.6081
    3CHTO  C111  883   6.669   1.515   2.247 -0.3752  0.1363  0.3724
    3CHTO  H215  884   6.735   1.520   2.336 -0.1868 -0.1549  0.2510
    3CHTO   N19  885   6.758   1.519   2.124 -0.1393 -0.3977  0.1468
    3CHTO  H207  886   6.858   1.558   2.140 -0.0570 -0.1638 -0.8523
    3CHTO  H208  887   6.720   1.578   2.042  0.1998 -0.4556 -0.0534
    3CHTO   O74  888   6.397   1.279   2.365 -0.0135  0.1725  0.1180
    3CHTO  C115  889   6.428   1.150   2.463  0.1537  0.2150  0.0599
    3CHTO  H219  890   6.525   1.155   2.513 -0.5904  0.0267  1.5501
    3CHTO   O76  891   6.324   1.143   2.595  0.1923  0.4490  0.4343
    3CHTO  C122  892   6.187   1.127   2.551 -0.8319  0.4952  0.7246
    3CHTO  H226  893   6.165   1.211   2.485  0.0347 -0.1025 -0.3243
    3CHTO  C126  894   6.084   1.121   2.666  0.6709  0.6547  0.1133
    3CHTO   O85  895   5.956   1.128   2.608  0.0876  0.4397  0.0499
    3CHTO  H206  896   5.909   1.050   2.633 -0.6225 -0.2807 -3.3069
    3CHTO  C121  897   6.176   1.000   2.456  0.0814  0.4248 -0.0099
    3CHTO  H225  898   6.106   0.927   2.502  0.6674  1.1852  2.1638
    3CHTO   O81  899   6.119   1.042   2.336  0.5097 -0.0747  0.0006
    3CHTO  H202  900   6.036   1.084   2.346 -1.0046 -3.1145  0.8711
    3CHTO  C119  901   6.308   0.922   2.432  0.4947  0.5519 -0.4774
    3CHTO  H223  902   6.344   0.878   2.525  0.1440  1.1237 -0.0681
    3CHTO  C117  903   6.419   1.019   2.374 -0.1593  0.8232  0.1854
    3CHTO  H221  904   6.393   1.051   2.273  1.2371  0.7686 -0.2040
    3CHTO   N20  905   6.559   0.946   2.355 -0.3425 -0.0330 -0.4769
    3CHTO  H209  906   6.567   0.954   2.248  1.9830 -1.6855 -0.4409
    3CHTO  H210  907   6.561   0.838   2.363  0.2605 -0.1406 -1.9754
    3CHTO   O80  908   6.276   0.796   2.337 -0.6528  0.1789  0.1962
    3CHTO  C103  909   6.205   0.667   2.392  0.3527  0.0361  0.0069
    3CHTO  H190  910   6.207   0.657   2.500 -1.1381  2.6898  0.2992
    3CHTO  C101  911   6.050   0.648   2.350  0.0711  0.4011 -0.3316
    3CHTO  H188  912   6.049   0.658   2.241  2.0930 -3.4975 -0.7857
    3CHTO   O68  913   5.963   0.732   2.419 -0.1322  0.1176  0.0737
    3CHTO  H168  914   5.880   0.688   2.415  0.5801 -1.2617  0.3827
    3CHTO   C99  915   6.002   0.495   2.375 -0.6123  0.1011 -0.1225
    3CHTO  H186  916   5.989   0.483   2.484 -1.7854 -1.1082 -0.3790
    3CHTO   N17  917   5.875   0.461   2.309 -0.3205  0.0042  0.3594
    3CHTO  H174  918   5.840   0.363   2.338 -0.8545  0.4789  1.3449
    3CHTO  H175  919   5.892   0.454   2.202 -2.5363  0.9435 -0.0708
    3CHTO   C97  920   6.112   0.394   2.329  0.1036 -0.0175  0.0579
    3CHTO  H184  921   6.117   0.393   2.219  2.1897  0.7357  0.1135
    3CHTO   O64  922   6.243   0.426   2.385 -0.1425  0.0683  0.4258
    3CHTO  C104  923   6.296   0.553   2.335  0.7117  0.6035 -0.2295
    3CHTO  H191  924   6.300   0.552   2.227 -2.2867 -4.0351 -0.4569
    3CHTO  C108  925   6.443   0.567   2.378  0.1464  0.0409  0.4072
    3CHTO   O71  926   6.470   0.591   2.517 -0.2289  0.0468 -0.1820
    3CHTO  H171  927   6.400   0.562   2.573 -0.8279  1.8054  0.0033
    3CHTO   O62  928   6.083   0.261   2.378  0.2445 -0.4096 -0.4546
    3CHTO   C91  929   6.155   0.148   2.329 -0.5152  0.3999  0.0827
    3CHTO  H178  930   6.232   0.180   2.259  0.0668 -1.2099 -0.0243
    3CHTO   C92  931   6.063   0.055   2.241 -0.1178  0.4122  0.8092
    3CHTO  H179  932   5.971   0.035   2.298  0.0300 -0.5055  0.7409
    3CHTO   O66  933   6.013   0.136   2.136  0.3632  0.5493  0.0052
    3CHTO  H166  934   6.081   0.180   2.088  0.3400 -1.7417 -2.2610
    3CHTO   C93  935   6.132  -0.078   2.191 -0.1162 -1.0703  0.2461
    3CHTO  H180  936   6.211  -0.041   2.125  1.4895 -4.0048  0.4606
    3CHTO   N16  937   6.039  -0.164   2.110 -0.0496 -0.1643 -0.3114
    3CHTO  H172  938   6.080  -0.262   2.092 -0.2735  0.0173 -1.8647
    3CHTO  H173  939   6.000  -0.118   2.020  0.1017 -1.1385 -0.8935
    3CHTO   C94  940   6.191  -0.149   2.316  0.3096 -0.9643  0.1359
    3CHTO  H181  941   6.113  -0.185   2.383  0.1807  0.0295  0.5314
    3CHTO   O61  942   6.276  -0.062   2.394 -0.0173  0.0068  1.1264
    3CHTO   C95  943   6.225   0.062   2.445  0.4290 -0.1405  0.3891
    3CHTO  H182  944   6.149   0.038   2.519 -0.4119  0.5530 -0.2384
    3CHTO  C106  945   6.339   0.133   2.529  0.7413  0.3460  0.1093
    3CHTO   O69  946   6.378   0.044   2.627 -0.0698  0.0361 -0.3510
    3CHTO  H169  947   6.430   0.082   2.695  2.3853 -0.6370 -1.7818
    3CHTO   O63  948   6.293  -0.279   2.263 -0.3046 -0.1820  0.2063
    3CHTO   C96  949   6.240  -0.427   2.336  0.0505  0.5275 -0.1741
    3CHTO  H183  950   6.316  -0.502   2.319  0.8311  0.7303  2.1786
    3CHTO   C98  951   6.106  -0.482   2.279 -0.0934  0.2033  0.3115
    3CHTO  H185  952   6.025  -0.411   2.299 -0.2939  0.1042 -0.1520
    3CHTO   O67  953   6.113  -0.483   2.136 -0.9510 -0.5056 -0.6591
    3CHTO  H167  954   6.177  -0.543   2.102  0.1063 -0.1518  0.6953
    3CHTO  C102  955   6.061  -0.622   2.347  0.2097  0.6668  0.4205
    3CHTO  H189  956   6.131  -0.693   2.300  0.3993 -0.1468  1.9131
    3CHTO   N18  957   5.923  -0.669   2.315 -0.0055  0.6799  0.3357
    3CHTO  H176  958   5.846  -0.654   2.389  0.5662  0.7242  0.9237
    3CHTO  H177  959   5.931  -0.776   2.304 -0.3073  0.5348  1.4994
    3CHTO  C105  960   6.082  -0.619   2.503 -0.5147 -0.4123  0.0132
    3CHTO  H192  961   5.995  -0.573   2.550  0.4133  0.0012  1.3450
    3CHTO   O65  962   6.181  -0.532   2.556 -0.5317  0.3637 -0.1899
    3CHTO  C100  963   6.223  -0.407   2.495 -0.1072 -0.6573 -0.1044
    3CHTO  H187  964   6.148  -0.330   2.519  1.7417  1.5353 -1.2086
    3CHTO  C107  965   6.360  -0.369   2.551  0.3920 -0.5204 -0.3441
    3CHTO   O70  966   6.357  -0.336   2.688 -0.0833 -0.1979 -0.5553
    3CHTO  H170  967   6.282  -0.281   2.703 -0.6543 -1.0410 -0.2979
    3CHTO   O57  968   6.120  -0.763   2.551  0.4819  0.6328 -0.1831
    3CHTO   C85  969   6.072  -0.825   2.664 -0.1589 -0.0593 -0.5952
    3CHTO  H157  970   6.141  -0.912   2.670 -0.8104 -0.5242  0.2451
    3CHTO   C83  971   5.934  -0.889   2.641 -0.0472 -0.1350 -0.2538
    3CHTO  H155  972   5.943  -0.951   2.551  1.0277  0.3457 -0.4812
    3CHTO   O56  973   5.830  -0.796   2.629 -0.2162 -0.2018 -0.2783
    3CHTO  H135  974   5.841  -0.707   2.658 -1.9916 -0.8066  2.4537
    3CHTO   C81  975   5.904  -0.985   2.760 -0.3767  0.6218  0.3087
    3CHTO  H153  976   5.989  -1.053   2.761 -0.7715  0.1224  0.3171
    3CHTO   N14  977   5.789  -1.068   2.731 -0.0821 -0.2598 -0.2801
    3CHTO  H141  978   5.755  -1.117   2.820  0.2592  0.9602  0.5300
    3CHTO  H142  979   5.708  -1.014   2.686  1.6337  0.1063 -3.0679
    3CHTO   C79  980   5.902  -0.904   2.894  0.8203 -0.7326 -0.3274
    3CHTO  H151  981   5.883  -0.976   2.974 -0.6350 -0.1646 -0.1375
    3CHTO   O52  982   6.030  -0.836   2.917  0.2017 -0.4772  0.3461
    3CHTO   C86  983   6.071  -0.749   2.798  0.1091 -0.2225  0.2652
    3CHTO  H158  984   5.996  -0.667   2.794 -0.3362 -0.6688 -0.4151
    3CHTO   C90  985   6.212  -0.683   2.828  0.3797 -0.7820  0.1209
    3CHTO   O60  986   6.189  -0.608   2.948  0.3495  0.1236  0.0188
    3CHTO  H138  987   6.266  -0.620   3.000 -0.1859 -0.1060  0.7578
    3CHTO   O50  988   5.786  -0.810   2.897  0.3305  0.4637  0.2223
    3CHTO   C73  989   5.697  -0.758   2.997  1.0936  0.4610 -0.5259
    3CHTO  H145  990   5.747  -0.772   3.094 -1.7447  2.1481  1.2755
    3CHTO   C74  991   5.560  -0.850   3.003  0.2803  0.0312  1.3164
    3CHTO  H146  992   5.570  -0.959   3.007  0.8877  0.0694  0.8948
    3CHTO   O54  993   5.497  -0.821   3.128 -0.8348 -0.0953  0.6045
    3CHTO  H133  994   5.425  -0.880   3.143 -1.2084  0.7578  2.2911
    3CHTO   C75  995   5.477  -0.805   2.878 -0.1061 -0.0037 -0.4370
    3CHTO  H147  996   5.530  -0.835   2.787  0.1029 -0.1558 -0.2658
    3CHTO   N13  997   5.351  -0.887   2.874 -0.6372 -0.7567  0.0555
    3CHTO  H139  998   5.301  -0.879   2.969  1.5058  0.5752  1.1191
    3CHTO  H140  999   5.354  -0.985   2.830 -0.7892 -1.4698  1.5876
    3CHTO   C76 1000   5.445  -0.649   2.873 -0.4939 -0.2790 -0.6220
    3CHTO  H148 1001   5.383  -0.611   2.953 -1.1223 -0.8551 -0.8225
    3CHTO   O49 1002   5.575  -0.575   2.873  0.6743 -0.2825 -0.4540
    3CHTO   C77 1003   5.663  -0.606   2.978 -0.0313 -0.2168 -0.8793
    3CHTO  H149 1004   5.636  -0.561   3.074  1.1862 -1.2331 -0.0386
    3CHTO   C88 1005   5.793  -0.531   2.947  0.6319  0.1692 -0.3619
    3CHTO   O58 1006   5.886  -0.516   3.052  0.8618  0.2150 -0.5060
    3CHTO  H136 1007   5.934  -0.589   3.085 -2.2613 -1.9040 -0.4396
    3CHTO   O51 1008   5.387  -0.611   2.730 -0.4537  0.4661  0.5035
    3CHTO   C78 1009   5.376  -0.462   2.685 -0.0597 -0.8254 -0.2428
    3CHTO  H150 1010   5.445  -0.387   2.729  1.2495 -1.3648 -1.3589
    3CHTO   C80 1011   5.230  -0.410   2.700 -0.4707  0.1601 -0.3191
    3CHTO  H152 1012   5.160  -0.477   2.646 -0.8787 -0.3386  0.8211
    3CHTO   O55 1013   5.187  -0.400   2.837  0.5118  0.4364 -0.1261
    3CHTO  H134 1014   5.147  -0.476   2.875 -0.8231  1.5826  0.8115
    3CHTO   C84 1015   5.216  -0.269   2.625  0.2981 -0.7115 -0.1459
    3CHTO  H156 1016   5.266  -0.188   2.678 -0.9201  0.8391 -1.3254
    3CHTO   N15 1017   5.072  -0.220   2.619 -0.1666 -0.9376 -0.1408
    3CHTO  H143 1018   5.053  -0.115   2.613  1.0234 -0.5452  2.2847
    3CHTO  H144 1019   5.019  -0.270   2.541  0.7025  0.2995 -1.5564
    3CHTO   C87 1020   5.277  -0.268   2.485 -0.6232  0.2663  0.1419
    3CHTO  H159 1021   5.210  -0.331   2.426  1.5506  0.5625 -2.7910
    3CHTO   O53 1022   5.397  -0.326   2.487 -0.3744 -0.0392 -0.9803
    3CHTO   C82 1023   5.409  -0.463   2.540  0.2178 -0.4937  0.2053
    3CHTO  H154 1024   5.348  -0.536   2.486 -1.1390  0.1005  0.9128
    3CHTO   C89 1025   5.559  -0.508   2.521  0.2795  0.1049 -0.0942
    3CHTO   O59 1026   5.585  -0.561   2.388 -0.0644  0.2358  0.6661
    3CHTO  H137 1027   5.532  -0.636   2.368  0.8894 -0.2207 -0.1847
    3CHTO   O45 1028   5.288  -0.106   2.422 -0.3891  0.1261 -0.2639
    3CHTO   C67 1029   5.418  -0.046   2.430  0.2711 -0.2910  0.0031
    3CHTO  H124 1030   5.478  -0.093   2.507 -0.8310 -1.9870 -0.1567
    3CHTO   C65 1031   5.485  -0.059   2.289 -0.1868  0.0361 -0.0150
    3CHTO  H122 1032   5.410  -0.070   2.211 -0.1386 -1.9151  0.2065
    3CHTO   O44 1033   5.563  -0.180   2.295 -0.5689 -0.3053  0.0310
    3CHTO  H102 1034   5.597  -0.200   2.210 -1.3115  2.1005 -0.8739
    3CHTO   C63 1035   5.570   0.081   2.248  0.3121 -0.7907  0.2299
    3CHTO  H120 1036   5.499   0.157   2.216 -0.0959 -2.2089 -2.3990
    3CHTO   N11 1037   5.651   0.069   2.125 -0.2297  0.1423  1.0406
    3CHTO  H108 1038   5.739   0.012   2.145  0.3359  0.9274  0.8271
    3CHTO  H109 1039   5.689   0.163   2.091  0.0633  0.3368  1.9106
    3CHTO   C61 1040   5.627   0.140   2.380  0.0972  0.1391  0.1619
    3CHTO  H118 1041   5.670   0.235   2.348 -1.9661  1.1407  0.2451
    3CHTO   O40 1042   5.526   0.172   2.481 -0.5413  0.1004  0.0500
    3CHTO   C68 1043   5.401   0.109   2.469 -0.1872  0.3844 -0.1949
    3CHTO  H125 1044   5.333   0.166   2.402 -1.7893 -0.2246  0.8654
    3CHTO   C72 1045   5.346   0.129   2.615  0.1386  0.5176 -0.4737
    3CHTO   O48 1046   5.203   0.135   2.615 -0.4298  0.1604  0.2374
    3CHTO  H105 1047   5.178   0.156   2.703 -0.3180  1.6656 -0.0713
    3CHTO   O38 1048   5.732   0.054   2.444 -0.2663  0.7905  0.0398
    3CHTO   C55 1049   5.757   0.056   2.584 -0.3075  0.0995  0.3757
    3CHTO  H112 1050   5.659   0.061   2.634 -0.0076  3.8538  0.7537
    3CHTO   C56 1051   5.854   0.182   2.615 -0.2824  0.1332  0.0697
    3CHTO  H113 1052   5.939   0.160   2.550 -0.0224 -0.9550  0.7719
    3CHTO   O42 1053   5.793   0.303   2.577  0.3956 -0.0132 -1.1827
    3CHTO  H100 1054   5.804   0.310   2.484 -0.2959 -0.4735 -1.3012
    3CHTO   C57 1055   5.892   0.181   2.765 -0.5977  0.0463  0.2035
    3CHTO  H114 1056   5.797   0.189   2.818 -1.5360 -2.3891 -1.0255
    3CHTO   N10 1057   5.983   0.288   2.812 -0.0259 -0.3931 -0.3722
    3CHTO  H106 1058   5.959   0.377   2.754 -0.5995 -1.1683 -1.3436
    3CHTO  H107 1059   5.979   0.310   2.917 -1.0907  0.7177 -0.6287
    3CHTO   C58 1060   5.948   0.048   2.808  0.7644 -0.4258  0.5699
    3CHTO  H115 1061   6.037   0.031   2.744 -0.1632 -2.1639 -0.2771
    3CHTO   O37 1062   5.851  -0.053   2.780 -0.1186 -0.0994 -0.1313
    3CHTO   C59 1063   5.823  -0.067   2.638  0.0781  0.3795  0.3341
    3CHTO  H116 1064   5.919  -0.089   2.591 -0.1099  0.9769 -0.3488
    3CHTO   C70 1065   5.740  -0.197   2.611 -0.0643  0.5019 -0.0189
    3CHTO   O46 1066   5.612  -0.194   2.674 -0.0778  0.5703 -0.3587
    3CHTO  H103 1067   5.590  -0.275   2.718  2.9223  0.2321  0.6634
    3CHTO   O39 1068   5.998   0.027   2.960 -0.4439 -1.1064  0.5284
    3CHTO   C60 1069   6.098  -0.069   2.973  0.5861 -0.1956  0.0289
    3CHTO  H117 1070   6.078  -0.153   2.907 -1.9194 -0.8419  1.5483
    3CHTO   C62 1071   6.246  -0.025   2.942 -0.8772 -0.0734  0.2354
    3CHTO  H119 1072   6.262  -0.013   2.833  0.0599  0.4255  0.4247
    3CHTO   O43 1073   6.258   0.097   3.010 -0.0094 -0.8053 -0.0271
    3CHTO  H101 1074   6.236   0.171   2.957  1.8737 -2.1202 -2.7441
    3CHTO   C66 1075   6.352  -0.133   2.996 -0.2319  0.2173  0.7798
    3CHTO  H123 1076   6.336  -0.226   2.942 -1.9041  1.3752 -0.7747
    3CHTO   N12 1077   6.497  -0.085   2.976 -0.3066  0.0297 -0.1063
    3CHTO  H110 1078   6.520  -0.042   2.880 -0.1270 -1.7829 -0.9112
    3CHTO  H111 1079   6.568  -0.166   2.985 -0.5365 -0.0020  1.6595
    3CHTO   C69 1080   6.324  -0.158   3.147  0.7034 -0.3948  0.5417
    3CHTO  H126 1081   6.326  -0.058   3.195 -1.0644 -1.4624  2.9494
    3CHTO   O41 1082   6.207  -0.221   3.159 -0.0536  0.3594  0.5090
    3CHTO   C64 1083   6.086  -0.123   3.120 -0.2246  0.6668 -0.0318
    3CHTO  H121 1084   6.086  -0.045   3.199 -0.5284 -0.2103  0.8442
    3CHTO   C71 1085   5.953  -0.203   3.138 -0.0132  0.4786  0.0531
    3CHTO   O47 1086   5.952  -0.253   3.276 -0.4698 -0.1376  0.6477
    3CHTO  H104 1087   5.909  -0.336   3.286  0.2978 -0.6808 -0.4915
    3CHTO   O34 1088   6.436  -0.251   3.221  0.5416 -0.2560  0.1851
    3CHTO   C49 1089   6.475  -0.396   3.199  0.6022  0.0443 -0.5134
    3CHTO   H91 1090   6.499  -0.393   3.092  1.3369  3.0444 -0.3100
    3CHTO   C47 1091   6.363  -0.499   3.245 -1.1126 -0.1565 -0.2060
    3CHTO   H89 1092   6.282  -0.495   3.169 -0.4654 -0.0744 -0.8921
    3CHTO   O33 1093   6.301  -0.480   3.369 -0.0041 -0.7381 -0.3834
    3CHTO   H70 1094   6.241  -0.411   3.349 -1.4489 -1.7661  0.3299
    3CHTO   C45 1095   6.427  -0.648   3.265 -0.2872  0.3672  0.6813
    3CHTO   H87 1096   6.465  -0.642   3.369 -1.3076  1.4745  0.9934
    3CHTO    N8 1097   6.340  -0.764   3.255  0.5029 -0.8215  0.2204
    3CHTO   H75 1098   6.390  -0.860   3.261  0.2543 -0.8733  2.1065
    3CHTO   H76 1099   6.292  -0.766   3.159 -0.5938 -1.1313  0.7564
    3CHTO   C43 1100   6.560  -0.665   3.173  0.2861 -0.4182  0.4248
    3CHTO   H85 1101   6.594  -0.766   3.198 -1.5886 -1.1205  0.1834
    3CHTO   O29 1102   6.662  -0.565   3.205  0.1042  0.0500 -0.4438
    3CHTO   C50 1103   6.613  -0.441   3.259 -0.2174 -0.2126  0.2008
    3CHTO   H92 1104   6.616  -0.450   3.368 -0.9915  0.0993  0.2514
    3CHTO   C54 1105   6.720  -0.337   3.234  0.0272  1.4919 -0.2202
    3CHTO   O36 1106   6.842  -0.346   3.309 -0.5250 -0.2806  0.0710
    3CHTO   H72 1107   6.906  -0.402   3.268  0.4422 -1.6372  3.2757
    3CHTO   O27 1108   6.534  -0.666   3.034 -0.4424 -0.3812 -0.7691
    3CHTO   C37 1109   6.602  -0.700   2.914  0.0552 -0.4424 -0.4703
    3CHTO   H79 1110   6.705  -0.737   2.927  0.4781  0.8541 -0.0866
    3CHTO   C38 1111   6.539  -0.823   2.847 -0.1965 -0.4254 -0.0279
    3CHTO   H80 1112   6.431  -0.800   2.842 -0.4922 -0.8770  3.2437
    3CHTO   O31 1113   6.536  -0.950   2.915 -0.4613  0.4361 -0.7379
    3CHTO   H68 1114   6.497  -0.952   3.000 -1.2148 -2.7114 -1.0966
    3CHTO   C39 1115   6.611  -0.843   2.704 -0.2817 -0.6280 -0.4051
    3CHTO   H81 1116   6.713  -0.874   2.726  0.4072  0.5246 -1.8703
    3CHTO    N7 1117   6.545  -0.954   2.627  0.5184  0.3156 -0.3483
    3CHTO   H73 1118   6.622  -1.007   2.572 -0.4494 -2.7575  1.1244
    3CHTO   H74 1119   6.467  -0.910   2.567  1.3890  0.0929 -1.6681
    3CHTO   C40 1120   6.628  -0.717   2.612 -0.2539  0.0712 -0.4091
    3CHTO   H82 1121   6.530  -0.698   2.567 -0.5903 -1.3374 -0.3185
    3CHTO   O26 1122   6.676  -0.607   2.690  0.2479 -0.4080  0.2312
    3CHTO   C41 1123   6.609  -0.576   2.819 -0.0684 -1.1575 -0.0634
    3CHTO   H83 1124   6.510  -0.539   2.789  0.6230  0.8489  0.0362
    3CHTO   C52 1125   6.695  -0.456   2.884  0.2181 -0.5399 -0.9466
    3CHTO   O35 1126   6.841  -0.477   2.891  0.2026  0.0164 -0.2931
    3CHTO   H71 1127   6.872  -0.506   2.807  1.4238 -1.7616  0.7435
    3CHTO   O28 1128   6.710  -0.735   2.490  0.3685  0.1425  0.1095
    3CHTO   C42 1129   6.732  -0.634   2.392 -0.0728 -0.0032 -0.0802
    3CHTO   H84 1130   6.787  -0.678   2.308  0.2909  1.2838 -0.5280
    3CHTO   C44 1131   6.824  -0.518   2.443 -0.6063  0.7155 -0.1749
    3CHTO   H86 1132   6.770  -0.480   2.530 -1.1128 -1.3111  0.4037
    3CHTO   O32 1133   6.948  -0.587   2.486  0.1285 -0.1154 -0.2761
    3CHTO   H69 1134   6.936  -0.609   2.576 -0.8229 -1.3247 -0.6708
    3CHTO   C48 1135   6.850  -0.406   2.342 -0.2476  0.0530 -0.9654
    3CHTO   H90 1136   6.885  -0.448   2.247  2.7998  1.1073 -0.3579
    3CHTO    N9 1137   6.947  -0.304   2.385  0.3247 -0.1963 -0.6673
    3CHTO   H77 1138   6.913  -0.258   2.476  0.5403 -2.1860  0.4535
    3CHTO   H78 1139   6.950  -0.223   2.314 -2.2380  1.1002  0.6264
    3CHTO   C51 1140   6.708  -0.359   2.294 -0.0815 -0.1495  0.8500
    3CHTO   H93 1141   6.654  -0.318   2.379  0.9803  0.1813  1.3729
    3CHTO   O30 1142   6.638  -0.470   2.237 -0.0956  0.2352 -0.2509
    3CHTO   C46 1143   6.603  -0.575   2.335  0.6161 -0.3570 -0.5176
    3CHTO   H88 1144   6.541  -0.532   2.414  0.9667  1.0228 -0.9871
    3CHTO   C53 1145   6.524  -0.678   2.256 -0.3479  0.1212 -0.0816
    3CHTO   O72 1146   6.439  -0.752   2.337  0.0481  0.1892 -0.6019
    3CHTO  H199 1147   6.385  -0.810   2.286 -0.5243  0.5079 -0.3696
    3CHTO   O22 1148   6.705  -0.268   2.180  0.1177 -0.0872 -0.2988
    3CHTO   C31 1149   6.618  -0.150   2.183  0.9817 -0.4638 -0.1541
    3CHTO   H59 1150   6.526  -0.177   2.238  0.9338  0.6074  0.2955
    3CHTO   C29 1151   6.683  -0.030   2.262 -0.3366 -0.1161 -0.4987
    3CHTO   H57 1152   6.778  -0.029   2.206  0.9457 -1.8863  1.5511
    3CHTO   O21 1153   6.705  -0.073   2.397 -0.3885  0.5213  0.5498
    3CHTO   H37 1154   6.650  -0.024   2.454 -1.3683  0.6479 -0.4901
    3CHTO   C27 1155   6.606   0.106   2.245 -0.3076  0.6307 -0.5597
    3CHTO   H55 1156   6.512   0.093   2.301  0.0626 -0.8824 -0.2808
    3CHTO    N5 1157   6.679   0.224   2.303  0.1511 -0.5488 -0.6834
    3CHTO   H43 1158   6.784   0.226   2.282  0.4852  3.8976  0.9265
    3CHTO   H44 1159   6.670   0.216   2.410  0.5591 -0.1514 -0.6181
    3CHTO   C25 1160   6.560   0.135   2.097  0.4701  0.4264 -0.2936
    3CHTO   H53 1161   6.653   0.148   2.041  0.8569  0.3899  0.3338
    3CHTO   O17 1162   6.497   0.014   2.049 -0.1759  0.3906  0.3926
    3CHTO   C32 1163   6.577  -0.107   2.038 -1.0782 -0.4852 -0.1285
    3CHTO   H60 1164   6.672  -0.082   1.990  0.0903 -0.7903  1.9904
    3CHTO   C36 1165   6.500  -0.223   1.971  0.4029  0.1002  0.3894
    3CHTO   O25 1166   6.571  -0.345   1.959 -0.6481  0.7942  0.3335
    3CHTO   H40 1167   6.603  -0.358   2.046 -0.5585 -2.5443 -0.1253
    3CHTO   O15 1168   6.472   0.253   2.074 -0.4282 -0.7641  0.6926
    3CHTO   C19 1169   6.436   0.311   1.942 -0.2908  0.1211  0.4205
    3CHTO   H47 1170   6.497   0.245   1.879 -0.5135  0.4836 -0.1737
    3CHTO   C20 1171   6.284   0.284   1.922 -0.1210 -0.1791 -0.2068
    3CHTO   H48 1172   6.220   0.328   2.000 -1.7545 -0.1515 -1.5373
    3CHTO   O19 1173   6.266   0.140   1.927  0.3825 -0.1112 -0.3299
    3CHTO   H35 1174   6.178   0.117   1.901  0.2203  0.3893 -0.2367
    3CHTO   C21 1175   6.229   0.341   1.782  0.7799  0.2336  0.0981
    3CHTO   H49 1176   6.280   0.282   1.706 -2.2375 -1.3735 -0.7593
    3CHTO    N4 1177   6.082   0.319   1.758 -0.2966 -0.2273 -0.2199
    3CHTO   H41 1178   6.064   0.213   1.751  0.0472 -0.4227  1.6939
    3CHTO   H42 1179   6.025   0.356   1.842 -2.3802 -1.0129 -1.2538
    3CHTO   C22 1180   6.280   0.485   1.761 -0.5184  0.0435  0.8088
    3CHTO   H50 1181   6.213   0.552   1.815 -1.0055 -1.0518  1.5874
    3CHTO   O14 1182   6.423   0.500   1.791  0.0744  0.3799  0.5788
    3CHTO   C23 1183   6.471   0.458   1.918  0.7158  0.6521 -0.0158
    3CHTO   H51 1184   6.429   0.524   1.995  0.7375  2.0545 -1.1951
    3CHTO   C34 1185   6.625   0.474   1.922 -0.5561 -0.7570 -0.8010
    3CHTO   O23 1186   6.659   0.606   1.868  0.2459  0.6982 -0.2439
    3CHTO   H38 1187   6.750   0.616   1.886 -0.4273  2.4536  2.4455
    3CHTO   O16 1188   6.268   0.513   1.627  0.2785 -0.3532  0.0587
    3CHTO   C24 1189   6.235   0.665   1.578 -0.0079 -0.0009 -0.0800
    3CHTO   H52 1190   6.263   0.742   1.650 -0.4152  0.7572 -0.7143
    3CHTO   C26 1191   6.083   0.675   1.544  0.4818 -0.6981 -0.6324
    3CHTO   H54 1192   6.060   0.599   1.466 -1.5726  0.5081 -1.2578
    3CHTO   O20 1193   6.002   0.662   1.662  0.4052  0.0002  0.2806
    3CHTO   H36 1194   5.932   0.601   1.648  0.5865 -0.1019 -0.2158
    3CHTO   C30 1195   6.048   0.820   1.483 -0.8179 -0.1102  0.4015
    3CHTO   H58 1196   6.045   0.893   1.566 -1.1113  0.4563 -0.1096
    3CHTO    N6 1197   5.909   0.835   1.433 -0.0890 -0.6898 -0.6433
    3CHTO   H45 1198   5.905   0.828   1.325 -1.5816 -0.6151 -0.5933
    3CHTO   H46 1199   5.866   0.927   1.468  0.3195 -0.7879  0.1196
    3CHTO   C33 1200   6.153   0.862   1.373  0.3873 -0.0629 -1.2531
    3CHTO   H61 1201   6.128   0.820   1.274  3.2282  0.0858 -2.0683
    3CHTO   O18 1202   6.293   0.831   1.404  0.1423  0.5803 -0.1885
    3CHTO   C28 1203   6.319   0.697   1.453  0.4733  0.1182  0.1826
    3CHTO   H56 1204   6.301   0.621   1.377  2.2839  1.9209 -2.0994
    3CHTO   C35 1205   6.469   0.701   1.505  0.6546  0.3695  0.4868
    3CHTO   O24 1206   6.554   0.701   1.396  0.3595 -0.3914 -0.3720
    3CHTO   H39 1207   6.628   0.755   1.414 -0.9376  1.0817  0.6187
    3CHTO    O9 1208   6.137   1.005   1.348  0.1707  0.4306  0.0289
    3CHTO   C13 1209   6.146   1.058   1.197 -1.1256  0.3677 -0.2743
    3CHTO   H26 1210   6.159   0.963   1.141  3.1418  1.4824 -1.3797
    3CHTO   C11 1211   6.274   1.145   1.179  0.2297 -0.3282 -0.5392
    3CHTO   H24 1212   6.360   1.085   1.212 -0.1117 -1.7854 -2.2672
    3CHTO    O8 1213   6.262   1.258   1.269 -0.0665 -0.1044 -0.0014
    3CHTO    H3 1214   6.347   1.270   1.307 -1.3686  1.2824  2.6166
    3CHTO    C9 1215   6.284   1.191   1.034  0.6951  0.5008  0.1015
    3CHTO   H22 1216   6.273   1.100   0.974 -1.0953  0.1120  0.9858
    3CHTO    N2 1217   6.421   1.241   0.993 -0.0534 -0.2442 -0.3873
    3CHTO   H10 1218   6.445   1.201   0.896 -1.3211 -1.9622 -0.0373
    3CHTO   H11 1219   6.498   1.192   1.050 -0.1776 -1.4264 -1.2032
    3CHTO    C7 1220   6.153   1.280   1.004 -0.6656  0.1219  0.8114
    3CHTO   H20 1221   6.162   1.286   0.893 -2.0047 -1.9557  0.5504
    3CHTO    O4 1222   6.029   1.205   1.027  0.1323 -0.0413  0.0109
    3CHTO   C14 1223   6.009   1.117   1.144 -0.4034 -0.0849  0.0835
    3CHTO   H27 1224   5.957   1.025   1.110  4.8773 -2.4612 -1.9851
    3CHTO   C18 1225   5.910   1.201   1.243  0.4251  0.7324 -0.1448
    3CHTO   O13 1226   5.796   1.232   1.166 -0.2305 -0.2914  0.1493
    3CHTO    H7 1227   5.740   1.160   1.146 -0.7629  0.1115  0.1800
    3CHTO    O2 1228   6.144   1.442   1.082  0.2028  0.5515  0.0392
    3CHTO    C1 1229   6.159   1.552   0.999  0.1682 -0.3045  0.2830
    3CHTO   H14 1230   6.168   1.521   0.893  1.2449  0.1850  0.2195
    3CHTO    C2 1231   6.284   1.631   1.036 -0.1561 -0.3003 -0.5095
    3CHTO   H15 1232   6.286   1.626   1.146 -1.1674  2.5881 -0.3215
    3CHTO    O6 1233   6.398   1.558   0.990 -0.2544  0.2317  0.1044
    3CHTO    H1 1234   6.413   1.482   1.043 -1.2988 -0.8366 -1.1014
    3CHTO    C3 1235   6.293   1.779   0.978 -0.0769  0.1048 -0.4863
    3CHTO   H16 1236   6.327   1.778   0.873  0.4048  0.5138 -0.3422
    3CHTO    N1 1237   6.403   1.867   1.044  0.3908  0.5753 -0.3183
    3CHTO    H8 1238   6.462   1.819   1.121  0.3364 -2.6116 -2.1640
    3CHTO    H9 1239   6.355   1.961   1.067 -0.0115 -0.1146  1.7356
    3CHTO    C4 1240   6.155   1.847   0.974 -0.1253 -0.1865 -0.5540
    3CHTO   H17 1241   6.133   1.878   1.076  1.6693 -0.9507  0.0756
    3CHTO    O1 1242   6.055   1.761   0.927  0.6052  0.1782 -0.4012
    3CHTO    C5 1243   6.034   1.648   1.009 -0.2617  0.0258  0.3486
    3CHTO   H18 1244   6.026   1.664   1.116 -1.1620  2.8120 -0.0752
    3CHTO   C16 1245   5.917   1.588   0.951  0.0871  0.1235  0.1607
    3CHTO   O11 1246   5.788   1.649   0.971  0.2770  0.6951 -0.0683
    3CHTO    H5 1247   5.752   1.596   1.040  0.7104  1.3792  0.6902
    3CHTO    O3 1248   6.164   1.966   0.883  0.8193  0.0813 -0.2707
    3CHTO    C6 1249   6.077   2.074   0.930  0.8403 -0.5175  0.1163
    3CHTO   H19 1250   6.011   2.040   1.009  1.4460 -1.6450  0.1396
    3CHTO    C8 1251   6.158   2.191   0.997 -0.1747 -0.1676  0.1782
    3CHTO   H21 1252   6.239   2.221   0.932  0.5545 -0.0694  1.1240
    3CHTO    O7 1253   6.224   2.137   1.112  1.1874  0.7164 -0.2281
    3CHTO    H2 1254   6.176   2.138   1.193  2.0154  2.0885  0.2752
    3CHTO   C12 1255   6.058   2.316   1.027 -0.0410  0.2152 -0.2051
    3CHTO   H25 1256   5.978   2.281   1.095  0.6221 -1.7229 -0.3943
    3CHTO    N3 1257   6.131   2.420   1.105 -0.2728 -0.0679  0.7567
    3CHTO   H12 1258   6.203   2.475   1.046  0.9304 -1.3125  1.0355
    3CHTO   H13 1259   6.180   2.350   1.171 -0.3143 -0.5153  0.3167
    3CHTO   C15 1260   5.995   2.363   0.899 -0.3654 -0.6514 -0.5398
    3CHTO   H28 1261   6.067   2.400   0.826 -0.6256 -0.7511 -0.8459
    3CHTO   O10 1262   5.870   2.482   0.911  0.1448 -0.4024 -0.0715
    3CHTO    H4 1263   5.845   2.490   0.822 -0.5704 -0.4902  0.1219
    3CHTO    O5 1264   5.917   2.252   0.847 -0.0843 -0.0757 -0.5689
    3CHTO   C10 1265   5.984   2.128   0.813  0.2601  0.2918 -0.5904
    3CHTO   H23 1266   6.053   2.146   0.731  0.0904 -0.8792 -1.0035
    3CHTO   C17 1267   5.878   2.027   0.755 -1.2305  0.5075 -0.6703
    3CHTO   O12 1268   5.940   1.920   0.691  0.5158 -0.0356 -0.2367
    3CHTO    H6 1269   5.997   1.953   0.624 -1.0850 -0.4813 -1.8557
    4CHTO  H203 1270   6.248   5.700   0.727  0.8764  0.2753 -1.2048
    4CHTO   O82 1271   6.289   5.778   0.761 -0.0737  0.1156  0.3772
    4CHTO  C123 1272   6.210   5.892   0.761  0.5170 -0.6191 -0.2607
    4CHTO  H227 1273   6.131   5.876   0.836 -0.1139  0.2087 -0.7513
    4CHTO   O77 1274   6.297   5.996   0.806 -0.3718 -0.3951 -0.0210
    4CHTO  C118 1275   6.233   6.121   0.829 -0.6784 -0.7338 -0.3838
    4CHTO  H222 1276   6.177   6.104   0.923  0.4023 -0.0956  0.3922
    4CHTO  C125 1277   6.340   6.236   0.864 -0.0735 -0.5751 -0.2254
    4CHTO   O84 1278   6.420   6.217   0.979  0.2273  0.0419 -0.1624
    4CHTO  H205 1279   6.365   6.188   1.050 -0.4666 -0.7423 -0.9909
    4CHTO  C114 1280   6.154   6.166   0.705 -0.5680  0.2923 -0.5678
    4CHTO  H218 1281   6.227   6.200   0.632 -0.0752 -1.8298 -1.0841
    4CHTO  C116 1282   6.066   6.057   0.637  0.1985 -0.7984  0.5405
    4CHTO  H220 1283   5.972   6.029   0.688  0.2697 -2.0859 -0.0247
    4CHTO   O79 1284   6.018   6.122   0.516 -0.1728  0.1642  0.0572
    4CHTO  H201 1285   5.933   6.162   0.525 -0.0929  0.6220 -1.1162
    4CHTO  C120 1286   6.148   5.935   0.622 -0.3386  0.5616 -0.4345
    4CHTO  H224 1287   6.226   5.960   0.548  0.8792 -1.2394  0.2177
    4CHTO   N21 1288   6.069   5.823   0.562 -0.0632 -0.2840 -0.1090
    4CHTO  H211 1289   6.141   5.757   0.515  0.6318 -0.4810  1.2059
    4CHTO  H212 1290   6.014   5.771   0.639  0.1102 -0.8057 -0.3314
    4CHTO   O75 1291   6.074   6.280   0.741  0.5038  0.1433  0.2530
    4CHTO  C112 1292   6.087   6.413   0.617  0.0602  0.2093  0.1937
    4CHTO  H216 1293   6.117   6.366   0.523 -2.8663 -0.6302 -0.3498
    4CHTO   O73 1294   6.194   6.497   0.670  0.1009 -0.5630  0.3152
    4CHTO  C113 1295   6.243   6.602   0.575 -0.6110  0.4918 -0.4806
    4CHTO  H217 1296   6.271   6.540   0.488 -0.0796 -0.3716  0.2985
    4CHTO  C124 1297   6.359   6.676   0.637 -0.5791 -0.3010  0.4717
    4CHTO   O83 1298   6.340   6.710   0.778  0.4118  0.5413  0.6005
    4CHTO  H204 1299   6.309   6.798   0.787  0.0439  0.5310 -0.4874
    4CHTO  C109 1300   6.123   6.703   0.544  0.1916  0.1599 -0.0759
    4CHTO  H213 1301   6.099   6.759   0.634 -2.0807 -0.2751 -0.3948
    4CHTO  C110 1302   6.000   6.612   0.502 -0.1015  0.0833  0.0227
    4CHTO  H214 1303   5.999   6.570   0.401 -1.3233  1.0114 -0.3611
    4CHTO   O78 1304   5.889   6.701   0.481  0.6930  0.5588 -0.3528
    4CHTO  H200 1305   5.804   6.676   0.511  1.3740 -0.2336  1.0274
    4CHTO  C111 1306   5.964   6.506   0.608 -0.4629  0.1541  0.0738
    4CHTO  H215 1307   5.955   6.549   0.708  0.7289 -2.0305  1.1555
    4CHTO   N19 1308   5.844   6.421   0.580 -0.0666 -0.0432  0.5903
    4CHTO  H207 1309   5.844   6.374   0.483 -2.0478 -0.2037  0.6325
    4CHTO  H208 1310   5.762   6.491   0.570 -2.4479 -3.0493 -1.9195
    4CHTO   O74 1311   6.152   6.791   0.433 -0.8243 -0.2083  0.1013
    4CHTO  C115 1312   6.071   6.944   0.430  0.1368 -0.0076 -0.2851
    4CHTO  H219 1313   5.963   6.933   0.443  0.1577  0.1020 -0.0223
    4CHTO   O76 1314   6.122   7.040   0.551 -0.0485  0.4192  0.0318
    4CHTO  C122 1315   6.269   7.064   0.545  0.2279 -0.1255 -0.5572
    4CHTO  H226 1316   6.315   6.977   0.593 -2.1917  0.6269  3.3847
    4CHTO  C126 1317   6.296   7.185   0.651  0.4405 -0.0903 -0.4036
    4CHTO   O85 1318   6.187   7.281   0.639 -0.6302  0.4575 -0.4215
    4CHTO  H206 1319   6.199   7.351   0.700 -0.3224 -0.1857  0.2570
    4CHTO  C121 1320   6.316   7.101   0.395  0.7502  1.0848  0.7208
    4CHTO  H225 1321   6.371   7.197   0.411 -1.1519  2.2997  0.1029
    4CHTO   O81 1322   6.391   6.992   0.342  0.5292 -0.0429 -0.0937
    4CHTO  H202 1323   6.380   6.976   0.250  0.3555 -1.4865  0.1566
    4CHTO  C119 1324   6.191   7.137   0.302 -0.0959 -0.8384 -0.8213
    4CHTO  H223 1325   6.141   7.224   0.344  2.5761  1.6968 -2.7019
    4CHTO  C117 1326   6.083   7.021   0.293 -0.6454 -0.1337 -0.0690
    4CHTO  H221 1327   6.108   6.937   0.228 -0.1910 -0.2019  0.1902
    4CHTO   N20 1328   5.953   7.072   0.245 -0.7966 -0.1785  0.2260
    4CHTO  H209 1329   5.966   7.121   0.150  0.6583 -0.3584  0.3298
    4CHTO  H210 1330   5.891   6.989   0.211 -0.9416 -0.5268  1.3209
    4CHTO   O80 1331   6.232   7.197   0.158 -0.1863 -0.3091  0.2514
    4CHTO  C103 1332   6.247   7.354   0.141 -0.7051  0.2935 -0.1902
    4CHTO  H190 1333   6.155   7.412   0.149 -0.8021  0.3688 -1.7099
    4CHTO  C101 1334   6.353   7.416   0.245  0.2320  0.1227 -0.0778
    4CHTO  H188 1335   6.436   7.347   0.264 -0.6137 -0.8428  0.1485
    4CHTO   O68 1336   6.283   7.421   0.387 -0.0980 -0.8696 -0.5070
    4CHTO  H168 1337   6.345   7.457   0.447 -0.8378 -1.4328  0.6073
    4CHTO   C99 1338   6.408   7.560   0.194  0.2749 -0.4678 -0.1405
    4CHTO  H186 1339   6.323   7.631   0.188  0.3528 -0.3867 -0.2812
    4CHTO   N17 1340   6.507   7.622   0.288  0.0340  0.7916  0.6801
    4CHTO  H174 1341   6.605   7.576   0.281  0.1453  1.2012 -0.5758
    4CHTO  H175 1342   6.514   7.727   0.264 -0.9059  0.9028  0.8877
    4CHTO   C97 1343   6.456   7.540   0.049 -1.3015 -0.2529 -0.3861
    4CHTO  H184 1344   6.538   7.467   0.060  0.8381  2.2208  0.6042
    4CHTO   O64 1345   6.351   7.494  -0.033 -0.0431  0.1790 -0.1075
    4CHTO  C104 1346   6.291   7.366  -0.000 -0.0397 -0.0306 -0.0067
    4CHTO  H191 1347   6.365   7.291  -0.025 -1.5793 -1.7335  0.4709
    4CHTO  C108 1348   6.177   7.349  -0.100 -0.3298 -0.2257 -0.2613
    4CHTO   O71 1349   6.120   7.216  -0.099  0.8166 -0.5100 -0.2382
    4CHTO  H171 1350   6.045   7.214  -0.155  0.5580  0.6086  0.0710
    4CHTO   O62 1351   6.506   7.663  -0.007  0.5238  0.0620  0.4466
    4CHTO   C91 1352   6.598   7.656  -0.121 -0.5660 -0.2089 -0.3347
    4CHTO  H178 1353   6.585   7.564  -0.177 -0.7507  0.0941 -0.7965
    4CHTO   C92 1354   6.745   7.673  -0.078 -0.2544 -0.6559  0.2787
    4CHTO  H179 1355   6.768   7.777  -0.051  0.2367 -1.6172  3.9533
    4CHTO   O66 1356   6.760   7.590   0.035 -0.1247  0.2415  0.4316
    4CHTO  H166 1357   6.810   7.629   0.104  0.7512 -0.2408  0.0659
    4CHTO   C93 1358   6.847   7.628  -0.188  0.6938  0.4167  0.9812
    4CHTO  H180 1359   6.849   7.518  -0.196  1.3346  0.5042 -0.0681
    4CHTO   N16 1360   6.988   7.662  -0.161 -0.1175 -0.2967 -0.4216
    4CHTO  H172 1361   7.019   7.641  -0.059  1.7014 -0.3624 -0.9738
    4CHTO  H173 1362   7.048   7.603  -0.229 -0.3219 -1.8576  0.7099
    4CHTO   C94 1363   6.794   7.682  -0.329  0.4725 -0.2457 -0.6713
    4CHTO  H181 1364   6.871   7.728  -0.391  0.8038 -0.4791 -0.4347
    4CHTO   O61 1365   6.684   7.770  -0.320 -0.0754 -0.2384 -0.2859
    4CHTO   C95 1366   6.575   7.772  -0.226 -0.2942  0.7781  0.0209
    4CHTO  H182 1367   6.571   7.869  -0.177 -0.0191  1.7253 -1.7914
    4CHTO  C106 1368   6.433   7.769  -0.302  0.3303 -0.3663  0.0015
    4CHTO   O69 1369   6.328   7.769  -0.206  0.2160  0.0050  0.1209
    4CHTO  H169 1370   6.255   7.720  -0.239  0.1012  0.6411 -0.5811
    4CHTO   O63 1371   6.738   7.545  -0.403  0.3698  0.4933 -0.0255
    4CHTO   C96 1372   6.805   7.492  -0.521  0.0988 -1.0118  0.3179
    4CHTO  H183 1373   6.750   7.406  -0.558  0.4947  0.0193 -2.7526
    4CHTO   C98 1374   6.949   7.446  -0.498 -0.7530 -0.1062  0.2313
    4CHTO  H185 1375   7.008   7.528  -0.454 -1.5954  0.0422  1.1202
    4CHTO   O67 1376   6.956   7.344  -0.399  1.0206  0.1175 -0.2485
    4CHTO  H167 1377   7.040   7.304  -0.392  3.0833  4.2584 -0.0520
    4CHTO  C102 1378   7.017   7.394  -0.641  0.2335  0.3888 -0.0257
    4CHTO  H189 1379   6.970   7.295  -0.657 -0.2042 -0.2266  4.4838
    4CHTO   N18 1380   7.162   7.368  -0.631 -0.3950 -0.1971 -0.0347
    4CHTO  H176 1381   7.196   7.361  -0.529  0.2943  0.7980 -0.1937
    4CHTO  H177 1382   7.227   7.438  -0.682 -0.9167 -1.4654 -2.5161
    4CHTO  C105 1383   6.977   7.487  -0.755 -0.1905  0.0700  0.2743
    4CHTO  H192 1384   7.036   7.578  -0.750 -0.6288  0.4376 -1.1835
    4CHTO   O65 1385   6.836   7.526  -0.758  0.4155 -0.2492  0.3017
    4CHTO  C100 1386   6.805   7.594  -0.639  0.3009 -0.5281  0.0750
    4CHTO  H187 1387   6.886   7.663  -0.611  1.5674 -0.8758 -2.5502
    4CHTO  C107 1388   6.669   7.668  -0.658 -0.5130  0.1744  0.2289
    4CHTO   O70 1389   6.565   7.574  -0.692 -0.3712 -0.4052  0.9496
    4CHTO  H170 1390   6.561   7.562  -0.785 -1.0132  0.2713  0.8840
    4CHTO   O57 1391   6.996   7.426  -0.892  0.0119 -0.6058  0.5065
    4CHTO   C85 1392   7.093   7.479  -0.987 -0.0988 -0.4888 -0.5697
    4CHTO  H157 1393   7.164   7.542  -0.930  0.9143 -0.3788 -1.9413
    4CHTO   C83 1394   7.016   7.568  -1.087 -0.1088  0.0185  0.8498
    4CHTO  H155 1395   6.971   7.654  -1.037  0.1440 -0.9759  2.8440
    4CHTO   O56 1396   6.907   7.493  -1.133  0.1756 -0.1506 -0.3834
    4CHTO  H135 1397   6.898   7.499  -1.226  1.8766  0.5758 -0.5333
    4CHTO   C81 1398   7.105   7.614  -1.206 -0.0469 -0.4628  0.5024
    4CHTO  H153 1399   7.191   7.661  -1.158  0.1437 -0.7348  0.4296
    4CHTO   N14 1400   7.037   7.716  -1.292 -0.1324 -0.0618  0.1444
    4CHTO  H141 1401   6.982   7.782  -1.228  2.1269  1.3062  0.7078
    4CHTO  H142 1402   7.108   7.772  -1.347 -0.1720 -0.6485 -0.5087
    4CHTO   C79 1403   7.158   7.491  -1.291  0.5054  0.1745 -0.4904
    4CHTO  H151 1404   7.225   7.530  -1.368 -0.4133 -0.7373 -1.7824
    4CHTO   O52 1405   7.236   7.411  -1.193  0.8233  0.3323 -0.1008
    4CHTO   C86 1406   7.168   7.370  -1.074  0.3049  0.2193  0.3896
    4CHTO  H158 1407   7.093   7.293  -1.101 -0.0931  0.3418  1.1159
    4CHTO   C90 1408   7.272   7.293  -0.987  0.3031  1.1198  0.6274
    4CHTO   O60 1409   7.327   7.179  -1.053  0.5037 -0.0974 -0.4572
    4CHTO  H138 1410   7.266   7.146  -1.117  1.0914 -0.9884 -0.5658
    4CHTO   O50 1411   7.057   7.403  -1.346 -0.3695 -0.3627  0.0690
    4CHTO   C73 1412   7.001   7.341  -1.463  0.3209 -0.5547  0.5326
    4CHTO  H145 1413   6.958   7.409  -1.538 -0.8822 -1.9764 -0.0875
    4CHTO   C74 1414   6.879   7.262  -1.422  0.3148 -0.1939 -0.3201
    4CHTO  H146 1415   6.821   7.342  -1.374  2.3176 -0.2062  2.1769
    4CHTO   O54 1416   6.807   7.210  -1.536 -0.4251 -0.2387  0.2163
    4CHTO  H133 1417   6.817   7.117  -1.537  0.0416 -0.2493  2.4606
    4CHTO   C75 1418   6.917   7.147  -1.315  0.5771 -0.7056 -0.2111
    4CHTO  H147 1419   6.952   7.191  -1.220  1.4538 -1.0514 -0.3746
    4CHTO   N13 1420   6.793   7.083  -1.268  0.1792 -0.1899  0.2857
    4CHTO  H139 1421   6.751   7.027  -1.350  0.5066  1.4791 -1.0441
    4CHTO  H140 1422   6.814   7.014  -1.188 -0.2516 -0.3021  0.3043
    4CHTO   C76 1423   7.029   7.052  -1.363 -0.2431 -0.2471 -0.1992
    4CHTO  H148 1424   6.989   6.986  -1.440  0.1949  0.0024 -0.6458
    4CHTO   O49 1425   7.139   7.133  -1.430  0.0700  0.2543  0.7271
    4CHTO   C77 1426   7.094   7.236  -1.522  0.0617  0.0403  0.2059
    4CHTO  H149 1427   7.049   7.191  -1.610 -0.5674 -0.3768  0.7357
    4CHTO   C88 1428   7.224   7.306  -1.574  0.0992  0.3216  0.8267
    4CHTO   O58 1429   7.311   7.212  -1.674 -0.0296 -0.2437 -0.1514
    4CHTO  H136 1430   7.254   7.159  -1.727  1.4335  1.5355 -3.6682
    4CHTO   O51 1431   7.098   6.967  -1.252  0.2997 -0.5243 -0.4923
    4CHTO   C78 1432   7.143   6.813  -1.276  0.3290 -0.4125 -0.5585
    4CHTO  H150 1433   7.209   6.783  -1.193  0.8423  1.6601 -0.1886
    4CHTO   C80 1434   7.213   6.782  -1.404 -0.0426 -0.1066  0.9790
    4CHTO  H152 1435   7.146   6.813  -1.487 -0.1938 -1.9070  0.3872
    4CHTO   O55 1436   7.327   6.867  -1.416 -0.4967  0.2009 -0.3898
    4CHTO  H134 1437   7.300   6.954  -1.438  3.5383  1.4280 -0.9077
    4CHTO   C84 1438   7.263   6.631  -1.421 -0.0375  0.5001 -0.0273
    4CHTO  H156 1439   7.330   6.609  -1.338 -1.8116  0.2537  1.3839
    4CHTO   N15 1440   7.334   6.596  -1.551  0.6182  0.6850  0.3320
    4CHTO  H143 1441   7.367   6.495  -1.537 -1.2484  0.2248  1.7675
    4CHTO  H144 1442   7.418   6.660  -1.566  0.0307  1.2825 -0.4855
    4CHTO   C87 1443   7.143   6.538  -1.396  0.2335 -0.0414 -0.6392
    4CHTO  H159 1444   7.075   6.547  -1.481  0.8226  0.2505 -1.0773
    4CHTO   O53 1445   7.065   6.586  -1.257  0.0433  0.1408 -0.0929
    4CHTO   C82 1446   7.022   6.720  -1.260 -0.0004  0.4628 -0.6234
    4CHTO  H154 1447   6.953   6.727  -1.344 -0.3175  0.9443 -0.3240
    4CHTO   C89 1448   6.945   6.767  -1.131  0.3380  0.3405  0.1788
    4CHTO   O59 1449   7.003   6.714  -1.010  0.0538  0.9675  0.0691
    4CHTO  H137 1450   6.966   6.760  -0.937 -1.1698 -0.2082  0.2164
    4CHTO   O45 1451   7.181   6.385  -1.386  0.2229  0.2054  0.2531
    4CHTO   C67 1452   7.088   6.299  -1.450  0.1696 -0.6635  1.1150
    4CHTO  H124 1453   7.030   6.344  -1.530 -0.3937 -0.2658  1.7403
    4CHTO   C65 1454   7.164   6.183  -1.517  0.2888 -0.1988  0.1140
    4CHTO  H122 1455   7.240   6.235  -1.576  0.7077  0.0574  0.8806
    4CHTO   O44 1456   7.076   6.104  -1.600  0.2314 -0.4799 -0.1579
    4CHTO  H102 1457   7.002   6.071  -1.553 -0.4321  1.9533  0.5373
    4CHTO   C63 1458   7.238   6.094  -1.406  0.2365 -0.2932  0.5954
    4CHTO  H120 1459   7.308   6.158  -1.352 -1.2475  2.2546 -0.3857
    4CHTO   N11 1460   7.331   5.991  -1.471 -1.1627  0.3271 -0.3113
    4CHTO  H108 1461   7.285   5.913  -1.528 -0.5005  1.1499 -1.9858
    4CHTO  H109 1462   7.373   5.937  -1.388 -0.1873  0.7577 -0.5181
    4CHTO   C61 1463   7.132   6.034  -1.303 -0.2059 -0.2486 -0.2899
    4CHTO  H118 1464   7.193   6.022  -1.212 -0.0152  0.7269 -0.2836
    4CHTO   O40 1465   7.021   6.120  -1.265 -0.4875 -0.2327 -0.3188
    4CHTO   C68 1466   6.987   6.242  -1.338  0.3320  0.5371 -0.4364
    4CHTO  H125 1467   6.967   6.321  -1.263 -1.6516  0.9549 -1.3500
    4CHTO   C72 1468   6.849   6.217  -1.407 -0.5791 -0.3557 -0.6571
    4CHTO   O48 1469   6.798   6.349  -1.440 -0.1712  0.1662  0.1055
    4CHTO  H105 1470   6.723   6.342  -1.496  0.0493 -1.8794  0.0447
    4CHTO   O38 1471   7.066   5.920  -1.350 -0.3507  0.4725 -0.4100
    4CHTO   C55 1472   7.010   5.829  -1.251  0.7674 -0.5343  0.0941
    4CHTO  H112 1473   6.991   5.884  -1.158 -0.5736 -1.2059  0.2337
    4CHTO   C56 1474   7.101   5.705  -1.225 -0.4971 -0.4511  0.5517
    4CHTO  H113 1475   7.105   5.656  -1.323 -0.1889  1.4653 -0.3948
    4CHTO   O42 1476   7.237   5.750  -1.179 -0.3024  0.3058  0.8125
    4CHTO  H100 1477   7.297   5.677  -1.180 -0.1049  0.4242  2.5783
    4CHTO   C57 1478   7.035   5.610  -1.112  0.2742  0.0926  0.2803
    4CHTO  H114 1479   7.061   5.661  -1.020  2.0504  1.1401 -0.7600
    4CHTO   N10 1480   7.110   5.480  -1.102  0.1200  0.4162 -0.3325
    4CHTO  H106 1481   7.036   5.405  -1.079  1.0054  0.0497  1.4601
    4CHTO  H107 1482   7.158   5.456  -1.195 -1.8225 -3.4391 -0.4297
    4CHTO   C58 1483   6.882   5.599  -1.121  0.1550  0.2135 -0.4358
    4CHTO  H115 1484   6.856   5.515  -1.189 -1.1404 -0.2648  0.6175
    4CHTO   O37 1485   6.817   5.713  -1.169  0.4685 -0.1296 -0.0164
    4CHTO   C59 1486   6.866   5.770  -1.293 -0.2551 -0.6709 -0.3845
    4CHTO  H116 1487   6.876   5.686  -1.362 -0.3176 -0.3391 -0.7976
    4CHTO   C70 1488   6.771   5.884  -1.338 -0.3009  0.2445 -0.4908
    4CHTO   O46 1489   6.642   5.837  -1.346  0.4035 -0.0001  0.1614
    4CHTO  H103 1490   6.576   5.898  -1.321 -0.3627 -0.8873  0.3554
    4CHTO   O39 1491   6.833   5.570  -0.972 -0.4813  0.0630 -0.2166
    4CHTO   C60 1492   6.695   5.532  -0.953 -0.3878  0.4931 -0.3536
    4CHTO  H117 1493   6.646   5.516  -1.049  0.2519 -1.0812 -0.4267
    4CHTO   C62 1494   6.701   5.394  -0.875  0.1697 -0.5468  0.0972
    4CHTO  H119 1495   6.751   5.317  -0.937  0.8003 -1.6070  1.8844
    4CHTO   O43 1496   6.792   5.398  -0.768  0.3973 -0.0291 -0.3288
    4CHTO  H101 1497   6.862   5.458  -0.787  0.9223 -0.6497 -0.3927
    4CHTO   C66 1498   6.553   5.351  -0.832 -0.3105 -0.1912  0.5349
    4CHTO  H123 1499   6.491   5.348  -0.921 -1.5977  2.5087  1.3081
    4CHTO   N12 1500   6.534   5.221  -0.773 -0.6247 -0.1403 -0.1849
    4CHTO  H110 1501   6.448   5.218  -0.708 -1.3868 -1.1948 -1.2050
    4CHTO  H111 1502   6.525   5.145  -0.850  0.7224 -0.1357 -0.3692
    4CHTO   C69 1503   6.497   5.461  -0.739 -0.4997  1.1844 -0.0418
    4CHTO  H126 1504   6.570   5.465  -0.656  2.6378  0.4217 -2.6314
    4CHTO   O41 1505   6.495   5.595  -0.832 -0.4814  0.0853  0.1969
    4CHTO   C64 1506   6.622   5.639  -0.871 -0.2983 -0.0632  0.1154
    4CHTO  H121 1507   6.680   5.656  -0.777 -1.5772 -1.8136  1.2421
    4CHTO   C71 1508   6.597   5.772  -0.936  0.0485  0.5984  0.2224
    4CHTO   O47 1509   6.521   5.870  -0.863  0.1217  0.3173  0.6771
    4CHTO  H104 1510   6.563   5.887  -0.781  0.6651 -0.3187  0.5404
    4CHTO   O34 1511   6.338   5.438  -0.689 -0.1710  0.6341  0.1889
    4CHTO   C49 1512   6.214   5.489  -0.680  0.0364 -0.7628 -0.1512
    4CHTO   H91 1513   6.216   5.568  -0.606 -1.0696 -1.6776  0.8756
    4CHTO   C47 1514   6.105   5.387  -0.641 -0.0467 -0.9180  0.2932
    4CHTO   H89 1515   6.023   5.456  -0.614 -1.3043 -0.9001 -3.3721
    4CHTO   O33 1516   6.146   5.327  -0.521 -0.1249 -0.4444  0.2850
    4CHTO   H70 1517   6.122   5.238  -0.504 -1.4376  0.4008  3.2159
    4CHTO   C45 1518   6.086   5.279  -0.757  0.5813  0.0840 -0.8577
    4CHTO   H87 1519   6.155   5.196  -0.735  0.1957  0.2050  0.8303
    4CHTO    N8 1520   5.949   5.230  -0.741  0.0460  0.3197 -0.2324
    4CHTO   H75 1521   5.922   5.151  -0.809  1.9922 -1.0178  0.4982
    4CHTO   H76 1522   5.948   5.177  -0.647  0.2881 -0.8595 -0.8840
    4CHTO   C43 1523   6.126   5.335  -0.896 -0.2877  0.4910 -0.4423
    4CHTO   H85 1524   6.235   5.328  -0.899 -0.3479 -0.9622  0.4053
    4CHTO   O29 1525   6.080   5.472  -0.900  0.0838 -0.2472  0.6175
    4CHTO   C50 1526   6.169   5.551  -0.816 -0.2316  0.4639 -0.7068
    4CHTO   H92 1527   6.255   5.579  -0.879 -1.2548  1.4411 -1.6985
    4CHTO   C54 1528   6.089   5.683  -0.805  0.4468  0.1589  0.1578
    4CHTO   O36 1529   6.158   5.779  -0.724  0.0187 -0.2242  0.0374
    4CHTO   H72 1530   6.114   5.776  -0.642 -2.0884  1.2264 -0.9883
    4CHTO   O27 1531   6.082   5.271  -1.017 -0.7021  0.3396  0.4397
    4CHTO   C37 1532   6.154   5.193  -1.118 -0.0441  0.1864 -0.5770
    4CHTO   H79 1533   6.084   5.155  -1.194 -0.2436 -1.5801  0.4612
    4CHTO   C38 1534   6.252   5.273  -1.198  0.1075 -0.2789 -0.5494
    4CHTO   H80 1535   6.300   5.341  -1.126  0.1729 -2.1475  1.2462
    4CHTO   O31 1536   6.177   5.352  -1.292 -0.3574 -0.4034  0.1022
    4CHTO   H68 1537   6.121   5.302  -1.348  1.2377 -0.6028 -1.3459
    4CHTO   C39 1538   6.360   5.190  -1.270  0.0847 -0.9899 -0.6828
    4CHTO   H81 1539   6.305   5.131  -1.344  0.4033 -0.7992 -1.0717
    4CHTO    N7 1540   6.463   5.270  -1.341 -0.4244 -0.4934 -0.4412
    4CHTO   H73 1541   6.414   5.332  -1.415 -0.2710 -0.4328 -0.4922
    4CHTO   H74 1542   6.512   5.337  -1.273  0.1093 -0.4979 -0.8133
    4CHTO   C40 1543   6.422   5.098  -1.159 -0.3976 -0.4927 -0.1653
    4CHTO   H82 1544   6.453   5.154  -1.071  1.1764 -0.4914 -0.7064
    4CHTO   O26 1545   6.320   5.001  -1.130  0.0742 -0.2908 -0.5483
    4CHTO   C41 1546   6.217   5.072  -1.054 -0.1232  0.2344  0.1079
    4CHTO   H83 1547   6.261   5.106  -0.959  0.5999  0.1320 -0.1881
    4CHTO   C52 1548   6.106   4.977  -1.018  0.0762 -0.3438  0.1363
    4CHTO   O35 1549   6.155   4.861  -0.962  0.3640  0.1370  0.0161
    4CHTO   H71 1550   6.202   4.812  -1.026 -1.9851 -1.2747 -0.7160
    4CHTO   O28 1551   6.537   5.022  -1.206 -0.2975 -0.0699  0.4650
    4CHTO   C42 1552   6.633   4.956  -1.123  0.1197  0.2044 -0.0048
    4CHTO   H84 1553   6.686   4.888  -1.190  0.7043 -0.3072  0.9652
    4CHTO   C44 1554   6.571   4.871  -1.001 -0.2261  0.0171 -0.5099
    4CHTO   H86 1555   6.495   4.934  -0.957  0.3846  0.2128  0.2740
    4CHTO   O32 1556   6.489   4.762  -1.047  0.2054  0.0096  0.7871
    4CHTO   H69 1557   6.538   4.704  -1.104 -1.2163 -1.0527  0.6208
    4CHTO   C48 1558   6.678   4.825  -0.891  0.0387  0.4629  1.0832
    4CHTO   H90 1559   6.726   4.733  -0.926 -2.5022 -0.8017  0.8509
    4CHTO    N9 1560   6.610   4.771  -0.768 -0.2226 -0.7185 -0.0437
    4CHTO   H77 1561   6.606   4.663  -0.769 -0.9225 -0.7186  1.1481
    4CHTO   H78 1562   6.517   4.819  -0.746 -0.1759 -1.2630  1.4205
    4CHTO   C51 1563   6.783   4.935  -0.850  0.3423 -0.4936  0.2431
    4CHTO   H93 1564   6.724   5.012  -0.799  0.0714 -0.6795  0.2122
    4CHTO   O30 1565   6.845   4.990  -0.964  0.2382  0.0557  0.3236
    4CHTO   C46 1566   6.739   5.059  -1.067  0.3663  0.4066 -0.5713
    4CHTO   H88 1567   6.680   5.131  -1.011 -1.8650 -1.8232  0.0491
    4CHTO   C53 1568   6.817   5.136  -1.187 -0.0655  0.7123  0.4391
    4CHTO   O72 1569   6.885   5.249  -1.129  0.0285  0.1184  0.2897
    4CHTO  H199 1570   6.886   5.306  -1.203 -0.1211 -0.4894 -0.1919
    4CHTO   O22 1571   6.883   4.887  -0.757  0.6080  0.7243 -0.4131
    4CHTO   C31 1572   6.961   4.976  -0.668  0.3394 -0.3694  0.3949
    4CHTO   H59 1573   6.994   4.911  -0.585  0.6478  0.7799  1.1790
    4CHTO   C29 1574   7.098   5.027  -0.732 -0.2982  0.6143 -0.2205
    4CHTO   H57 1575   7.080   5.086  -0.823 -0.2744  1.1099  0.0929
    4CHTO   O21 1576   7.174   4.913  -0.772  0.1204  0.1001 -0.4256
    4CHTO   H37 1577   7.255   4.943  -0.806  1.0297  1.2146  2.5519
    4CHTO   C27 1578   7.174   5.119  -0.625  1.6424 -0.3052 -0.5365
    4CHTO   H55 1579   7.199   5.054  -0.539  0.2025 -0.2170 -0.0538
    4CHTO    N5 1580   7.300   5.176  -0.672 -0.1275 -0.2442 -0.9152
    4CHTO   H43 1581   7.366   5.215  -0.595  0.9259 -0.7961 -1.5334
    4CHTO   H44 1582   7.344   5.112  -0.746  1.3843 -0.1407 -0.1292
    4CHTO   C25 1583   7.070   5.235  -0.582  0.5719 -0.4575 -0.3355
    4CHTO   H53 1584   7.029   5.290  -0.668 -1.1592 -0.3602  0.5303
    4CHTO   O17 1585   6.957   5.169  -0.521  0.4718 -0.4491  0.5184
    4CHTO   C32 1586   6.873   5.086  -0.600 -1.1519  0.7791  0.0952
    4CHTO   H60 1587   6.826   5.150  -0.676 -0.5795  0.6418 -0.3772
    4CHTO   C36 1588   6.755   5.025  -0.520  0.5345 -0.0143 -0.4734
    4CHTO   O25 1589   6.666   5.127  -0.482  0.2505 -0.1167  0.2115
    4CHTO   H40 1590   6.576   5.109  -0.501 -0.1322  1.1294  0.8223
    4CHTO   O15 1591   7.130   5.341  -0.460 -0.2264  0.0676  0.8233
    4CHTO   C19 1592   7.206   5.316  -0.337 -0.3546  0.0473  0.3084
    4CHTO   H47 1593   7.245   5.213  -0.337 -0.1468  0.1254  0.1841
    4CHTO   C20 1594   7.318   5.422  -0.317 -0.1707  0.0696 -0.4456
    4CHTO   H48 1595   7.280   5.525  -0.329 -0.0575  0.4230  2.1016
    4CHTO   O19 1596   7.412   5.394  -0.421 -0.6821 -0.1040 -0.5047
    4CHTO   H35 1597   7.496   5.364  -0.391 -1.2072 -0.8324  0.2726
    4CHTO   C21 1598   7.392   5.410  -0.176  0.0913  0.1490 -0.8066
    4CHTO   H49 1599   7.438   5.312  -0.168  1.1334  0.7608  0.9340
    4CHTO    N4 1600   7.508   5.504  -0.158 -0.2598 -0.3731  0.3115
    4CHTO   H41 1601   7.490   5.567  -0.072 -2.9387 -0.3056 -0.2472
    4CHTO   H42 1602   7.515   5.562  -0.248 -0.9542 -0.0552  0.4570
    4CHTO   C22 1603   7.286   5.415  -0.068 -0.2098 -0.1013  0.7120
    4CHTO   H50 1604   7.236   5.512  -0.071  0.5042  0.3392  2.6468
    4CHTO   O14 1605   7.200   5.308  -0.088  0.4738 -0.7217  0.4894
    4CHTO   C23 1606   7.119   5.321  -0.206 -0.2092 -0.4803 -0.4139
    4CHTO   H51 1607   7.061   5.415  -0.202  0.5959  0.1061 -2.0644
    4CHTO   C34 1608   7.012   5.212  -0.207  0.3671 -0.1402 -0.4753
    4CHTO   O23 1609   7.065   5.082  -0.179  0.2280 -0.1478  0.1747
    4CHTO   H38 1610   7.026   5.012  -0.229 -2.4909  1.1765  0.3266
    4CHTO   O16 1611   7.339   5.380   0.064 -0.0240  0.3317 -0.1147
    4CHTO   C24 1612   7.246   5.421   0.197 -0.3879  0.2944 -0.1244
    4CHTO   H52 1613   7.140   5.414   0.174 -0.5017  0.4349  0.3587
    4CHTO   C26 1614   7.300   5.559   0.248  0.1321  0.2606 -0.0473
    4CHTO   H54 1615   7.409   5.565   0.226  0.5678 -0.9202  1.6616
    4CHTO   O20 1616   7.247   5.664   0.161  0.5920  0.2643 -0.2914
    4CHTO   H36 1617   7.300   5.687   0.087  2.1341  2.5389  1.4318
    4CHTO   C30 1618   7.266   5.590   0.396 -0.5216 -0.3230  0.2916
    4CHTO   H58 1619   7.159   5.613   0.398 -0.4001  0.4390 -1.5936
    4CHTO    N6 1620   7.341   5.706   0.450 -0.4198 -0.2592  0.0390
    4CHTO   H45 1621   7.390   5.769   0.377  0.6253 -0.3310  0.6680
    4CHTO   H46 1622   7.403   5.689   0.537  0.0868  1.6216  0.0743
    4CHTO   C33 1623   7.281   5.465   0.492  0.2999 -0.2671 -0.0251
    4CHTO   H61 1624   7.390   5.451   0.498  0.0765 -2.5672 -1.0051
    4CHTO   O18 1625   7.220   5.349   0.426 -0.0182 -0.3677 -0.0163
    4CHTO   C28 1626   7.276   5.309   0.302 -0.0176  0.5426  0.0214
    4CHTO   H56 1627   7.383   5.299   0.320 -0.3240 -2.0104  0.5946
    4CHTO   C35 1628   7.211   5.167   0.271  0.2740  0.4507  0.3130
    4CHTO   O24 1629   7.067   5.163   0.257  0.2213 -0.3038  0.3196
    4CHTO   H39 1630   7.031   5.097   0.201 -1.6340  2.3797 -1.7966
    4CHTO    O9 1631   7.229   5.478   0.630 -0.7227  0.3232 -0.2882
    4CHTO   C13 1632   7.344   5.424   0.752 -0.0334 -0.5601 -0.2491
    4CHTO   H26 1633   7.435   5.475   0.716 -0.9326 -0.5074 -2.6244
    4CHTO   C11 1634   7.359   5.263   0.737  0.4720 -0.2571 -0.0440
    4CHTO   H24 1635   7.381   5.229   0.635  0.0440 -1.8779  0.3802
    4CHTO    O8 1636   7.233   5.201   0.767 -0.3303  0.2509 -0.1919
    4CHTO    H3 1637   7.247   5.109   0.779 -2.1618 -0.1340 -0.8699
    4CHTO    C9 1638   7.474   5.210   0.830 -0.2834 -0.5344  0.0463
    4CHTO   H22 1639   7.568   5.256   0.797 -1.3724  0.0033 -2.3997
    4CHTO    N2 1640   7.500   5.063   0.807  0.8118  0.2178  0.4764
    4CHTO   H10 1641   7.413   5.000   0.804 -0.3603  1.8701 -1.7435
    4CHTO   H11 1642   7.554   5.029   0.893  1.0902 -1.7575 -0.4616
    4CHTO    C7 1643   7.429   5.256   0.981 -0.7699  0.3609 -0.0723
    4CHTO   H20 1644   7.521   5.251   1.043  0.7277  1.8305 -2.0659
    4CHTO    O4 1645   7.377   5.391   1.000 -0.3126 -0.0042 -0.7979
    4CHTO   C14 1646   7.315   5.467   0.901 -1.1198 -0.3290  1.4198
    4CHTO   H27 1647   7.364   5.566   0.908 -1.4567 -0.0691  0.2396
    4CHTO   C18 1648   7.162   5.490   0.918 -0.4184 -0.3941 -0.2023
    4CHTO   O13 1649   7.130   5.566   1.037 -0.1223 -0.1480 -0.0031
    4CHTO    H7 1650   7.164   5.651   1.018  0.8297 -0.5190  0.0190
    4CHTO    O2 1651   7.323   5.147   1.053  0.2979 -0.0107 -0.1454
    4CHTO    C1 1652   7.368   5.100   1.177  1.0340 -0.3241  0.2259
    4CHTO   H14 1653   7.422   5.183   1.229 -0.7673  0.7362  0.4372
    4CHTO    C2 1654   7.458   4.970   1.166 -0.3191  0.5128 -0.9458
    4CHTO   H15 1655   7.403   4.902   1.100  1.2174 -1.5406 -0.1456
    4CHTO    O6 1656   7.586   5.008   1.114 -0.0748 -0.4440  0.3062
    4CHTO    H1 1657   7.636   4.934   1.085 -1.5141 -1.0604 -0.6786
    4CHTO    C3 1658   7.473   4.890   1.310  0.4074  0.1479 -0.4219
    4CHTO   H16 1659   7.550   4.945   1.365 -0.1731 -0.4774  1.0598
    4CHTO    N1 1660   7.527   4.755   1.288  0.5822 -0.0069  0.0660
    4CHTO    H8 1661   7.634   4.765   1.274  0.3092  1.5232 -1.1224
    4CHTO    H9 1662   7.505   4.700   1.378 -0.9715 -0.2514 -0.4513
    4CHTO    C4 1663   7.339   4.896   1.396  0.3375  0.2535  0.3159
    4CHTO   H17 1664   7.277   4.815   1.359  1.2055  0.1651 -0.9555
    4CHTO    O1 1665   7.269   5.021   1.397 -0.2189  0.0781 -0.3744
    4CHTO    C5 1666   7.244   5.081   1.268  0.2236  0.2653 -0.2132
    4CHTO   H18 1667   7.165   5.020   1.225  0.0535 -0.9414  1.7251
    4CHTO   C16 1668   7.175   5.211   1.306 -0.2671 -0.5457 -0.2233
    4CHTO   O11 1669   7.047   5.199   1.376 -0.5552 -0.3816  0.1836
    4CHTO    H5 1670   6.975   5.231   1.324  0.4945  2.3909  0.3264
    4CHTO    O3 1671   7.364   4.870   1.532 -0.0016  0.3035 -0.0885
    4CHTO    C6 1672   7.260   4.801   1.611 -0.0037 -0.7345  0.5667
    4CHTO   H19 1673   7.162   4.802   1.565 -0.3310  0.9426  1.2587
    4CHTO    C8 1674   7.307   4.656   1.636  0.0455 -0.4257  0.0670
    4CHTO   H21 1675   7.401   4.666   1.690  0.4875  2.0019 -1.1024
    4CHTO    O7 1676   7.332   4.577   1.513 -0.6311 -0.2957  0.1981
    4CHTO    H2 1677   7.254   4.545   1.473 -0.8887  1.2364 -0.5855
    4CHTO   C12 1678   7.202   4.580   1.727  0.0648  0.6524 -0.0700
    4CHTO   H25 1679   7.107   4.571   1.670 -0.0305 -1.9744  0.4824
    4CHTO    N3 1680   7.246   4.442   1.750  0.0711 -0.6236 -0.3565
    4CHTO   H12 1681   7.335   4.442   1.811  0.9876 -2.7347 -1.6449
    4CHTO   H13 1682   7.271   4.400   1.654 -0.7437  1.1034 -1.3507
    4CHTO   C15 1683   7.179   4.677   1.853  0.5888  0.1212 -0.3026
    4CHTO   H28 1684   7.258   4.664   1.927  0.1320 -4.1458 -0.4231
    4CHTO   O10 1685   7.045   4.617   1.922  0.1206  0.1239  0.0605
    4CHTO    H4 1686   7.058   4.524   1.925  0.7395  0.1936 -0.2368
    4CHTO    O5 1687   7.148   4.819   1.828  0.2666 -0.3030 -0.0775
    4CHTO   C10 1688   7.249   4.881   1.746  0.3126 -0.0717 -0.7766
    4CHTO   H23 1689   7.344   4.878   1.800  0.2395 -1.3958 -0.6999
    4CHTO   C17 1690   7.205   5.024   1.726  0.2177  0.2507 -0.3519
    4CHTO   O12 1691   7.254   5.102   1.839 -0.5924  0.0794 -0.5524
    4CHTO    H6 1692   7.343   5.083   1.859 -1.0919 -0.3806  1.2733
    5CHTO  H203 1693   6.567   3.229   2.852  0.5575 -1.4075  1.9239
    5CHTO   O82 1694   6.496   3.184   2.811  0.3900  0.3136  0.2849
    5CHTO  C123 1695   6.386   3.194   2.908  0.4259  0.1949  0.1067
    5CHTO  H227 1696   6.388   3.298   2.945 -0.3519  0.4054 -0.4386
    5CHTO   O77 1697   6.272   3.165   2.828 -0.4659 -0.2636  0.3206
    5CHTO  C118 1698   6.152   3.188   2.904 -0.5625 -0.3073  0.3649
    5CHTO  H222 1699   6.162   3.285   2.956  0.0029 -1.8908  3.3674
    5CHTO  C125 1700   6.027   3.200   2.801 -0.0379 -0.7673 -0.2675
    5CHTO   O84 1701   6.010   3.091   2.718 -0.8889  0.6857  0.5432
    5CHTO  H205 1702   5.924   3.054   2.718 -0.1968 -1.0161  2.0566
    5CHTO  C114 1703   6.142   3.082   3.019  0.3071 -0.0052 -0.2116
    5CHTO  H218 1704   6.137   2.982   2.976 -3.4372 -0.6416  1.5507
    5CHTO  C116 1705   6.262   3.090   3.114  0.1635 -0.4028  0.2052
    5CHTO  H220 1706   6.251   3.181   3.177 -2.7585 -1.7023  1.6771
    5CHTO   O79 1707   6.262   2.980   3.208  0.4891 -0.3120  0.5708
    5CHTO  H201 1708   6.290   3.017   3.290  1.6805  1.2641 -0.5420
    5CHTO  C120 1709   6.403   3.091   3.031  0.3128 -0.5725 -0.1396
    5CHTO  H224 1710   6.426   2.990   2.990  1.5336  0.0688 -1.0767
    5CHTO   N21 1711   6.514   3.131   3.115 -0.8034 -0.7680 -0.2135
    5CHTO  H211 1712   6.517   3.238   3.123 -0.7146 -0.6892 -1.2919
    5CHTO  H212 1713   6.508   3.095   3.217  1.1637  1.0653  0.5671
    5CHTO   O75 1714   6.015   3.110   3.081  0.3485  0.4265  0.6050
    5CHTO  C112 1715   5.913   2.994   3.086 -0.5428 -0.4205 -0.0989
    5CHTO  H216 1716   5.961   2.902   3.122 -0.0833 -0.3399 -0.4978
    5CHTO   O73 1717   5.863   2.979   2.950  0.1517  0.2085 -0.2426
    5CHTO  C113 1718   5.773   2.869   2.935 -0.5362  0.2653  0.3090
    5CHTO  H217 1719   5.831   2.775   2.951 -0.1144  0.4999  0.1699
    5CHTO  C124 1720   5.729   2.872   2.790 -0.1622 -0.4895  0.3076
    5CHTO   O83 1721   5.832   2.841   2.699  0.2755 -0.1072 -0.6800
    5CHTO  H204 1722   5.860   2.914   2.646  2.0753  1.1947  1.9687
    5CHTO  C109 1723   5.653   2.878   3.029 -0.1860 -0.6116 -0.4446
    5CHTO  H213 1724   5.589   2.956   2.986 -0.3766 -0.3939  0.2336
    5CHTO  C110 1725   5.694   2.921   3.175 -0.5889  0.2159  0.4470
    5CHTO  H214 1726   5.733   2.830   3.221  0.2803 -0.3941 -1.4529
    5CHTO   O78 1727   5.570   2.951   3.238  0.0259 -0.0259  0.0713
    5CHTO  H200 1728   5.569   2.910   3.323 -0.6944 -1.5368 -0.6508
    5CHTO  C111 1729   5.803   3.033   3.191 -0.3316  0.0488  0.3512
    5CHTO  H215 1730   5.761   3.130   3.162  0.9988 -0.3511 -3.1279
    5CHTO   N19 1731   5.849   3.052   3.332 -0.2563 -0.1232  0.1997
    5CHTO  H207 1732   5.910   2.967   3.358 -0.4219 -0.4035 -0.3288
    5CHTO  H208 1733   5.895   3.149   3.347 -1.1430  0.2632  0.5301
    5CHTO   O74 1734   5.589   2.749   3.038 -0.3350  0.5111  0.2314
    5CHTO  C115 1735   5.430   2.724   3.032 -0.2836 -0.0427  0.0390
    5CHTO  H219 1736   5.376   2.810   3.071  0.2880  0.1573  0.3990
    5CHTO   O76 1737   5.382   2.712   2.884  0.2599  0.0059 -0.1990
    5CHTO  C122 1738   5.406   2.579   2.833 -0.2667  0.3836 -0.2191
    5CHTO  H226 1739   5.510   2.553   2.856 -0.4742 -0.0183  0.2749
    5CHTO  C126 1740   5.392   2.589   2.680  0.5037 -0.1561  0.1805
    5CHTO   O85 1741   5.384   2.464   2.616 -0.8126 -0.1089  0.2538
    5CHTO  H206 1742   5.291   2.450   2.613 -0.5675 -1.6720 -0.3161
    5CHTO  C121 1743   5.309   2.482   2.907  0.6347  0.8463  0.0255
    5CHTO  H225 1744   5.220   2.477   2.841  0.2774  0.1194  0.5504
    5CHTO   O81 1745   5.370   2.356   2.921  0.3473  0.3771 -0.3392
    5CHTO  H202 1746   5.435   2.357   2.989 -0.6622 -0.5836  0.6777
    5CHTO  C119 1747   5.259   2.534   3.049 -0.5459  0.5940 -0.3271
    5CHTO  H223 1748   5.194   2.617   3.021 -1.1092 -0.0467 -0.9204
    5CHTO  C117 1749   5.390   2.602   3.115  0.3162  0.9052 -0.0897
    5CHTO  H221 1750   5.476   2.535   3.116 -0.9406 -0.7439 -0.6277
    5CHTO   N20 1751   5.364   2.641   3.257  1.2720 -0.4096  0.0793
    5CHTO  H209 1752   5.454   2.616   3.311  2.3905 -1.6002 -2.2643
    5CHTO  H210 1753   5.349   2.748   3.256  0.7133 -0.4883 -0.2907
    5CHTO   O80 1754   5.159   2.440   3.141 -0.0580  0.4099 -0.0781
    5CHTO  C103 1755   5.030   2.383   3.082  0.3204 -0.6700  0.0119
    5CHTO  H190 1756   5.002   2.422   2.984 -1.4483 -1.9784 -0.0273
    5CHTO  C101 1757   5.035   2.229   3.050  0.6097 -0.1376 -0.1444
    5CHTO  H188 1758   5.065   2.191   3.147  1.1759 -1.7399 -0.9194
    5CHTO   O68 1759   5.158   2.218   2.955  0.5298  0.0165 -0.0309
    5CHTO  H168 1760   5.127   2.248   2.871 -1.4766 -0.8538  0.3580
    5CHTO   C99 1761   4.901   2.156   3.016  0.9687  0.9745  0.2518
    5CHTO  H186 1762   4.871   2.191   2.915 -0.8577 -1.4748 -0.1065
    5CHTO   N17 1763   4.916   2.009   3.003 -0.3369  0.2017 -0.4435
    5CHTO  H174 1764   4.975   1.953   3.074  1.3686  0.1153 -1.8961
    5CHTO  H175 1765   4.831   1.951   2.970 -1.7284  1.2115  1.3163
    5CHTO   C97 1766   4.789   2.198   3.116 -0.1971 -0.3590 -0.5649
    5CHTO  H184 1767   4.810   2.156   3.216 -0.2320 -0.3995 -0.5745
    5CHTO   O64 1768   4.783   2.341   3.120  0.0478 -0.0322  0.5689
    5CHTO  C104 1769   4.900   2.406   3.177 -0.0957  0.5816 -0.0899
    5CHTO  H191 1770   4.927   2.380   3.279  0.6763  1.3411 -0.0989
    5CHTO  C108 1771   4.872   2.555   3.181 -0.8705 -0.0215  0.0647
    5CHTO   O71 1772   4.807   2.606   3.295 -0.3708 -0.3916  0.0061
    5CHTO  H171 1773   4.715   2.595   3.284 -0.3083 -1.2610  0.3019
    5CHTO   O62 1774   4.657   2.150   3.075  0.1901  0.2909 -0.2845
    5CHTO   C91 1775   4.544   2.173   3.155  0.4312 -0.5960  0.0874
    5CHTO  H178 1776   4.564   2.263   3.215  2.2069 -1.7543  1.3125
    5CHTO   C92 1777   4.539   2.054   3.253 -0.2625 -0.1346  0.7061
    5CHTO  H179 1778   4.635   2.025   3.298 -0.3112  2.2622  2.4307
    5CHTO   O66 1779   4.453   2.086   3.364  0.4266  0.1933  0.4043
    5CHTO  H166 1780   4.433   2.014   3.420  0.7753  0.4581  0.8701
    5CHTO   C93 1781   4.487   1.916   3.181  0.0717  0.3547 -0.7933
    5CHTO  H180 1782   4.409   1.880   3.249 -1.2682  3.3409 -0.6621
    5CHTO   N16 1783   4.581   1.802   3.179  0.3496 -0.2541  0.1027
    5CHTO  H172 1784   4.619   1.786   3.080 -1.3687 -0.0157 -0.6019
    5CHTO  H173 1785   4.663   1.839   3.240 -0.1365  1.0935 -0.0311
    5CHTO   C94 1786   4.425   1.949   3.041 -0.1598 -0.0146 -0.9333
    5CHTO  H181 1787   4.501   1.969   2.965  0.0267  3.6696  0.1540
    5CHTO   O61 1788   4.342   2.065   3.053  0.2716 -0.3331 -0.4881
    5CHTO   C95 1789   4.413   2.188   3.061  0.1104 -0.0547  0.4596
    5CHTO  H182 1790   4.438   2.223   2.961 -0.5156  0.0354  0.3319
    5CHTO  C106 1791   4.320   2.304   3.115  0.0018 -0.4839 -0.4469
    5CHTO   O69 1792   4.291   2.292   3.252  0.4458 -0.0869 -0.3932
    5CHTO  H169 1793   4.365   2.285   3.308  0.1654 -0.2408 -0.0399
    5CHTO   O63 1794   4.337   1.842   2.981  0.4303 -0.5056  0.1649
    5CHTO   C96 1795   4.341   1.856   2.827 -0.0463  0.0134  0.7694
    5CHTO  H183 1796   4.408   1.934   2.791 -0.6791  0.1730 -0.0972
    5CHTO   C98 1797   4.208   1.901   2.756 -0.4630 -0.4026 -0.0205
    5CHTO  H185 1798   4.124   1.865   2.816 -2.7744  1.6844 -1.9155
    5CHTO   O67 1799   4.198   2.048   2.764  0.1837  0.0457 -0.1895
    5CHTO  H167 1800   4.117   2.067   2.722 -2.1427 -0.2519  3.8935
    5CHTO  C102 1801   4.189   1.854   2.600 -0.5993  0.1680  0.0761
    5CHTO  H189 1802   4.248   1.924   2.539 -0.1417 -1.0515 -0.8944
    5CHTO   N18 1803   4.056   1.867   2.550  0.2068  0.5899 -0.3561
    5CHTO  H176 1804   4.060   1.942   2.472 -0.0547  0.2097 -0.7411
    5CHTO  H177 1805   4.023   1.778   2.498  1.3494  0.0881 -0.2299
    5CHTO  C105 1806   4.251   1.708   2.590 -0.0879  0.5436  0.3102
    5CHTO  H192 1807   4.192   1.639   2.650 -0.3919 -0.9259 -1.6375
    5CHTO   O65 1808   4.389   1.708   2.629  0.1630 -0.0066 -0.3091
    5CHTO  C100 1809   4.405   1.717   2.774 -0.3228  0.1456 -0.5676
    5CHTO  H187 1810   4.369   1.625   2.822  3.3622 -0.9329  0.2352
    5CHTO  C107 1811   4.543   1.715   2.807  0.8023  0.2823 -0.1887
    5CHTO   O70 1812   4.607   1.594   2.766 -0.1672  0.0642  0.4094
    5CHTO  H170 1813   4.681   1.572   2.820 -0.8702 -0.1773  1.2927
    5CHTO   O57 1814   4.248   1.673   2.435  0.1431  0.4448 -0.1594
    5CHTO   C85 1815   4.284   1.535   2.397  0.3955  0.2768 -0.0586
    5CHTO  H157 1816   4.220   1.474   2.464  0.4911 -0.9751 -1.0949
    5CHTO   C83 1817   4.439   1.493   2.436  0.2533 -0.2010  0.1019
    5CHTO  H155 1818   4.453   1.485   2.544  1.7208 -2.5083 -0.2206
    5CHTO   O56 1819   4.531   1.601   2.391 -0.1297  0.3137  0.2306
    5CHTO  H135 1820   4.614   1.596   2.434  1.1701 -0.2521 -2.2794
    5CHTO   C81 1821   4.467   1.354   2.374  0.2003 -0.3586 -0.1881
    5CHTO  H153 1822   4.391   1.287   2.414  0.8491  0.0356  1.7472
    5CHTO   N14 1823   4.603   1.301   2.416  0.1582  0.2310 -0.1924
    5CHTO  H141 1824   4.619   1.217   2.352 -1.2666  1.8214 -2.6984
    5CHTO  H142 1825   4.597   1.269   2.518 -3.1231  0.2547 -0.3385
    5CHTO   C79 1826   4.447   1.352   2.216  0.2568 -0.2278  0.0606
    5CHTO  H151 1827   4.469   1.250   2.184 -1.7947 -0.3375 -1.0788
    5CHTO   O52 1828   4.307   1.384   2.194 -0.1741  0.4083  0.0014
    5CHTO   C86 1829   4.250   1.503   2.249 -0.2331  0.3211 -0.6649
    5CHTO  H158 1830   4.290   1.580   2.180  1.4848  0.9675  1.0066
    5CHTO   C90 1831   4.098   1.497   2.212 -0.5355  0.5588 -0.1653
    5CHTO   O60 1832   4.017   1.604   2.252 -0.7544  0.1097  0.7814
    5CHTO  H138 1833   4.047   1.678   2.201  2.5097 -2.4153 -1.1779
    5CHTO   O50 1834   4.548   1.425   2.151 -0.2907 -0.5658 -0.4552
    5CHTO   C73 1835   4.581   1.481   2.023  0.4265 -0.3163 -0.1153
    5CHTO  H145 1836   4.493   1.480   1.958 -0.5712  2.5920  1.1281
    5CHTO   C74 1837   4.698   1.401   1.962 -0.0322  0.7851 -0.1726
    5CHTO  H146 1838   4.657   1.299   1.955 -0.1371  0.9157 -1.5877
    5CHTO   O54 1839   4.714   1.446   1.825  0.5600 -0.0527  0.8355
    5CHTO  H133 1840   4.670   1.392   1.763  0.1316  0.6885  0.4870
    5CHTO   C75 1841   4.824   1.412   2.059  0.8016  0.5485  0.2533
    5CHTO  H147 1842   4.796   1.376   2.159  2.0303  0.1532  0.4560
    5CHTO   N13 1843   4.940   1.332   2.016 -0.1372  0.1366 -0.0701
    5CHTO  H139 1844   4.952   1.359   1.912  2.2397  1.5383  0.5340
    5CHTO  H140 1845   5.026   1.374   2.066 -0.5913 -1.8068  2.4319
    5CHTO   C76 1846   4.850   1.564   2.070  0.3524 -0.3608 -0.8893
    5CHTO  H148 1847   4.871   1.594   1.967 -3.7475  3.1553 -0.8090
    5CHTO   O49 1848   4.732   1.640   2.122 -0.4173  0.5259 -0.0660
    5CHTO   C77 1849   4.616   1.626   2.042 -0.0475  0.2528 -0.2026
    5CHTO  H149 1850   4.643   1.674   1.947  0.2773 -0.3219 -0.4028
    5CHTO   C88 1851   4.501   1.714   2.093 -0.0329 -0.0783 -0.3579
    5CHTO   O58 1852   4.509   1.850   2.078 -0.2118 -0.2093  0.0422
    5CHTO  H136 1853   4.522   1.865   1.986  0.4605  3.0173  0.5943
    5CHTO   O51 1854   4.965   1.584   2.179 -0.3960  1.0286  0.5890
    5CHTO   C78 1855   5.033   1.735   2.172 -0.1836 -0.3400 -0.2966
    5CHTO  H150 1856   4.958   1.816   2.156  2.5268  2.9539  2.9990
    5CHTO   C80 1857   5.142   1.741   2.054 -0.1732  0.1210  0.9103
    5CHTO  H152 1858   5.204   1.649   2.056 -0.8202 -0.3600 -0.5426
    5CHTO   O55 1859   5.073   1.731   1.929 -0.3295  0.4448 -0.2695
    5CHTO  H134 1860   5.096   1.663   1.869 -1.3881  1.2135 -1.5614
    5CHTO   C84 1861   5.237   1.871   2.064  0.3787 -0.1624  0.2879
    5CHTO  H156 1862   5.176   1.961   2.052  1.2113  0.6114  1.6708
    5CHTO   N15 1863   5.348   1.872   1.962  0.5196  0.2894  0.3053
    5CHTO  H143 1864   5.415   1.954   1.977  1.2108 -0.0959 -0.5784
    5CHTO  H144 1865   5.314   1.878   1.861  1.1493 -0.7154  0.0265
    5CHTO   C87 1866   5.285   1.870   2.209 -0.8460 -0.1868  0.2736
    5CHTO  H159 1867   5.331   1.775   2.235 -3.2171 -0.9502  1.7548
    5CHTO   O53 1868   5.160   1.894   2.299 -0.0666  0.1688  0.3506
    5CHTO   C82 1869   5.088   1.770   2.312 -0.1314  0.6705 -0.2904
    5CHTO  H154 1870   5.154   1.691   2.346 -1.7760 -0.8802 -0.6254
    5CHTO   C89 1871   4.976   1.788   2.418  0.1346  0.3083  0.2698
    5CHTO   O59 1872   4.902   1.671   2.460 -0.0486 -0.4438  0.2828
    5CHTO  H137 1873   4.957   1.617   2.513  0.2260 -0.3296  0.1132
    5CHTO   O45 1874   5.388   2.000   2.234  0.2478 -0.1905 -0.2912
    5CHTO   C67 1875   5.421   2.022   2.371  0.3164 -0.1506 -0.1919
    5CHTO  H124 1876   5.329   2.028   2.429  0.2047  1.5791 -0.5245
    5CHTO   C65 1877   5.512   1.901   2.434 -0.0168 -0.6083  0.4546
    5CHTO  H122 1878   5.541   1.852   2.341 -0.3864  1.3032 -0.7132
    5CHTO   O44 1879   5.416   1.823   2.512  0.3611  0.0655 -0.5966
    5CHTO  H102 1880   5.336   1.790   2.476  0.6782 -1.4658  0.0377
    5CHTO   C63 1881   5.643   1.966   2.508 -0.9481 -0.2672  0.2378
    5CHTO  H120 1882   5.713   2.005   2.433 -2.3975 -0.6717 -1.3680
    5CHTO   N11 1883   5.723   1.874   2.583 -0.0323 -0.4333  0.1745
    5CHTO  H108 1884   5.745   1.781   2.533 -1.1161 -0.6629  0.1161
    5CHTO  H109 1885   5.676   1.837   2.671 -3.2678  0.6883 -1.0282
    5CHTO   C61 1886   5.612   2.096   2.600  0.0028  0.2047  0.5202
    5CHTO  H118 1887   5.710   2.142   2.618  0.8707 -1.2143 -0.4376
    5CHTO   O40 1888   5.536   2.197   2.522  0.0273  0.2180  0.7079
    5CHTO   C68 1889   5.487   2.171   2.384 -0.2558 -0.2582 -0.2232
    5CHTO  H125 1890   5.582   2.166   2.327 -0.7124  0.8927 -1.0964
    5CHTO   C72 1891   5.409   2.292   2.328 -0.1592 -0.1777  0.1212
    5CHTO   O48 1892   5.287   2.315   2.401  0.2480 -0.4386 -0.1028
    5CHTO  H105 1893   5.226   2.366   2.352  2.0854  1.4623 -0.4635
    5CHTO   O38 1894   5.541   2.070   2.719 -0.4879  0.0895  0.2827
    5CHTO   C55 1895   5.577   2.133   2.845  0.9079  0.5140  0.0379
    5CHTO  H112 1896   5.481   2.164   2.889 -0.2526 -0.0113 -2.0460
    5CHTO   C56 1897   5.682   2.257   2.847  0.2570 -0.2055 -0.2341
    5CHTO  H113 1898   5.780   2.223   2.809 -0.6763 -1.4338 -1.5792
    5CHTO   O42 1899   5.639   2.368   2.775  0.3298  0.0480 -0.1171
    5CHTO  H100 1900   5.712   2.427   2.783 -1.0801  1.8387 -0.0989
    5CHTO   C57 1901   5.704   2.296   3.002  0.0246  0.3142 -0.3599
    5CHTO  H114 1902   5.607   2.333   3.036  0.9373  0.2876  2.4552
    5CHTO   N10 1903   5.815   2.402   3.014  0.0228 -0.0003 -0.6636
    5CHTO  H106 1904   5.833   2.461   2.926 -1.5692 -1.4818 -2.0086
    5CHTO  H107 1905   5.845   2.452   3.105  0.5876 -1.4847 -0.0118
    5CHTO   C58 1906   5.748   2.173   3.082 -0.0627 -0.4561 -0.2447
    5CHTO  H115 1907   5.850   2.140   3.055 -0.8554 -1.9966 -1.4790
    5CHTO   O37 1908   5.651   2.067   3.069  0.4915  0.0488 -0.5013
    5CHTO   C59 1909   5.623   2.020   2.937 -0.3764  0.1088  0.0603
    5CHTO  H116 1910   5.722   1.986   2.905 -0.1728  1.0514 -0.3326
    5CHTO   C70 1911   5.522   1.909   2.942 -0.1098 -0.1407 -0.8697
    5CHTO   O46 1912   5.558   1.801   3.026  0.2442  0.0053  0.3700
    5CHTO  H103 1913   5.641   1.775   2.991 -0.9732 -0.9716 -1.9064
    5CHTO   O39 1914   5.739   2.216   3.248  0.1978  0.2175  0.0980
    5CHTO   C60 1915   5.618   2.226   3.326  0.3367  0.0859 -0.2751
    5CHTO  H117 1916   5.544   2.289   3.276 -0.3656 -0.0656  0.5667
    5CHTO   C62 1917   5.555   2.084   3.359 -0.0186 -0.3532 -0.2739
    5CHTO  H119 1918   5.532   2.047   3.257 -0.6528  3.3581 -1.5581
    5CHTO   O43 1919   5.650   1.990   3.414 -0.0671  0.2337  0.8169
    5CHTO  H101 1920   5.710   2.032   3.472 -0.8988  0.4862  1.5110
    5CHTO   C66 1921   5.418   2.108   3.447  0.1331 -0.0716 -0.0367
    5CHTO  H123 1922   5.347   2.172   3.394  0.0832  0.5464  0.7570
    5CHTO   N12 1923   5.335   1.985   3.460 -0.2156 -0.4310  0.3006
    5CHTO  H110 1924   5.305   1.950   3.362 -0.9598 -0.1212  0.4102
    5CHTO  H111 1925   5.249   2.004   3.522  0.0415 -0.8869  0.7990
    5CHTO   C69 1926   5.454   2.168   3.583  0.0306  0.2699  0.3322
    5CHTO  H126 1927   5.506   2.094   3.647  1.1078 -0.6367 -1.5623
    5CHTO   O41 1928   5.537   2.289   3.568 -0.0468  0.0077  0.4116
    5CHTO   C64 1929   5.656   2.292   3.463 -0.0590 -0.9080 -0.1862
    5CHTO  H121 1930   5.742   2.238   3.506 -0.9141 -0.9279  1.5451
    5CHTO   C71 1931   5.700   2.447   3.434  0.1981  0.2570  0.1370
    5CHTO   O47 1932   5.742   2.504   3.555 -0.9012  0.1559  0.2039
    5CHTO  H104 1933   5.832   2.479   3.562 -0.5185  1.4939  0.0209
    5CHTO   O34 1934   5.319   2.214   3.653 -0.1135  0.2843  0.2263
    5CHTO   C49 1935   5.190   2.204   3.712  0.0045 -0.0913  0.3488
    5CHTO   H91 1936   5.160   2.101   3.694  3.6599 -0.7940 -2.3717
    5CHTO   C47 1937   5.100   2.307   3.635 -0.4005  0.5320 -0.0524
    5CHTO   H89 1938   4.998   2.277   3.670  0.7059 -1.7331  1.3333
    5CHTO   O33 1939   5.110   2.267   3.499 -0.5361 -0.1441  0.2546
    5CHTO   H70 1940   5.201   2.279   3.477 -0.5132 -0.3102  0.2572
    5CHTO   C45 1941   5.141   2.454   3.671  0.2639 -0.1178 -0.5607
    5CHTO   H87 1942   5.251   2.461   3.671  0.1908  1.1466 -0.0571
    5CHTO    N8 1943   5.088   2.550   3.573 -0.2534 -0.8306 -0.1208
    5CHTO   H75 1944   5.140   2.639   3.539 -1.3511 -0.1833 -0.1321
    5CHTO   H76 1945   4.987   2.570   3.605  0.8059 -0.7971  3.5140
    5CHTO   C43 1946   5.107   2.471   3.826  0.5458 -0.1856  0.3813
    5CHTO   H85 1947   5.132   2.575   3.850 -0.3754  0.5228 -1.6485
    5CHTO   O29 1948   5.181   2.377   3.908  0.1185 -0.3273  0.3557
    5CHTO   C50 1949   5.192   2.237   3.865  0.3124  0.1991 -0.0950
    5CHTO   H92 1950   5.285   2.208   3.916 -1.5046 -0.1518  3.1264
    5CHTO   C54 1951   5.077   2.155   3.932  0.2077  0.2486 -0.4676
    5CHTO   O36 1952   5.106   2.144   4.071 -0.3737  0.0816 -0.5303
    5CHTO   H72 1953   5.104   2.054   4.096 -1.6860  0.1946 -0.1969
    5CHTO   O27 1954   4.968   2.455   3.848  0.2750  0.1782  0.5524
    5CHTO   C37 1955   4.850   2.457   3.926 -0.7675  0.8467  0.2230
    5CHTO   H79 1956   4.873   2.403   4.019 -1.5518  0.3823  0.1522
    5CHTO   C38 1957   4.818   2.606   3.956  0.0554  0.3027 -0.1370
    5CHTO   H80 1958   4.795   2.658   3.863 -0.2333  2.7479  1.2672
    5CHTO   O31 1959   4.938   2.671   4.004  0.1636 -0.2728 -0.4573
    5CHTO   H68 1960   5.007   2.647   3.945  0.5831 -0.5616  0.1457
    5CHTO   C39 1961   4.692   2.610   4.054  0.3349  0.4253  0.1759
    5CHTO   H81 1962   4.722   2.552   4.142  0.1139  1.7357  1.1342
    5CHTO    N7 1963   4.646   2.745   4.100 -0.2168 -0.1404  0.1919
    5CHTO   H73 1964   4.574   2.744   4.181  0.6633 -0.3171  0.9827
    5CHTO   H74 1965   4.624   2.816   4.022 -0.8520 -1.2243 -0.6275
    5CHTO   C40 1966   4.568   2.532   4.000  0.8298  0.3158 -0.1334
    5CHTO   H82 1967   4.520   2.595   3.926  0.7370  0.5472  0.1209
    5CHTO   O26 1968   4.613   2.409   3.943  0.3977  0.3490  0.0471
    5CHTO   C41 1969   4.727   2.403   3.852 -1.3237 -0.1062 -0.1423
    5CHTO   H83 1970   4.711   2.472   3.768 -0.8590  1.2564  0.8573
    5CHTO   C52 1971   4.742   2.257   3.807 -0.0113  0.4302 -0.6540
    5CHTO   O35 1972   4.729   2.155   3.927 -0.1350  0.0786  0.0739
    5CHTO   H71 1973   4.758   2.072   3.896  2.1275  0.1190  1.9128
    5CHTO   O28 1974   4.488   2.482   4.113  0.4139  0.0309 -0.3134
    5CHTO   C42 1975   4.342   2.515   4.121 -0.5939  0.1062  0.0099
    5CHTO   H84 1976   4.340   2.622   4.101  1.2031  0.3030  0.7610
    5CHTO   C44 1977   4.273   2.479   4.257  0.0145  0.0383  0.0239
    5CHTO   H86 1978   4.341   2.505   4.338 -0.1727 -2.0152  0.8748
    5CHTO   O32 1979   4.156   2.556   4.268 -0.1944  0.2692 -0.6159
    5CHTO   H69 1980   4.107   2.540   4.190 -0.5380 -0.1910 -0.3082
    5CHTO   C48 1981   4.246   2.321   4.265 -0.2347  0.3778  1.5817
    5CHTO   H90 1982   4.139   2.317   4.289 -0.2274 -0.7999  1.4336
    5CHTO    N9 1983   4.311   2.253   4.378 -0.4514  0.1354  1.0067
    5CHTO   H77 1984   4.279   2.285   4.476 -1.8331 -1.2388  1.0139
    5CHTO   H78 1985   4.419   2.261   4.376 -0.5012  0.6135 -1.2572
    5CHTO   C51 1986   4.279   2.247   4.126 -0.6378  0.2138  0.9774
    5CHTO   H93 1987   4.386   2.236   4.112 -0.8816 -0.1031 -0.6878
    5CHTO   O30 1988   4.221   2.319   4.022  0.2862  0.0376 -0.2353
    5CHTO   C46 1989   4.275   2.441   3.995 -0.1247 -0.5040  0.4888
    5CHTO   H88 1990   4.348   2.413   3.919 -1.0315  0.3903 -0.7241
    5CHTO   C53 1991   4.173   2.516   3.913 -0.5225  0.1055 -0.1487
    5CHTO   O72 1992   4.046   2.512   3.965  0.5637 -0.2891 -0.0483
    5CHTO  H199 1993   4.056   2.511   4.059 -0.5575 -1.0587  0.0698
    5CHTO   O22 1994   4.212   2.122   4.111 -0.2926  0.2995  0.1733
    5CHTO   C31 1995   4.277   2.014   4.039  0.7987  1.2025 -0.0953
    5CHTO   H59 1996   4.200   1.935   4.043  1.4105  0.6807  1.8636
    5CHTO   C29 1997   4.312   2.041   3.885 -0.7115 -0.0969  0.4970
    5CHTO   H57 1998   4.363   2.138   3.870  1.9294 -1.5351 -0.2193
    5CHTO   O21 1999   4.189   2.060   3.811 -0.1213  0.1317 -0.0872
    5CHTO   H37 2000   4.141   1.981   3.795 -0.6859  0.1323  1.5697
    5CHTO   C27 2001   4.405   1.923   3.832 -0.5432 -0.1867 -0.6575
    5CHTO   H55 2002   4.344   1.832   3.824 -2.1829  1.0500 -3.0278
    5CHTO    N5 2003   4.457   1.961   3.700 -0.3915  0.0635  0.7279
    5CHTO   H43 2004   4.546   2.022   3.701 -0.5801  0.4242 -1.8986
    5CHTO   H44 2005   4.472   1.861   3.660  0.2514  0.7748 -0.8316
    5CHTO   C25 2006   4.525   1.880   3.934  0.3830  0.4215 -0.4272
    5CHTO   H53 2007   4.585   1.966   3.967 -1.4707  1.6394 -0.1209
    5CHTO   O17 2008   4.452   1.836   4.050 -0.5627 -0.6173 -0.7205
    5CHTO   C32 2009   4.395   1.946   4.119  0.3107 -0.1990 -0.2398
    5CHTO   H60 2010   4.466   2.026   4.139 -0.2003  0.6564 -1.7879
    5CHTO   C36 2011   4.348   1.896   4.264  0.4131 -0.1319  0.5990
    5CHTO   O25 2012   4.445   1.806   4.327  0.2708  0.2503 -0.5038
    5CHTO   H40 2013   4.481   1.835   4.408 -1.2433  0.0995  0.2266
    5CHTO   O15 2014   4.624   1.754   3.875 -0.1307  0.0137  0.1064
    5CHTO   C19 2015   4.766   1.720   3.907  0.8187  0.3976 -0.3512
    5CHTO   H47 2016   4.799   1.819   3.941  0.2895  0.2905  0.5056
    5CHTO   C20 2017   4.772   1.613   4.024 -0.2172 -0.0493 -0.1137
    5CHTO   H48 2018   4.705   1.529   4.006 -0.9536  0.3611  0.6892
    5CHTO   O19 2019   4.722   1.688   4.137  0.0843  0.0136 -0.0328
    5CHTO   H35 2020   4.686   1.629   4.200  2.8411 -1.8965 -0.1555
    5CHTO   C21 2021   4.919   1.561   4.058 -0.6030 -0.3613  0.0346
    5CHTO   H49 2022   4.970   1.637   4.118 -0.8018  0.2837 -0.6016
    5CHTO    N4 2023   4.918   1.428   4.130  0.0511 -0.6550 -0.0197
    5CHTO   H41 2024   4.861   1.439   4.220  1.0539  0.1148  0.5327
    5CHTO   H42 2025   4.877   1.348   4.070  1.5970 -2.7526  1.6774
    5CHTO   C22 2026   5.014   1.555   3.934 -0.4954  0.5301 -0.6062
    5CHTO   H50 2027   4.996   1.461   3.883  1.1729 -0.3914  0.4549
    5CHTO   O14 2028   4.987   1.666   3.852 -0.2557 -0.4365  0.5521
    5CHTO   C23 2029   4.853   1.675   3.793 -1.0950  0.1347 -0.3871
    5CHTO   H51 2030   4.825   1.574   3.759 -2.0422 -0.1171  1.0980
    5CHTO   C34 2031   4.841   1.774   3.681 -0.1917 -0.4523 -0.2599
    5CHTO   O23 2032   4.886   1.908   3.697 -0.2493  0.0961 -0.2811
    5CHTO   H38 2033   4.861   1.966   3.628 -0.5880 -0.6099 -0.7498
    5CHTO   O16 2034   5.149   1.570   3.976  0.4258 -0.1651 -0.0526
    5CHTO   C24 2035   5.253   1.523   3.862  0.3136 -0.5330  0.1748
    5CHTO   H52 2036   5.206   1.515   3.764  0.1361  3.4198 -0.1432
    5CHTO   C26 2037   5.322   1.392   3.899 -0.6654  0.7365 -0.6072
    5CHTO   H54 2038   5.359   1.403   4.003  0.6202 -1.0840 -0.8557
    5CHTO   O20 2039   5.212   1.300   3.905 -0.2605  0.4312  0.1214
    5CHTO   H36 2040   5.216   1.253   3.985 -0.3042 -0.2743 -0.2863
    5CHTO   C30 2041   5.429   1.343   3.800  0.7085  0.4104 -0.7681
    5CHTO   H58 2042   5.375   1.312   3.709 -0.6578  1.9022 -0.4883
    5CHTO    N6 2043   5.502   1.222   3.844 -0.3502  0.4605 -1.0278
    5CHTO   H45 2044   5.487   1.142   3.774  1.2846 -0.4281 -0.3736
    5CHTO   H46 2045   5.456   1.192   3.937  3.4003 -0.4207  0.6221
    5CHTO   C33 2046   5.523   1.469   3.779 -0.6150 -0.1746  0.3080
    5CHTO   H61 2047   5.580   1.482   3.872 -1.5507  0.3920  0.8012
    5CHTO   O18 2048   5.453   1.593   3.755  0.5770  0.2271 -0.2837
    5CHTO   C28 2049   5.358   1.636   3.850 -0.2683  0.2156  0.6917
    5CHTO   H56 2050   5.402   1.659   3.947 -2.2316 -0.0296  1.6650
    5CHTO   C35 2051   5.285   1.762   3.806  0.6383 -0.2579  0.0324
    5CHTO   O24 2052   5.385   1.861   3.773 -1.0556  0.0140  0.3977
    5CHTO   H39 2053   5.430   1.819   3.702  0.3809  2.4603 -0.2060
    5CHTO    O9 2054   5.618   1.440   3.675 -0.5900  0.4290  0.0049
    5CHTO   C13 2055   5.566   1.459   3.518 -1.0944  0.2615  0.6608
    5CHTO   H26 2056   5.464   1.416   3.513 -0.0919 -2.0319 -0.8575
    5CHTO   C11 2057   5.667   1.360   3.443  0.1976 -0.0098  0.0310
    5CHTO   H24 2058   5.663   1.261   3.492  1.7618  0.3650  0.9798
    5CHTO    O8 2059   5.805   1.408   3.465  0.3352  0.3199  0.4291
    5CHTO    H3 2060   5.852   1.337   3.505 -0.1264  0.1030  0.5848
    5CHTO    C9 2061   5.634   1.367   3.289  0.0689 -0.4075 -0.9575
    5CHTO   H22 2062   5.527   1.342   3.286  0.1816 -1.0133  0.0060
    5CHTO    N2 2063   5.708   1.258   3.213  0.3046 -0.3909  0.0334
    5CHTO   H10 2064   5.651   1.232   3.125  2.3889 -1.8221 -0.9143
    5CHTO   H11 2065   5.704   1.174   3.281  1.0651  1.9576  3.0960
    5CHTO    C7 2066   5.637   1.511   3.231  0.0119 -0.0801 -0.4834
    5CHTO   H20 2067   5.594   1.498   3.129  1.4590 -0.5387 -1.0467
    5CHTO    O4 2068   5.566   1.606   3.314 -0.5263  0.0672 -1.0703
    5CHTO   C14 2069   5.571   1.605   3.457  0.5114 -0.3146  0.1363
    5CHTO   H27 2070   5.476   1.660   3.473  0.6958  0.5809 -1.6841
    5CHTO   C18 2071   5.692   1.694   3.497  0.4276  0.4671 -0.0185
    5CHTO   O13 2072   5.659   1.771   3.614 -0.1689 -0.4215  0.1606
    5CHTO    H7 2073   5.633   1.855   3.584  1.3764  0.5281  1.3912
    5CHTO    O2 2074   5.785   1.555   3.221  0.4122 -0.1343 -0.3210
    5CHTO    C1 2075   5.846   1.614   3.101  0.1910  1.2385  0.2637
    5CHTO   H14 2076   5.774   1.673   3.040  0.5232  1.2562 -0.1156
    5CHTO    C2 2077   5.903   1.508   2.999 -0.1878 -0.2309  0.2322
    5CHTO   H15 2078   5.962   1.442   3.065  0.0635  0.0509  0.2915
    5CHTO    O6 2079   5.789   1.428   2.953 -0.2415  0.0395 -0.3707
    5CHTO    H1 2080   5.762   1.374   3.025 -2.2358  0.9135 -0.4343
    5CHTO    C3 2081   5.994   1.577   2.888  1.0455 -0.2987  0.4725
    5CHTO   H16 2082   5.928   1.632   2.818 -0.4226 -1.0608  1.2260
    5CHTO    N1 2083   6.059   1.478   2.802 -0.2780 -0.5330 -0.4518
    5CHTO    H8 2084   6.119   1.407   2.857  0.9709 -0.4367 -1.6685
    5CHTO    H9 2085   6.111   1.534   2.726 -0.7517  0.2656 -0.1962
    5CHTO    C4 2086   6.094   1.686   2.947  0.0906  0.1248 -0.2187
    5CHTO   H17 2087   6.166   1.632   3.008  0.7065  0.8441 -0.2918
    5CHTO    O1 2088   6.025   1.774   3.031 -1.0060 -0.6126 -0.2819
    5CHTO    C5 2089   5.962   1.712   3.144  0.5717  0.0172 -0.1254
    5CHTO   H18 2090   6.043   1.662   3.198  1.7065  0.3768 -1.4632
    5CHTO   C16 2091   5.911   1.826   3.232 -0.3489  0.2719  0.6971
    5CHTO   O11 2092   6.006   1.928   3.261  0.2954  0.7988  0.1569
    5CHTO    H5 2093   6.070   1.909   3.327 -0.3430  1.6914  1.0368
    5CHTO    O3 2094   6.162   1.773   2.849 -0.4875  0.2993 -0.0723
    5CHTO    C6 2095   6.262   1.864   2.898 -0.3254 -0.8195 -0.4076
    5CHTO   H19 2096   6.249   1.886   3.004  2.1541 -3.8441  0.6163
    5CHTO    C8 2097   6.402   1.801   2.891  0.3917 -0.2811 -0.0311
    5CHTO   H21 2098   6.417   1.761   2.791  0.1885  0.7988 -0.4956
    5CHTO    O7 2099   6.419   1.694   2.991  0.3265  0.3259 -0.1984
    5CHTO    H2 2100   6.504   1.657   2.980 -0.6593 -1.3186 -2.7031
    5CHTO   C12 2101   6.513   1.914   2.906 -0.4591 -0.0684  0.3675
    5CHTO   H25 2102   6.495   1.954   3.008 -1.4184 -2.1224  1.0267
    5CHTO    N3 2103   6.654   1.855   2.906 -0.1318  1.0412 -0.1816
    5CHTO   H12 2104   6.733   1.929   2.899  0.5305  0.5577  1.8202
    5CHTO   H13 2105   6.661   1.794   2.818  1.5210  0.0188  0.6273
    5CHTO   C15 2106   6.484   2.024   2.796 -0.2464  1.0923 -0.8765
    5CHTO   H28 2107   6.500   1.986   2.695  1.2079 -2.1219  0.4934
    5CHTO   O10 2108   6.576   2.167   2.813  0.3557 -0.1662 -0.0979
    5CHTO    H4 2109   6.647   2.163   2.752  0.3641  1.2389 -0.2079
    5CHTO    O5 2110   6.355   2.081   2.818  0.0444 -0.0772  0.2906
    5CHTO   C10 2111   6.238   1.998   2.812 -0.5414  0.5080 -0.8214
    5CHTO   H23 2112   6.221   1.960   2.711  1.0612 -1.6814 -0.3041
    5CHTO   C17 2113   6.115   2.079   2.861 -0.5295  0.4674  0.2525
    5CHTO   O12 2114   5.983   2.021   2.840  0.2497 -0.6295  0.0935
    5CHTO    H6 2115   5.998   1.929   2.845 -1.6108 -1.0804 -1.9218
    6CHTO  H203 2116   3.672   3.860   0.691 -1.8561 -0.1367  0.5728
    6CHTO   O82 2117   3.722   3.887   0.765 -0.1931  0.1294 -0.6156
    6CHTO  C123 2118   3.754   3.778   0.852 -0.4388  0.5059 -0.5624
    6CHTO  H227 2119   3.740   3.680   0.804  0.5596  0.3466 -0.5602
    6CHTO   O77 2120   3.902   3.800   0.873  0.1881  0.1986  0.5099
    6CHTO  C118 2121   3.965   3.706   0.963 -0.3559  0.1268 -0.4994
    6CHTO  H222 2122   3.934   3.601   0.950 -0.4855  0.2647 -1.3610
    6CHTO  C125 2123   4.129   3.716   0.950  0.1582 -0.2180  0.6792
    6CHTO   O84 2124   4.173   3.844   0.999  0.6465 -0.0071 -0.3152
    6CHTO  H205 2125   4.267   3.847   1.003  0.6026  1.0807 -0.0464
    6CHTO  C114 2126   3.919   3.731   1.110  0.2315  0.7649  1.0234
    6CHTO  H218 2127   3.944   3.832   1.140  0.1945  1.1698 -0.2729
    6CHTO  C116 2128   3.767   3.707   1.114 -0.2506 -0.3650  0.0329
    6CHTO  H220 2129   3.757   3.597   1.104 -2.9657 -0.1600  0.2910
    6CHTO   O79 2130   3.712   3.747   1.244  0.1560  0.2726 -0.7489
    6CHTO  H201 2131   3.620   3.732   1.258  0.5348 -0.6957  0.7750
    6CHTO  C120 2132   3.692   3.790   0.995  0.0690  0.3484  0.1499
    6CHTO  H224 2133   3.711   3.894   1.029  0.2824  0.9032 -1.6395
    6CHTO   N21 2134   3.543   3.772   0.991 -0.1803  0.0932 -0.5707
    6CHTO  H211 2135   3.523   3.684   0.931  3.7278 -0.2760 -1.5091
    6CHTO  H212 2136   3.500   3.758   1.089 -1.3818  0.0947 -1.0938
    6CHTO   O75 2137   3.993   3.636   1.185 -0.1662 -0.0001 -0.1616
    6CHTO  C112 2138   4.037   3.720   1.340  0.0802 -0.7945 -0.5243
    6CHTO  H216 2139   3.943   3.758   1.381  0.5119  0.3936 -0.6398
    6CHTO   O73 2140   4.130   3.829   1.308 -0.3950 -0.0237 -0.4015
    6CHTO  C113 2141   4.186   3.914   1.411 -0.3315  0.0550 -0.0102
    6CHTO  H217 2142   4.101   3.977   1.446  1.3493  2.1686  0.3386
    6CHTO  C124 2143   4.280   4.007   1.340  0.2066 -0.0271 -0.4304
    6CHTO   O83 2144   4.377   3.940   1.264  0.0303  0.5830 -0.1846
    6CHTO  H204 2145   4.403   3.985   1.187  3.1986 -0.9804 -0.0834
    6CHTO  C109 2146   4.256   3.834   1.522  0.2904  0.8213 -0.4055
    6CHTO  H213 2147   4.338   3.779   1.475 -0.1211 -1.7173  1.6693
    6CHTO  C110 2148   4.154   3.721   1.566  0.4030  0.2437  0.2685
    6CHTO  H214 2149   4.078   3.776   1.621 -0.4173 -1.5689  1.0194
    6CHTO   O78 2150   4.226   3.635   1.654  0.3644 -0.2133 -0.4227
    6CHTO  H200 2151   4.230   3.685   1.734 -1.5432 -0.7392  0.0404
    6CHTO  C111 2152   4.096   3.633   1.451 -0.0981  0.0719 -0.2652
    6CHTO  H215 2153   4.184   3.582   1.408  1.1714  1.8160  0.1869
    6CHTO   N19 2154   4.001   3.528   1.487  0.0587  0.0533  0.2207
    6CHTO  H207 2155   3.984   3.497   1.589  1.5427  0.3605  0.5770
    6CHTO  H208 2156   3.922   3.517   1.415  1.6757  0.5630 -1.6963
    6CHTO   O74 2157   4.307   3.916   1.634 -0.3005 -0.3172 -0.4804
    6CHTO  C115 2158   4.449   3.906   1.671  0.1492 -1.0791  0.4548
    6CHTO  H219 2159   4.505   3.834   1.611  0.9768  0.6256 -0.8735
    6CHTO   O76 2160   4.528   4.049   1.652 -0.0794 -0.4335  0.1776
    6CHTO  C122 2161   4.467   4.161   1.716  0.2120  0.9147 -0.3156
    6CHTO  H226 2162   4.379   4.191   1.658  0.1938  0.5543 -0.4758
    6CHTO  C126 2163   4.564   4.282   1.723  0.4801 -0.0990  0.5184
    6CHTO   O85 2164   4.596   4.340   1.595  0.3006  0.4721  0.1312
    6CHTO  H206 2165   4.526   4.395   1.565 -1.0443 -0.4375  1.5282
    6CHTO  C121 2166   4.418   4.119   1.863 -0.0227  0.2447 -0.2681
    6CHTO  H225 2167   4.439   4.204   1.931  1.3112 -1.0300  0.9375
    6CHTO   O81 2168   4.272   4.097   1.862 -0.5405 -0.0248 -0.0080
    6CHTO  H202 2169   4.228   4.178   1.880 -0.0944  0.3341 -0.5100
    6CHTO  C119 2170   4.484   3.990   1.915 -0.0462 -0.1322 -1.1303
    6CHTO  H223 2171   4.588   4.016   1.897 -0.2924  0.0595 -2.3612
    6CHTO  C117 2172   4.451   3.863   1.826 -0.1762 -0.5075  0.0073
    6CHTO  H221 2173   4.352   3.823   1.845 -0.8869  1.7590  1.1535
    6CHTO   N20 2174   4.544   3.756   1.853 -0.3996  0.0831 -0.1521
    6CHTO  H209 2175   4.539   3.721   1.955  0.6515 -0.1429 -0.1778
    6CHTO  H210 2176   4.641   3.766   1.809 -0.1671 -2.1296 -0.2071
    6CHTO   O80 2177   4.472   3.976   2.067  0.3351 -0.2821 -0.1911
    6CHTO  C103 2178   4.602   3.962   2.159 -0.6087 -0.0593  0.8131
    6CHTO  H190 2179   4.677   3.891   2.123  0.2458  0.5381  1.3842
    6CHTO  C101 2180   4.689   4.091   2.185  0.4320  0.0982  0.2296
    6CHTO  H188 2181   4.625   4.168   2.227  1.0276 -0.1394  1.6055
    6CHTO   O68 2182   4.745   4.135   2.038  0.6451  0.0646 -0.3035
    6CHTO  H168 2183   4.838   4.141   2.045  0.7877 -1.2647 -0.8541
    6CHTO   C99 2184   4.805   4.067   2.294 -0.2431  0.5665  0.4235
    6CHTO  H186 2185   4.879   3.993   2.256  0.3047  1.4142 -0.1572
    6CHTO   N17 2186   4.894   4.178   2.323  0.5075  0.0325 -0.4457
    6CHTO  H174 2187   4.937   4.219   2.233  0.0361  2.6405  0.4651
    6CHTO  H175 2188   4.858   4.252   2.392  2.6058 -0.7960  1.5830
    6CHTO   C97 2189   4.741   4.009   2.423 -0.3869 -0.4743  0.3933
    6CHTO  H184 2190   4.683   4.087   2.475 -0.9512 -0.3020 -0.4866
    6CHTO   O64 2191   4.662   3.896   2.389 -0.5452  0.3369 -0.1057
    6CHTO  C104 2192   4.552   3.906   2.294  0.1030 -0.2814 -0.0009
    6CHTO  H191 2193   4.484   3.980   2.337  0.2881  0.2022 -0.5400
    6CHTO  C108 2194   4.479   3.769   2.288  0.4847  0.4785 -0.3262
    6CHTO   O71 2195   4.554   3.655   2.256 -0.1740 -0.1950 -0.4294
    6CHTO  H171 2196   4.528   3.579   2.304  0.6110 -1.0010 -1.2547
    6CHTO   O62 2197   4.827   3.945   2.518 -0.1788  0.4011  0.3272
    6CHTO   C91 2198   4.794   3.942   2.657 -0.1337  0.4284  0.2140
    6CHTO  H178 2199   4.837   4.035   2.694 -0.8966  0.6419  0.5728
    6CHTO   C92 2200   4.886   3.835   2.733 -0.1090 -0.0614  0.2881
    6CHTO  H179 2201   4.990   3.853   2.702  0.2473 -0.1369  1.4152
    6CHTO   O66 2202   4.900   3.873   2.868  0.0703 -0.0117 -0.4080
    6CHTO  H166 2203   4.829   3.835   2.915  0.0270  1.2511  0.5553
    6CHTO   C93 2204   4.828   3.693   2.715  0.3067  0.1417 -0.5252
    6CHTO  H180 2205   4.859   3.635   2.803  0.2478 -1.3634 -1.4844
    6CHTO   N16 2206   4.895   3.622   2.599 -0.0336 -0.1603 -0.0126
    6CHTO  H172 2207   4.886   3.670   2.503  0.3484 -1.6622 -0.8044
    6CHTO  H173 2208   4.991   3.579   2.625 -0.6160 -1.1439  0.5504
    6CHTO   C94 2209   4.668   3.693   2.698 -0.9017  0.2275 -0.1480
    6CHTO  H181 2210   4.638   3.696   2.594 -0.9508  1.2218 -0.1069
    6CHTO   O61 2211   4.602   3.802   2.768 -0.2096 -0.1881  0.2168
    6CHTO   C95 2212   4.633   3.927   2.696  0.0880 -0.7123 -0.3822
    6CHTO  H182 2213   4.572   3.929   2.606  0.4333  0.8986 -0.5949
    6CHTO  C106 2214   4.589   4.048   2.787 -0.1289 -0.4974  0.4343
    6CHTO   O69 2215   4.659   4.066   2.911 -0.4614 -0.1241  0.3104
    6CHTO  H169 2216   4.750   4.046   2.898  0.6885  2.5474  3.5369
    6CHTO   O63 2217   4.611   3.553   2.762 -0.1768  0.4233 -0.5317
    6CHTO   C96 2218   4.483   3.499   2.677  0.3584 -0.5123 -0.2245
    6CHTO  H183 2219   4.461   3.572   2.600 -0.0883 -0.4860 -0.0697
    6CHTO   C98 2220   4.354   3.479   2.769 -0.0562  0.2892 -0.0537
    6CHTO  H185 2221   4.366   3.412   2.856 -1.8428  1.7159  1.3544
    6CHTO   O67 2222   4.329   3.607   2.835  0.2505 -0.2411 -0.1143
    6CHTO  H167 2223   4.241   3.607   2.868 -0.1428 -0.4770 -1.1551
    6CHTO  C102 2224   4.226   3.429   2.682  0.0823 -0.7929 -0.4534
    6CHTO  H189 2225   4.204   3.509   2.611 -0.0615 -0.2614  0.1796
    6CHTO   N18 2226   4.098   3.405   2.763  0.8959  0.3366 -0.1134
    6CHTO  H176 2227   4.028   3.483   2.737  2.5730  1.6279 -0.8465
    6CHTO  H177 2228   4.121   3.417   2.867  1.1868  1.2979 -0.2807
    6CHTO  C105 2229   4.264   3.300   2.599 -0.2885 -0.7092 -0.3544
    6CHTO  H192 2230   4.253   3.211   2.661  0.2619 -0.4038  0.1961
    6CHTO   O65 2231   4.400   3.305   2.542  0.4035 -0.3204 -0.0136
    6CHTO  C100 2232   4.509   3.355   2.620 -0.5500  0.1929 -0.2022
    6CHTO  H187 2233   4.530   3.287   2.704 -3.3579 -0.5794 -0.0651
    6CHTO  C107 2234   4.639   3.351   2.533  0.1051  0.0406  0.0710
    6CHTO   O70 2235   4.685   3.218   2.504 -0.1887  0.1063 -0.0516
    6CHTO  H170 2236   4.777   3.221   2.486 -0.3011  0.2608 -0.6186
    6CHTO   O57 2237   4.151   3.293   2.483  0.5958 -0.0703  0.2931
    6CHTO   C85 2238   4.138   3.177   2.398  0.5045  0.5885  0.6435
    6CHTO  H157 2239   4.142   3.095   2.473  1.7690 -0.2045 -0.2625
    6CHTO   C83 2240   4.262   3.150   2.314 -0.7524  0.3671 -0.0526
    6CHTO  H155 2241   4.340   3.120   2.385 -1.0178 -1.1527 -0.3828
    6CHTO   O56 2242   4.307   3.277   2.255 -0.2893  0.4081 -0.5057
    6CHTO  H135 2243   4.388   3.263   2.210 -0.2863 -0.5415 -0.2216
    6CHTO   C81 2244   4.243   3.032   2.218 -0.3515 -0.1855 -0.7209
    6CHTO  H153 2245   4.211   2.949   2.280  2.2860 -0.4385  0.3444
    6CHTO   N14 2246   4.365   3.001   2.137 -0.1419  0.3982 -0.4432
    6CHTO  H141 2247   4.356   2.966   2.037 -1.6609  1.9726 -0.8788
    6CHTO  H142 2248   4.428   2.935   2.193  0.3493 -0.2296 -1.7254
    6CHTO   C79 2249   4.122   3.075   2.125  0.7466 -0.3222 -0.4154
    6CHTO  H151 2250   4.107   2.991   2.058  1.4438 -0.9589  0.2274
    6CHTO   O52 2251   3.997   3.084   2.200 -0.3983  0.3488 -0.1430
    6CHTO   C86 2252   4.004   3.176   2.310  0.5021  0.4789  0.2446
    6CHTO  H158 2253   3.988   3.276   2.264 -1.7955 -0.3396 -0.7549
    6CHTO   C90 2254   3.881   3.154   2.399 -0.3508  0.1412  0.1709
    6CHTO   O60 2255   3.874   3.244   2.501 -0.2080  0.3624  0.2443
    6CHTO  H138 2256   3.800   3.235   2.557 -1.7844  0.5983 -1.7582
    6CHTO   O50 2257   4.143   3.201   2.052 -0.0858  0.0701 -0.0131
    6CHTO   C73 2258   4.056   3.269   1.959 -0.6730  0.1184 -0.3711
    6CHTO  H145 2259   3.961   3.294   2.010 -0.2453 -0.2070  0.6064
    6CHTO   C74 2260   4.021   3.187   1.839 -0.0801 -0.8126 -0.3653
    6CHTO  H146 2261   3.971   3.093   1.868 -1.3156 -0.6884 -1.9575
    6CHTO   O54 2262   3.923   3.259   1.763 -0.7007 -0.7002 -0.4424
    6CHTO  H133 2263   3.851   3.204   1.738  0.5483 -0.3664 -5.4617
    6CHTO   C75 2264   4.150   3.157   1.753  0.0940 -0.3851  0.0409
    6CHTO  H147 2265   4.220   3.103   1.819 -0.1435 -1.0643 -0.2722
    6CHTO   N13 2266   4.121   3.075   1.625 -0.1597 -0.2983  0.2218
    6CHTO  H139 2267   4.038   3.120   1.572 -0.5895 -1.5502 -0.1750
    6CHTO  H140 2268   4.091   2.974   1.645  1.0787 -1.0411 -1.4970
    6CHTO   C76 2269   4.220   3.295   1.720 -0.8802  0.3526  0.2815
    6CHTO  H148 2270   4.159   3.353   1.652  0.8264 -0.2281 -1.7817
    6CHTO   O49 2271   4.240   3.367   1.844  0.4791  0.0453 -0.3156
    6CHTO   C77 2272   4.114   3.397   1.911  0.0621  0.0090 -0.2497
    6CHTO  H149 2273   4.043   3.448   1.846  0.1165  1.5532  0.8794
    6CHTO   C88 2274   4.149   3.503   2.020 -0.1825 -0.1166 -0.0954
    6CHTO   O58 2275   4.210   3.604   1.976  0.3639  0.6094  0.3926
    6CHTO  H136 2276   4.146   3.667   1.950  0.0213  0.8154  1.6810
    6CHTO   O51 2277   4.373   3.250   1.660  0.6005 -0.1063 -0.6568
    6CHTO   C78 2278   4.470   3.360   1.637 -0.0536 -0.1601  0.1550
    6CHTO  H150 2279   4.434   3.444   1.700 -2.2376 -0.5335 -0.5380
    6CHTO   C80 2280   4.483   3.405   1.491 -0.5383  0.8224  0.4219
    6CHTO  H152 2281   4.539   3.325   1.437 -1.3315  0.6047 -0.0760
    6CHTO   O55 2282   4.352   3.409   1.436  0.5959  0.3328  0.0121
    6CHTO  H134 2283   4.293   3.456   1.493  1.2796  0.1903  0.8412
    6CHTO   C84 2284   4.563   3.538   1.483  0.1166  0.6744  0.5535
    6CHTO  H156 2285   4.510   3.613   1.541  1.1722  1.5606  0.3877
    6CHTO   N15 2286   4.576   3.590   1.344 -0.0745 -0.3538  0.2299
    6CHTO  H143 2287   4.490   3.567   1.284 -0.7453  1.3753  0.5184
    6CHTO  H144 2288   4.597   3.694   1.340  3.1162 -1.0022 -0.9327
    6CHTO   C87 2289   4.696   3.527   1.557 -0.6240 -0.5292 -0.2063
    6CHTO  H159 2290   4.760   3.465   1.495  0.8312 -0.3847  1.1225
    6CHTO   O53 2291   4.683   3.456   1.686  0.0613  0.0083 -0.0326
    6CHTO   C82 2292   4.608   3.333   1.686  0.0300 -0.1407  0.0387
    6CHTO  H154 2293   4.662   3.258   1.627  1.1130 -0.7626  1.7668
    6CHTO   C89 2294   4.603   3.276   1.825  0.4050 -0.3235 -0.0254
    6CHTO   O59 2295   4.556   3.359   1.929  0.1152 -0.7074 -0.1431
    6CHTO  H137 2296   4.511   3.435   1.898  0.1197 -1.1824 -1.3462
    6CHTO   O45 2297   4.757   3.676   1.586 -0.2330  0.0299 -0.2751
    6CHTO   C67 2298   4.898   3.673   1.586 -0.4297 -0.6740 -0.4427
    6CHTO  H124 2299   4.937   3.590   1.527 -0.8310 -1.0232 -0.2252
    6CHTO   C65 2300   4.959   3.805   1.532 -0.1248 -0.6393  0.8180
    6CHTO  H122 2301   4.908   3.835   1.440  0.2588  0.8508  1.0865
    6CHTO   O44 2302   5.101   3.801   1.509 -0.2505  0.2785  0.6716
    6CHTO  H102 2303   5.138   3.879   1.472  0.5691 -0.1778  0.5179
    6CHTO   C63 2304   4.910   3.927   1.631 -0.3003 -0.5089  0.6176
    6CHTO  H120 2305   4.802   3.924   1.645 -0.1469 -1.0337  1.7206
    6CHTO   N11 2306   4.946   4.062   1.586 -0.1763 -0.2860 -0.5139
    6CHTO  H108 2307   5.019   4.066   1.507 -0.7657  0.3806 -1.0211
    6CHTO  H109 2308   4.858   4.116   1.560  1.0162  1.0634 -1.8378
    6CHTO   C61 2309   4.964   3.895   1.772 -0.8740 -0.3810  0.6630
    6CHTO  H118 2310   4.916   3.969   1.838  1.4442  0.5675  1.3244
    6CHTO   O40 2311   4.917   3.761   1.824 -0.0696 -0.7177  0.2314
    6CHTO   C68 2312   4.938   3.641   1.741  0.5577  0.5063  0.8836
    6CHTO  H125 2313   4.866   3.571   1.786  1.4165 -0.3685  0.9190
    6CHTO   C72 2314   5.072   3.586   1.762 -0.3459  0.8832 -0.2877
    6CHTO   O48 2315   5.091   3.469   1.678  0.3273 -0.6804  0.1698
    6CHTO  H105 2316   5.038   3.394   1.699 -2.3782  0.9137 -0.7266
    6CHTO   O38 2317   5.112   3.900   1.777  0.3497  0.2882 -0.0503
    6CHTO   C55 2318   5.210   3.942   1.877  0.6351  0.1172  0.7245
    6CHTO  H112 2319   5.223   3.868   1.958  0.5135 -0.4845  0.1997
    6CHTO   C56 2320   5.177   4.088   1.932 -0.3779  0.8922 -0.1717
    6CHTO  H113 2321   5.166   4.155   1.845 -0.8340  1.1044  0.0459
    6CHTO   O42 2322   5.063   4.075   2.011  0.0773  0.6208 -0.0080
    6CHTO  H100 2323   5.079   4.037   2.095  0.2126  0.5833 -0.0516
    6CHTO   C57 2324   5.292   4.148   2.017  0.1943  0.2223 -0.1778
    6CHTO  H114 2325   5.314   4.068   2.089 -0.1476  0.1188 -0.1861
    6CHTO   N10 2326   5.272   4.285   2.079 -0.8815  0.1042  0.0965
    6CHTO  H106 2327   5.211   4.337   2.007 -0.7855 -0.5120 -0.4319
    6CHTO  H107 2328   5.222   4.285   2.175 -0.6532  1.9346  0.2252
    6CHTO   C58 2329   5.408   4.151   1.916 -0.1732 -0.3384 -1.0105
    6CHTO  H115 2330   5.374   4.200   1.823  0.1520  1.7248 -0.0572
    6CHTO   O37 2331   5.449   4.014   1.890  0.4381  0.2181 -0.3721
    6CHTO   C59 2332   5.352   3.938   1.817  0.2602 -0.1598  0.2487
    6CHTO  H116 2333   5.346   3.982   1.717  1.6617  0.6762  0.5180
    6CHTO   C70 2334   5.402   3.793   1.807  0.1738  0.2848  0.0040
    6CHTO   O46 2335   5.364   3.723   1.688 -0.2453  0.2556 -0.4647
    6CHTO  H103 2336   5.381   3.635   1.714 -0.2066  0.9856  2.1950
    6CHTO   O39 2337   5.539   4.226   1.977 -0.0571  0.1810 -0.2127
    6CHTO   C60 2338   5.667   4.201   1.924  0.4718 -0.9942 -0.5216
    6CHTO  H117 2339   5.661   4.116   1.856 -3.0684 -2.6292  1.6635
    6CHTO   C62 2340   5.713   4.326   1.842  0.1511  0.0003 -0.1527
    6CHTO  H119 2341   5.627   4.335   1.773 -1.1196 -0.4030  1.3564
    6CHTO   O43 2342   5.710   4.450   1.923  0.0745  0.1183 -0.0675
    6CHTO  H101 2343   5.740   4.429   2.009 -1.7250  0.0079  0.5394
    6CHTO   C66 2344   5.858   4.294   1.772 -0.3291  0.2509  0.0312
    6CHTO  H123 2345   5.850   4.212   1.700 -3.0202  0.6150 -0.1257
    6CHTO   N12 2346   5.904   4.409   1.686 -0.4151 -0.1937 -0.3456
    6CHTO  H110 2347   5.985   4.462   1.735 -0.3502 -1.0050  0.4349
    6CHTO  H111 2348   5.822   4.470   1.651  0.1515  1.0855  0.5303
    6CHTO   C69 2349   5.964   4.250   1.879  0.2158  0.3658 -0.0743
    6CHTO  H126 2350   5.983   4.336   1.947  0.4977 -0.7323  1.2541
    6CHTO   O41 2351   5.917   4.142   1.956 -0.0704  0.0697 -0.5971
    6CHTO   C64 2352   5.780   4.176   2.026  1.0492  0.3349 -0.3450
    6CHTO  H121 2353   5.792   4.266   2.089 -0.3302  0.9896 -0.9740
    6CHTO   C71 2354   5.749   4.057   2.124  0.5430  0.2092 -0.1828
    6CHTO   O47 2355   5.737   3.933   2.052  0.0529  0.5252  0.1027
    6CHTO  H104 2356   5.721   3.867   2.116  0.6482  1.6718  1.4478
    6CHTO   O34 2357   6.091   4.209   1.814  0.0506  0.9770 -0.0242
    6CHTO   C49 2358   6.213   4.328   1.830 -0.6345  0.5630  0.3786
    6CHTO   H91 2359   6.167   4.421   1.796 -0.1047  0.1810 -1.4223
    6CHTO   C47 2360   6.334   4.305   1.736 -0.8918  0.3915  0.2854
    6CHTO   H89 2361   6.398   4.394   1.756 -0.8340  0.1880  1.0470
    6CHTO   O33 2362   6.289   4.311   1.600 -0.6417 -0.0155  0.3296
    6CHTO   H70 2363   6.359   4.298   1.540 -0.7050 -2.3738  0.7151
    6CHTO   C45 2364   6.405   4.170   1.781  0.6723  0.3480  0.5060
    6CHTO   H87 2365   6.327   4.092   1.783  0.3147  0.6980  0.2754
    6CHTO    N8 2366   6.512   4.130   1.684  0.1405 -0.4702  0.2788
    6CHTO   H75 2367   6.602   4.188   1.699 -0.7827  0.9753  0.2984
    6CHTO   H76 2368   6.478   4.138   1.582 -0.1112 -1.3092  0.2907
    6CHTO   C43 2369   6.451   4.174   1.937  0.0396  0.2706  0.2407
    6CHTO   H85 2370   6.480   4.072   1.964  2.0000  1.1391  1.5001
    6CHTO   O29 2371   6.342   4.224   2.018 -0.2517  0.1723  0.2579
    6CHTO   C50 2372   6.268   4.336   1.976 -0.0533  0.5127  0.2325
    6CHTO   H92 2373   6.181   4.351   2.041  0.4438  2.7094  0.4143
    6CHTO   C54 2374   6.352   4.464   2.008  0.4322 -0.0122 -0.4795
    6CHTO   O36 2375   6.289   4.587   1.975  0.0447 -0.4205  0.1475
    6CHTO   H72 2376   6.202   4.590   2.009  1.1071 -0.0268  2.9715
    6CHTO   O27 2377   6.566   4.251   1.962 -0.0571  0.2367  0.1302
    6CHTO   C37 2378   6.670   4.209   2.055 -0.6088 -0.5604 -0.1730
    6CHTO   H79 2379   6.635   4.134   2.127  1.2299 -1.8611 -0.5906
    6CHTO   C38 2380   6.780   4.124   1.976  0.4786  0.5607  0.3341
    6CHTO   H80 2381   6.820   4.189   1.896 -1.7204 -0.2406 -1.4612
    6CHTO   O31 2382   6.715   4.007   1.921 -0.0490 -0.5838  0.3769
    6CHTO   H68 2383   6.673   3.968   1.995 -0.4394  0.7187  0.8613
    6CHTO   C39 2384   6.895   4.088   2.074 -0.0293 -0.1264  0.0460
    6CHTO   H81 2385   6.856   4.015   2.144 -0.6754 -1.7211 -1.9135
    6CHTO    N7 2386   7.013   4.025   2.000 -0.5399  0.0900  0.1654
    6CHTO   H73 2387   7.065   4.079   1.922 -1.1066 -0.6205 -0.7075
    6CHTO   H74 2388   7.087   3.990   2.070  0.5015  2.2766  0.2209
    6CHTO   C40 2389   6.945   4.214   2.151 -0.2854  0.3769 -0.0530
    6CHTO   H82 2390   6.997   4.285   2.085  0.8425 -0.2240  0.1748
    6CHTO   O26 2391   6.833   4.275   2.223  0.0885 -0.1170 -0.3188
    6CHTO   C41 2392   6.732   4.325   2.133 -0.1744  0.3701 -0.3947
    6CHTO   H83 2393   6.769   4.402   2.063 -0.7507  2.1804  1.2278
    6CHTO   C52 2394   6.621   4.389   2.225 -0.0532  0.5321  0.6440
    6CHTO   O35 2395   6.537   4.300   2.287  0.1469  0.2341  0.0516
    6CHTO   H71 2396   6.559   4.209   2.278  3.1642  1.0353 -1.4247
    6CHTO   O28 2397   7.027   4.176   2.258 -0.2019  0.2210 -0.9547
    6CHTO   C42 2398   7.108   4.291   2.311  0.4325 -0.0466 -0.6094
    6CHTO   H84 2399   7.061   4.381   2.271  2.3863 -0.0626 -3.0260
    6CHTO   C44 2400   7.255   4.293   2.271 -0.3827  0.1574  0.1570
    6CHTO   H86 2401   7.300   4.198   2.297 -2.2762 -0.5232  1.0303
    6CHTO   O32 2402   7.268   4.288   2.126 -0.3364  0.2041  0.1046
    6CHTO   H69 2403   7.197   4.317   2.072 -0.3080 -0.1803 -0.1402
    6CHTO   C48 2404   7.339   4.413   2.344 -0.1431 -0.2921  0.1376
    6CHTO   H90 2405   7.296   4.500   2.293 -2.8556 -2.5233 -1.5331
    6CHTO    N9 2406   7.485   4.413   2.302 -0.0398 -0.1390 -0.2078
    6CHTO   H77 2407   7.493   4.427   2.196  2.5924  0.9305  0.0948
    6CHTO   H78 2408   7.535   4.322   2.334  0.7553  0.7987  1.2735
    6CHTO   C51 2409   7.314   4.405   2.501  0.5480  0.3771  0.4695
    6CHTO   H93 2410   7.354   4.313   2.545 -0.3494  0.5648  1.7083
    6CHTO   O30 2411   7.174   4.415   2.521  0.3998  0.2420 -0.8433
    6CHTO   C46 2412   7.097   4.298   2.465  0.1658 -0.1251 -0.5067
    6CHTO   H88 2413   7.138   4.202   2.497 -1.4700 -0.3931  0.8658
    6CHTO   C53 2414   6.949   4.290   2.510 -0.1728  0.5850  0.0384
    6CHTO   O72 2415   6.947   4.303   2.655 -0.0128  0.4402 -0.2862
    6CHTO  H199 2416   6.862   4.307   2.694  0.1586  0.8117  0.0582
    6CHTO   O22 2417   7.371   4.512   2.572 -0.1735 -0.1348  0.4870
    6CHTO   C31 2418   7.345   4.536   2.717 -0.6620  0.0023 -0.2519
    6CHTO   H59 2419   7.245   4.492   2.739  1.0591 -1.6842  4.8088
    6CHTO   C29 2420   7.443   4.472   2.818  1.1401  0.0790 -0.1103
    6CHTO   H57 2421   7.545   4.512   2.808  1.7315 -0.9392  1.5723
    6CHTO   O21 2422   7.460   4.335   2.784 -0.0286  0.0050  0.2766
    6CHTO   H37 2423   7.452   4.282   2.862 -0.1056 -0.7124 -0.2124
    6CHTO   C27 2424   7.387   4.489   2.969  0.0305  0.3511 -0.2795
    6CHTO   H55 2425   7.297   4.428   2.987 -1.6290  2.3302 -1.6743
    6CHTO    N5 2426   7.495   4.457   3.066 -0.1745  0.4066  0.4117
    6CHTO   H43 2427   7.538   4.362   3.039  0.8445  1.1089 -0.4562
    6CHTO   H44 2428   7.560   4.543   3.071  1.0560 -0.4835 -0.0372
    6CHTO   C25 2429   7.337   4.637   2.993 -0.9597 -0.1645  0.2409
    6CHTO   H53 2430   7.420   4.708   3.012  1.6915 -2.4774 -2.1991
    6CHTO   O17 2431   7.262   4.692   2.876  0.4507 -0.2251 -0.0358
    6CHTO   C32 2432   7.338   4.690   2.752  0.1925  0.8088 -0.1624
    6CHTO   H60 2433   7.437   4.731   2.769  0.2163  0.6467  0.0876
    6CHTO   C36 2434   7.274   4.787   2.646  0.1871 -0.1201 -0.0886
    6CHTO   O25 2435   7.155   4.738   2.585 -0.1122 -0.0668 -0.0538
    6CHTO   H40 2436   7.165   4.691   2.505 -0.4013  0.6714 -0.5258
    6CHTO   O15 2437   7.244   4.646   3.122 -0.4369 -0.1652 -0.3051
    6CHTO   C19 2438   7.149   4.698   3.216 -0.3744 -0.3962  0.0540
    6CHTO   H47 2439   7.084   4.616   3.251  0.2137 -0.9905 -0.2136
    6CHTO   C20 2440   7.209   4.767   3.333 -0.1253 -0.3620  0.2760
    6CHTO   H48 2441   7.275   4.850   3.305  0.0059  0.2532  2.3558
    6CHTO   O19 2442   7.289   4.670   3.402  0.1504 -0.4531 -0.1787
    6CHTO   H35 2443   7.363   4.708   3.445 -0.6419 -0.3991  1.1665
    6CHTO   C21 2444   7.098   4.821   3.431  0.4943 -0.1155  0.3598
    6CHTO   H49 2445   7.041   4.739   3.474  1.1722 -0.5512  0.4291
    6CHTO    N4 2446   7.158   4.899   3.543 -0.1607  0.6479  0.1124
    6CHTO   H41 2447   7.096   4.934   3.625 -0.7083 -1.2959  0.5644
    6CHTO   H42 2448   7.220   4.982   3.514 -1.0560  1.6571  1.0401
    6CHTO   C22 2449   6.999   4.915   3.349 -0.2316 -0.5152 -0.2306
    6CHTO   H50 2450   7.053   5.008   3.332 -1.6378  0.1377 -1.2501
    6CHTO   O14 2451   6.958   4.850   3.229  0.0965  0.4213 -0.0199
    6CHTO   C23 2452   7.060   4.797   3.146  0.5960  0.3744  0.0810
    6CHTO   H51 2453   7.117   4.879   3.100 -0.9737  1.6133  0.2650
    6CHTO   C34 2454   6.986   4.733   3.030  0.0943 -0.2915  0.0714
    6CHTO   O23 2455   6.891   4.640   3.065 -0.0256 -0.6389 -0.1171
    6CHTO   H38 2456   6.933   4.558   3.081 -1.4648 -1.3395  0.1995
    6CHTO   O16 2457   6.878   4.935   3.428 -0.4757  0.0860 -0.4630
    6CHTO   C24 2458   6.788   5.060   3.367  0.1461 -0.4543  0.6708
    6CHTO   H52 2459   6.826   5.100   3.273  0.9316  0.8366  1.5203
    6CHTO   C26 2460   6.785   5.173   3.466  0.1896  0.7353 -0.5496
    6CHTO   H54 2461   6.748   5.138   3.564 -0.8981  0.4894 -1.0404
    6CHTO   O20 2462   6.923   5.211   3.494  0.2248 -0.0227 -0.0098
    6CHTO   H36 2463   6.972   5.134   3.516 -2.5430 -2.0746 -0.7460
    6CHTO   C30 2464   6.708   5.295   3.420 -0.2585  0.3383 -0.5805
    6CHTO   H58 2465   6.751   5.341   3.330 -3.0357  1.5051 -1.3749
    6CHTO    N6 2466   6.697   5.389   3.532  0.0503 -0.3277  0.1120
    6CHTO   H45 2467   6.639   5.474   3.498 -2.3702 -1.2360  1.7819
    6CHTO   H46 2468   6.793   5.422   3.570  0.1011  0.7202 -0.8753
    6CHTO   C33 2469   6.563   5.253   3.379  0.4833  0.0548  0.7943
    6CHTO   H61 2470   6.504   5.225   3.467 -0.6680  0.4567  0.1605
    6CHTO   O18 2471   6.577   5.136   3.293 -0.6586 -0.2288  0.3057
    6CHTO   C28 2472   6.640   5.023   3.350 -0.2470  0.2340  0.6578
    6CHTO   H56 2473   6.602   5.005   3.451 -0.9231  0.0599  0.3768
    6CHTO   C35 2474   6.628   4.895   3.265 -0.7988 -0.0628 -0.2272
    6CHTO   O24 2475   6.491   4.869   3.258  0.1519  0.3805 -0.4670
    6CHTO   H39 2476   6.469   4.798   3.201 -2.5474  0.5512  0.2755
    6CHTO    O9 2477   6.484   5.360   3.315 -0.1946  0.3183  0.0868
    6CHTO   C13 2478   6.328   5.338   3.311 -0.2985  0.1707  0.3973
    6CHTO   H26 2479   6.301   5.305   3.413 -1.0589  3.3115  1.2858
    6CHTO   C11 2480   6.274   5.237   3.197 -0.0271  0.6550  0.4542
    6CHTO   H24 2481   6.319   5.139   3.219 -1.2378 -0.7549 -2.9772
    6CHTO    O8 2482   6.311   5.275   3.060 -0.1963 -0.0515  0.1209
    6CHTO    H3 2483   6.299   5.203   3.001  1.6215 -1.3146  1.2262
    6CHTO    C9 2484   6.122   5.228   3.221  0.1690  0.0364 -0.1344
    6CHTO   H22 2485   6.113   5.179   3.319 -0.0060 -0.8912 -0.6143
    6CHTO    N2 2486   6.061   5.129   3.131  0.3532  0.1536  0.6544
    6CHTO   H10 2487   5.956   5.112   3.151  0.8028 -3.8803  0.1033
    6CHTO   H11 2488   6.119   5.038   3.128  0.9428  0.4412  2.5283
    6CHTO    C7 2489   6.047   5.364   3.199  0.2777 -0.4621 -0.1960
    6CHTO   H20 2490   5.943   5.334   3.220  0.7742 -2.3058 -0.3131
    6CHTO    O4 2491   6.103   5.461   3.286  0.1757 -0.0923 -0.2533
    6CHTO   C14 2492   6.248   5.474   3.304  0.2052 -0.3535  0.5644
    6CHTO   H27 2493   6.253   5.527   3.402 -0.3784  1.6083 -0.4392
    6CHTO   C18 2494   6.302   5.572   3.195 -0.6609  0.4124 -0.4174
    6CHTO   O13 2495   6.435   5.618   3.208 -0.5046 -0.3600  0.4014
    6CHTO    H7 2496   6.458   5.639   3.296  2.6622 -0.9482 -0.2151
    6CHTO    O2 2497   6.047   5.428   3.035  0.0358 -0.3722  0.0174
    6CHTO    C1 2498   5.924   5.498   2.986 -0.9619  0.5545  0.4587
    6CHTO   H14 2499   5.948   5.522   2.880  1.8750  0.1590  0.9661
    6CHTO    C2 2500   5.905   5.633   3.067 -0.1420  0.6441  0.1162
    6CHTO   H15 2501   5.903   5.597   3.171  2.0966 -0.4364 -0.1887
    6CHTO    O6 2502   6.026   5.711   3.050  0.2479 -0.4074  0.3995
    6CHTO    H1 2503   6.024   5.804   3.065  0.7852 -0.2860 -0.2811
    6CHTO    C3 2504   5.767   5.706   3.017 -0.9250  0.1685  0.5154
    6CHTO   H16 2505   5.779   5.744   2.914 -2.8479 -1.4376 -0.3374
    6CHTO    N1 2506   5.739   5.819   3.115 -0.0485 -0.3873 -0.2258
    6CHTO    H8 2507   5.646   5.865   3.083  0.0046 -0.2692 -0.2131
    6CHTO    H9 2508   5.737   5.778   3.214 -0.2334  0.2504  0.0396
    6CHTO    C4 2509   5.646   5.605   3.021  0.0939 -0.3728 -0.8168
    6CHTO   H17 2510   5.630   5.571   3.123 -0.9748 -0.1425 -0.8993
    6CHTO    O1 2511   5.678   5.489   2.937  0.0596 -0.1419 -0.4930
    6CHTO    C5 2512   5.791   5.415   2.994  0.8468 -0.3016 -0.1805
    6CHTO   H18 2513   5.766   5.405   3.100  1.0187 -0.1409 -0.1252
    6CHTO   C16 2514   5.804   5.272   2.926  0.2524  0.1987  0.3173
    6CHTO   O11 2515   5.682   5.201   2.949 -0.0219  0.2495  0.1325
    6CHTO    H5 2516   5.617   5.213   2.883 -1.6455 -0.7026  1.5057
    6CHTO    O3 2517   5.526   5.664   2.970 -0.0428 -0.3551 -0.0315
    6CHTO    C6 2518   5.400   5.600   2.994  0.2724 -0.7664 -0.1696
    6CHTO   H19 2519   5.407   5.504   3.045  0.3937  0.4442  2.1737
    6CHTO    C8 2520   5.323   5.701   3.095 -0.2818  0.3091 -0.0031
    6CHTO   H21 2521   5.297   5.791   3.040 -0.8181 -0.3395 -0.8224
    6CHTO    O7 2522   5.411   5.741   3.205 -0.4493 -0.4566 -0.5309
    6CHTO    H2 2523   5.419   5.835   3.204 -0.9967 -0.4120 -1.3478
    6CHTO   C12 2524   5.185   5.638   3.134  1.0894  0.0300 -0.7668
    6CHTO   H25 2525   5.212   5.540   3.178 -2.8836 -1.1589 -0.7125
    6CHTO    N3 2526   5.102   5.719   3.229  0.4662 -0.2188  0.6530
    6CHTO   H12 2527   5.001   5.681   3.237 -0.8438  1.9952 -3.6212
    6CHTO   H13 2528   5.097   5.823   3.201  0.5170 -0.0636  1.2046
    6CHTO   C15 2529   5.114   5.614   2.998  0.7557 -0.2374 -0.2265
    6CHTO   H28 2530   5.106   5.709   2.946  2.1422 -0.3048 -0.5971
    6CHTO   O10 2531   4.987   5.530   3.013 -0.3454 -0.7612 -0.4441
    6CHTO    H4 2532   4.949   5.506   2.931  2.0832  1.2383 -2.2052
    6CHTO    O5 2533   5.195   5.526   2.910 -0.2319  0.1688  0.0491
    6CHTO   C10 2534   5.322   5.578   2.866 -0.0506 -0.1803  0.2991
    6CHTO   H23 2535   5.301   5.668   2.809 -0.2011 -0.9231 -0.8363
    6CHTO   C17 2536   5.397   5.476   2.775  0.1656 -0.6246  0.0065
    6CHTO   O12 2537   5.306   5.438   2.673  0.2583  0.0963  0.2054
    6CHTO    H6 2538   5.277   5.353   2.703  1.2555  0.6316  2.7460
    7CHTO  H203 2539   4.054   1.340   0.640  1.8389  1.2398  1.6571
    7CHTO   O82 2540   4.108   1.263   0.646 -0.0375 -0.2399  0.2748
    7CHTO  C123 2541   4.135   1.224   0.509  0.3779 -0.3165 -0.1986
    7CHTO  H227 2542   4.040   1.210   0.455  0.7807 -0.3321 -0.9119
    7CHTO   O77 2543   4.209   1.340   0.447 -0.5429  0.5013 -0.3834
    7CHTO  C118 2544   4.243   1.328   0.310  0.2507  0.8106 -0.4406
    7CHTO  H222 2545   4.151   1.314   0.250  0.7517  0.2930 -1.0923
    7CHTO  C125 2546   4.308   1.463   0.279 -0.1543 -0.1341  1.3387
    7CHTO   O84 2547   4.283   1.497   0.138 -0.7248 -0.5933 -0.4692
    7CHTO  H205 2548   4.317   1.584   0.131  0.8622 -1.1181  0.4906
    7CHTO  C114 2549   4.339   1.209   0.292  0.3574  0.0033  1.0133
    7CHTO  H218 2550   4.427   1.220   0.355  0.9388 -0.6677  0.3202
    7CHTO  C116 2551   4.272   1.079   0.341 -0.0228  0.1796  0.3558
    7CHTO  H220 2552   4.186   1.048   0.278  0.3162 -0.6681  0.3169
    7CHTO   O79 2553   4.365   0.967   0.322 -0.0148  0.4526  0.9445
    7CHTO  H201 2554   4.370   0.935   0.234 -1.5328 -0.8227  1.2958
    7CHTO  C120 2555   4.219   1.089   0.489 -0.0042  0.1928 -0.2047
    7CHTO  H224 2556   4.310   1.088   0.552  0.9686  0.9263 -1.5712
    7CHTO   N21 2557   4.149   0.960   0.535 -0.7363  0.1026  0.2122
    7CHTO  H211 2558   4.221   0.881   0.517 -1.1430 -0.3571  0.5837
    7CHTO  H212 2559   4.060   0.946   0.476  0.2149 -2.2648 -0.7485
    7CHTO   O75 2560   4.382   1.206   0.155 -0.1494 -0.2500  0.1777
    7CHTO  C112 2561   4.549   1.194   0.134  0.4962  0.3434 -0.1880
    7CHTO  H216 2562   4.591   1.099   0.171  1.2943  0.1125 -1.6462
    7CHTO   O73 2563   4.612   1.306   0.199 -0.5038  1.0013 -0.1128
    7CHTO  C113 2564   4.756   1.313   0.191  0.0526  0.0321 -0.3972
    7CHTO  H217 2565   4.791   1.215   0.231 -0.0974  0.4724  0.8405
    7CHTO  C124 2566   4.810   1.426   0.280  0.9203  0.4327 -0.0783
    7CHTO   O83 2567   4.785   1.403   0.419  0.3292 -0.5270 -0.1387
    7CHTO  H204 2568   4.860   1.429   0.469  1.0478 -2.5414 -0.1011
    7CHTO  C109 2569   4.794   1.327   0.045  0.2074 -0.4154 -0.5896
    7CHTO  H213 2570   4.760   1.426   0.011  0.3987 -0.6629 -1.5132
    7CHTO  C110 2571   4.738   1.215  -0.043 -0.5990 -0.2384 -0.6854
    7CHTO  H214 2572   4.789   1.119  -0.032  1.3553  0.7260 -1.1210
    7CHTO   O78 2573   4.765   1.254  -0.180 -0.1355 -0.1204 -0.0906
    7CHTO  H200 2574   4.850   1.290  -0.200 -0.0148 -1.2142 -1.6214
    7CHTO  C111 2575   4.582   1.196  -0.025  0.3700  0.5099  0.1170
    7CHTO  H215 2576   4.522   1.281  -0.062  1.1907  0.9453 -0.2213
    7CHTO   N19 2577   4.530   1.077  -0.093  0.3544 -0.3155 -0.2364
    7CHTO  H207 2578   4.501   1.104  -0.193 -1.1220  0.6524  0.4265
    7CHTO  H208 2579   4.608   1.003  -0.094  0.0288 -0.6517 -1.2363
    7CHTO   O74 2580   4.936   1.321   0.037  0.6690 -0.3304 -0.1189
    7CHTO  C115 2581   5.003   1.445  -0.021 -0.3449  0.2355  0.1300
    7CHTO  H219 2582   4.932   1.507  -0.075 -2.4298 -3.3309 -1.3594
    7CHTO   O76 2583   5.074   1.535   0.097 -0.2489  0.3491 -0.1003
    7CHTO  C122 2584   5.178   1.467   0.168 -0.1432 -0.0278  0.0523
    7CHTO  H226 2585   5.130   1.391   0.230  0.5748 -0.2476  0.3511
    7CHTO  C126 2586   5.236   1.571   0.273  0.7038  0.0860  0.7226
    7CHTO   O85 2587   5.278   1.694   0.206 -0.0421  0.2002 -0.0657
    7CHTO  H206 2588   5.201   1.738   0.176 -0.0227  0.4958  0.3207
    7CHTO  C121 2589   5.288   1.416   0.077 -0.0579 -0.0613 -0.3147
    7CHTO  H225 2590   5.351   1.495   0.033 -0.3344  0.6072  0.4801
    7CHTO   O81 2591   5.383   1.345   0.153  0.3673 -0.2127 -0.2525
    7CHTO  H202 2592   5.343   1.268   0.189  1.2336 -0.7188 -0.3758
    7CHTO  C119 2593   5.229   1.323  -0.033 -0.4912  0.6105 -0.3106
    7CHTO  H223 2594   5.306   1.301  -0.107 -2.6231 -2.7682 -1.6479
    7CHTO  C117 2595   5.112   1.391  -0.116  0.6421 -0.4028 -0.3434
    7CHTO  H221 2596   5.052   1.323  -0.177  1.0637 -2.2054  1.2126
    7CHTO   N20 2597   5.155   1.496  -0.209 -0.3615  0.0659  0.5613
    7CHTO  H209 2598   5.241   1.545  -0.167  0.3994 -0.3132 -0.5269
    7CHTO  H210 2599   5.178   1.466  -0.310  2.4360  1.5997  0.6985
    7CHTO   O80 2600   5.198   1.183   0.023  0.6586  0.7798  0.3654
    7CHTO  C103 2601   5.285   1.065  -0.023 -0.1389  0.2433 -0.1622
    7CHTO  H190 2602   5.299   1.055  -0.131  0.1777  0.9156 -0.1828
    7CHTO  C101 2603   5.426   1.081   0.049 -0.1622 -0.0751 -0.1431
    7CHTO  H188 2604   5.421   1.098   0.157  0.5327 -0.8830  0.0197
    7CHTO   O68 2605   5.525   1.203  -0.019 -0.3066 -0.6078 -0.1424
    7CHTO  H168 2606   5.583   1.234   0.047 -0.5624 -0.9736  0.2548
    7CHTO   C99 2607   5.510   0.941   0.025 -0.9096  0.5279 -0.4772
    7CHTO  H186 2608   5.527   0.932  -0.084  0.8253  0.8613 -0.2455
    7CHTO   N17 2609   5.649   0.941   0.088 -0.6105  0.0313  0.2733
    7CHTO  H174 2610   5.730   0.927   0.017 -0.5279 -0.4858  0.4684
    7CHTO  H175 2611   5.668   1.031   0.146 -0.1862  0.4748 -0.5403
    7CHTO   C97 2612   5.426   0.821   0.072  0.3336  0.1257  0.1518
    7CHTO  H184 2613   5.418   0.833   0.181  2.9910 -0.3058  0.4310
    7CHTO   O64 2614   5.294   0.817   0.011 -1.2064  0.1529 -0.2945
    7CHTO  C104 2615   5.210   0.932   0.033  0.2185 -0.3558  0.0043
    7CHTO  H191 2616   5.200   0.941   0.141  1.6763 -1.0094  0.2105
    7CHTO  C108 2617   5.070   0.910  -0.019  0.6327 -0.3880 -0.3061
    7CHTO   O71 2618   4.994   0.794   0.026  0.4194  0.3541 -0.1842
    7CHTO  H171 2619   4.921   0.796  -0.033 -0.9651 -0.8839  1.4325
    7CHTO   O62 2620   5.465   0.688   0.044  0.1672  0.0206  0.0712
    7CHTO   C91 2621   5.509   0.651  -0.087 -0.9250  0.4806  0.8870
    7CHTO  H178 2622   5.521   0.741  -0.147 -1.4387 -1.7242 -2.6368
    7CHTO   C92 2623   5.393   0.557  -0.143  0.5090  0.6478 -0.1832
    7CHTO  H179 2624   5.299   0.613  -0.137 -0.8666 -1.7997  3.0054
    7CHTO   O66 2625   5.418   0.522  -0.284 -0.6463 -0.3856 -1.0047
    7CHTO  H166 2626   5.458   0.589  -0.335  1.0824 -0.3120  0.4057
    7CHTO   C93 2627   5.376   0.422  -0.065  0.4268 -0.4780  0.6274
    7CHTO  H180 2628   5.345   0.341  -0.132  1.0391 -1.3878  1.4274
    7CHTO   N16 2629   5.276   0.430   0.049 -0.4668  0.6518 -0.1227
    7CHTO  H172 2630   5.311   0.372   0.134  2.4820 -3.5686 -3.9962
    7CHTO  H173 2631   5.184   0.398   0.003 -1.3880  1.0809  1.3631
    7CHTO   C94 2632   5.519   0.374  -0.015 -0.0327 -0.3101  0.6822
    7CHTO  H181 2633   5.538   0.400   0.089 -0.6198 -1.2843  1.0343
    7CHTO   O61 2634   5.625   0.424  -0.099  0.4854  0.0186  0.4624
    7CHTO   C95 2635   5.647   0.568  -0.091  0.0840  0.0757 -0.9836
    7CHTO  H182 2636   5.703   0.586   0.001  0.1154 -1.1855 -0.7456
    7CHTO  C106 2637   5.736   0.598  -0.213  0.0867  0.0585 -0.6707
    7CHTO   O69 2638   5.762   0.738  -0.222  0.4616 -0.0275  0.3411
    7CHTO  H169 2639   5.797   0.773  -0.143 -0.0299  0.3004  0.4124
    7CHTO   O63 2640   5.525   0.209  -0.029 -0.2171  0.0637  0.3419
    7CHTO   C96 2641   5.462   0.136   0.090 -0.0217 -0.1239 -0.3620
    7CHTO  H183 2642   5.355   0.137   0.072 -0.6765 -0.4749  3.1203
    7CHTO   C98 2643   5.477   0.180   0.244  0.4324  0.1667 -0.1191
    7CHTO  H185 2644   5.465   0.289   0.252  1.7317  0.1224  3.5940
    7CHTO   O67 2645   5.360   0.127   0.312  0.3894 -0.3321  0.1961
    7CHTO  H167 2646   5.356   0.153   0.403 -0.6511 -2.5380  0.8192
    7CHTO  C102 2647   5.617   0.134   0.307 -0.0309 -0.3239 -0.9000
    7CHTO  H189 2648   5.599   0.140   0.416  1.0589  2.5198 -0.8323
    7CHTO   N18 2649   5.734   0.217   0.275  0.2712 -0.1098 -0.9206
    7CHTO  H176 2650   5.814   0.185   0.340  1.4728  0.4267 -2.1197
    7CHTO  H177 2651   5.711   0.323   0.270 -2.1637 -0.5595 -0.3350
    7CHTO  C105 2652   5.634  -0.016   0.281  0.3659  0.1954 -0.0828
    7CHTO  H192 2653   5.734  -0.045   0.313 -0.7112 -2.6764  0.8484
    7CHTO   O65 2654   5.619  -0.054   0.144 -0.4412 -0.1344 -0.3550
    7CHTO  C100 2655   5.500  -0.016   0.075 -0.5682  0.1256  0.1576
    7CHTO  H187 2656   5.515  -0.039  -0.031 -2.1421 -0.1771 -0.0038
    7CHTO  C107 2657   5.378  -0.106   0.109  0.2073 -0.2293  0.1612
    7CHTO   O70 2658   5.402  -0.242   0.063  0.3124  0.4135 -0.2938
    7CHTO  H170 2659   5.330  -0.289   0.101  0.3678  1.2509  0.8984
    7CHTO   O57 2660   5.532  -0.091   0.389  0.1913  0.0222 -0.2094
    7CHTO   C85 2661   5.579  -0.176   0.496 -0.0550  0.5705  0.1321
    7CHTO  H157 2662   5.667  -0.129   0.544  0.6069 -2.6360  2.2253
    7CHTO   C83 2663   5.626  -0.312   0.442 -0.1081 -0.3616 -0.3928
    7CHTO  H155 2664   5.716  -0.298   0.382  0.9835 -3.4446  0.4797
    7CHTO   O56 2665   5.525  -0.374   0.359 -0.0070  0.2111 -0.3720
    7CHTO  H135 2666   5.442  -0.336   0.380 -0.5613 -0.9015 -0.5472
    7CHTO   C81 2667   5.661  -0.417   0.550 -0.2754  0.3654 -0.4240
    7CHTO  H153 2668   5.748  -0.379   0.602 -0.1732  1.0990 -1.1247
    7CHTO   N14 2669   5.715  -0.539   0.495 -0.2885 -0.3859  0.1421
    7CHTO  H141 2670   5.731  -0.529   0.389 -2.1153  1.4905  0.0202
    7CHTO  H142 2671   5.808  -0.558   0.543 -0.2693 -0.5641  0.0380
    7CHTO   C79 2672   5.533  -0.443   0.644 -0.6528 -0.1516  0.2297
    7CHTO  H151 2673   5.567  -0.509   0.724 -0.4499  1.8277  1.8090
    7CHTO   O52 2674   5.483  -0.317   0.699  0.3145 -0.4116  0.1021
    7CHTO   C86 2675   5.467  -0.206   0.601 -0.1915  0.4676 -1.0487
    7CHTO  H158 2676   5.376  -0.239   0.547 -0.9577  0.8059  0.0210
    7CHTO   C90 2677   5.422  -0.086   0.675 -0.2313  0.0484 -0.3033
    7CHTO   O60 2678   5.287  -0.079   0.719  1.0532 -0.4499 -0.1247
    7CHTO  H138 2679   5.277  -0.037   0.802 -1.7904 -1.5239  0.1157
    7CHTO   O50 2680   5.421  -0.504   0.587 -0.8282 -0.6828 -0.1596
    7CHTO   C73 2681   5.338  -0.581   0.495  0.6730 -0.2889  1.2451
    7CHTO  H145 2682   5.400  -0.612   0.409 -0.3324  0.7256  0.1370
    7CHTO   C74 2683   5.212  -0.504   0.457  0.5464 -0.6600  0.7481
    7CHTO  H146 2684   5.250  -0.410   0.414  0.3363 -0.1852  1.5906
    7CHTO   O54 2685   5.148  -0.574   0.353  0.3385 -0.2024  0.5268
    7CHTO  H133 2686   5.177  -0.536   0.272  4.0945  0.5143  2.0755
    7CHTO   C75 2687   5.124  -0.479   0.588  0.2394 -0.2759 -0.0446
    7CHTO  H147 2688   5.182  -0.416   0.657  1.3105  0.5235 -1.6501
    7CHTO   N13 2689   5.006  -0.402   0.566 -0.5097  0.4554  0.7376
    7CHTO  H139 2690   4.978  -0.418   0.463 -1.5826 -2.0381  1.3728
    7CHTO  H140 2691   5.030  -0.298   0.580  1.5243  0.5828 -3.0012
    7CHTO   C76 2692   5.099  -0.613   0.663 -0.4740 -0.4934  0.1983
    7CHTO  H148 2693   5.022  -0.662   0.602 -1.5944  3.1190 -1.4843
    7CHTO   O49 2694   5.224  -0.690   0.677 -0.1145 -0.1048  0.1409
    7CHTO   C77 2695   5.296  -0.715   0.561 -1.3212 -0.0190 -0.5399
    7CHTO  H149 2696   5.230  -0.772   0.495  0.3409 -1.9631 -0.5409
    7CHTO   C88 2697   5.412  -0.808   0.590  0.0765  0.0281  0.2281
    7CHTO   O58 2698   5.368  -0.949   0.628 -0.6091  0.8890  0.0736
    7CHTO  H136 2699   5.426  -1.022   0.628 -0.5677  0.8183  3.8617
    7CHTO   O51 2700   5.041  -0.590   0.817  0.2074 -0.6362  0.2836
    7CHTO   C78 2701   5.131  -0.616   0.941  0.8706  0.0797 -0.7707
    7CHTO  H150 2702   5.226  -0.667   0.915 -0.7736 -2.6265 -1.7310
    7CHTO   C80 2703   5.046  -0.718   1.018  0.4261 -0.7178  0.2822
    7CHTO  H152 2704   4.942  -0.680   1.020  0.7668  0.3434 -1.3678
    7CHTO   O55 2705   5.035  -0.845   0.945  0.0713  0.3176  0.6360
    7CHTO  H134 2706   4.986  -0.827   0.867  1.3558 -0.0328 -0.2558
    7CHTO   C84 2707   5.087  -0.739   1.165  0.3475 -0.6563  0.2080
    7CHTO  H156 2708   5.185  -0.788   1.166  1.2512  1.0771 -0.9572
    7CHTO   N15 2709   4.981  -0.812   1.243  0.1741  0.4719  0.0796
    7CHTO  H143 2710   5.026  -0.849   1.333  1.9305 -1.3330 -1.4751
    7CHTO  H144 2711   4.933  -0.889   1.187 -0.3100  1.5763 -1.0466
    7CHTO   C87 2712   5.114  -0.595   1.226  0.4415  0.9544  0.1749
    7CHTO  H159 2713   5.021  -0.540   1.237 -0.5309 -0.6630  0.2827
    7CHTO   O53 2714   5.215  -0.519   1.145 -0.0255 -1.0085 -0.1742
    7CHTO   C82 2715   5.162  -0.485   1.015 -0.8995  0.2834  1.2695
    7CHTO  H154 2716   5.073  -0.423   1.020 -2.3507 -1.5825 -0.4486
    7CHTO   C89 2717   5.267  -0.413   0.934  0.1142 -0.1650  0.3049
    7CHTO   O59 2718   5.318  -0.308   1.017 -0.1652  0.0202 -0.0426
    7CHTO  H137 2719   5.385  -0.348   1.069  1.0123 -0.2486 -1.7412
    7CHTO   O45 2720   5.173  -0.609   1.364 -0.9142 -0.1891 -0.5063
    7CHTO   C67 2721   5.221  -0.490   1.436  0.0234  0.2347  0.4369
    7CHTO  H124 2722   5.229  -0.405   1.369 -1.2151  1.3319  1.6490
    7CHTO   C65 2723   5.115  -0.454   1.546  0.2078 -0.0828  0.0389
    7CHTO  H122 2724   5.061  -0.547   1.565  2.4281 -1.8566 -1.9685
    7CHTO   O44 2725   5.028  -0.353   1.486 -0.1022  0.1621  0.2928
    7CHTO  H102 2726   4.976  -0.316   1.555 -1.7741  0.2107 -0.9785
    7CHTO   C63 2727   5.186  -0.407   1.685 -0.1435  0.7694 -0.1011
    7CHTO  H120 2728   5.225  -0.497   1.733 -1.1430 -1.4503 -3.2801
    7CHTO   N11 2729   5.102  -0.361   1.791  0.2345  0.3279  0.4288
    7CHTO  H108 2730   5.019  -0.426   1.812 -0.2800  0.6078 -0.6965
    7CHTO  H109 2731   5.066  -0.260   1.791 -0.3342  0.1469  1.6823
    7CHTO   C61 2732   5.307  -0.313   1.645  0.0932  0.4614 -0.1933
    7CHTO  H118 2733   5.357  -0.269   1.732  2.5861 -0.6585 -1.0077
    7CHTO   O40 2734   5.410  -0.386   1.571 -0.2371 -0.3327  0.0577
    7CHTO   C68 2735   5.367  -0.509   1.498 -0.3612  0.1380  0.0957
    7CHTO  H125 2736   5.372  -0.587   1.577  0.8035  0.8020  0.6779
    7CHTO   C72 2737   5.473  -0.542   1.395 -0.2200  0.0101  0.4169
    7CHTO   O48 2738   5.609  -0.566   1.441  0.0028  0.1694 -0.2826
    7CHTO  H105 2739   5.618  -0.555   1.534  1.4987 -0.5025 -0.3497
    7CHTO   O38 2740   5.266  -0.209   1.561  0.3746  0.4861  0.1145
    7CHTO   C55 2741   5.339  -0.085   1.574 -0.0337 -0.1930 -0.1893
    7CHTO  H112 2742   5.440  -0.091   1.616 -0.5489 -1.3057  0.9102
    7CHTO   C56 2743   5.244   0.006   1.658  0.1072  0.3644  0.2582
    7CHTO  H113 2744   5.142  -0.004   1.617  0.1500 -4.6177  1.1014
    7CHTO   O42 2745   5.235  -0.037   1.797  0.4052 -0.5312  0.2057
    7CHTO  H100 2746   5.150  -0.059   1.831  0.1740  2.4381  1.7302
    7CHTO   C57 2747   5.293   0.157   1.639  0.3510 -0.7657  0.2734
    7CHTO  H114 2748   5.380   0.154   1.705 -1.3783 -0.5348  2.6080
    7CHTO   N10 2749   5.205   0.259   1.692  0.3660 -0.5062  0.0871
    7CHTO  H106 2750   5.141   0.283   1.608  2.5081  0.9371 -1.1786
    7CHTO  H107 2751   5.260   0.348   1.718 -2.4763  1.4427 -0.4280
    7CHTO   C58 2752   5.336   0.194   1.492 -0.4095  0.6620 -0.6140
    7CHTO  H115 2753   5.242   0.207   1.434 -1.0445  0.7172  0.4225
    7CHTO   O37 2754   5.424   0.093   1.441 -0.0482  0.3102  1.0224
    7CHTO   C59 2755   5.362  -0.038   1.428 -0.5333 -0.1438 -0.0806
    7CHTO  H116 2756   5.271  -0.019   1.371 -0.6689 -1.8027 -0.4320
    7CHTO   C70 2757   5.461  -0.126   1.351  0.0753 -0.0054  0.0100
    7CHTO   O46 2758   5.457  -0.111   1.209  0.3509 -0.1753  0.8209
    7CHTO  H103 2759   5.512  -0.178   1.175  2.6149  1.5383  0.9944
    7CHTO   O39 2760   5.441   0.348   1.501  0.7094 -0.3809 -0.6649
    7CHTO   C60 2761   5.580   0.324   1.479 -0.0679 -0.4737  0.0415
    7CHTO  H117 2762   5.606   0.218   1.489  1.2036 -0.3474 -1.6817
    7CHTO   C62 2763   5.602   0.340   1.323 -0.6661 -0.7447  0.1114
    7CHTO  H119 2764   5.526   0.270   1.281  0.7046 -1.9883 -0.3625
    7CHTO   O43 2765   5.572   0.477   1.277  0.0883  0.6621  0.2841
    7CHTO  H101 2766   5.647   0.532   1.270  1.0512 -0.3452  2.1108
    7CHTO   C66 2767   5.749   0.290   1.283  0.0172 -0.6124 -0.0106
    7CHTO  H123 2768   5.761   0.188   1.320  0.2099 -0.3244  0.7368
    7CHTO   N12 2769   5.782   0.289   1.135  0.1921  0.5970 -0.2025
    7CHTO  H110 2770   5.887   0.267   1.124  0.6297  2.0797  0.7025
    7CHTO  H111 2771   5.762   0.390   1.102 -1.5544  0.4949  0.4629
    7CHTO   C69 2772   5.858   0.373   1.358  0.3801  0.0473 -0.8550
    7CHTO  H126 2773   5.877   0.473   1.312 -0.4268 -0.3162 -1.9918
    7CHTO   O41 2774   5.827   0.375   1.520  0.4143  0.5305 -0.2381
    7CHTO   C64 2775   5.680   0.412   1.558  0.0700 -0.4113  0.3331
    7CHTO  H121 2776   5.668   0.519   1.535  3.1179  0.2353  1.4993
    7CHTO   C71 2777   5.665   0.394   1.706  0.2119  0.6761  0.1356
    7CHTO   O47 2778   5.726   0.503   1.770  1.0350  0.5170 -0.5382
    7CHTO  H104 2779   5.812   0.479   1.799  0.7721  0.7742  0.4988
    7CHTO   O34 2780   5.990   0.289   1.333 -0.4090  0.2731 -0.5168
    7CHTO   C49 2781   6.141   0.343   1.342  0.0567 -0.7653 -0.0462
    7CHTO   H91 2782   6.141   0.421   1.417  0.1598 -2.7944  2.1210
    7CHTO   C47 2783   6.168   0.399   1.198  0.0312 -0.3245 -0.1703
    7CHTO   H89 2784   6.269   0.446   1.202 -0.4517  0.7161  0.0887
    7CHTO   O33 2785   6.078   0.506   1.174 -0.1738  0.1340 -0.4177
    7CHTO   H70 2786   6.104   0.558   1.100  2.4304 -2.0894 -1.1553
    7CHTO   C45 2787   6.159   0.284   1.090 -0.1753  0.4433 -0.0693
    7CHTO   H87 2788   6.063   0.230   1.093 -0.1457  0.4152  0.4099
    7CHTO    N8 2789   6.186   0.323   0.947 -0.2179 -0.7036  0.8435
    7CHTO   H75 2790   6.209   0.428   0.932  1.1331 -1.1654 -0.3900
    7CHTO   H76 2791   6.109   0.284   0.883 -0.5932  1.2457  0.0464
    7CHTO   C43 2792   6.263   0.162   1.135  0.7452 -0.7059  0.0984
    7CHTO   H85 2793   6.243   0.080   1.067  1.6864 -1.7741  1.0913
    7CHTO   O29 2794   6.253   0.126   1.271 -0.2034 -0.3769 -0.5516
    7CHTO   C50 2795   6.238   0.229   1.372  0.6553 -0.3247 -0.5787
    7CHTO   H92 2796   6.202   0.175   1.461  1.5976 -1.0756 -0.6431
    7CHTO   C54 2797   6.385   0.271   1.416  0.2237 -0.3008 -0.1572
    7CHTO   O36 2798   6.459   0.161   1.463  0.2211  0.5386  0.2825
    7CHTO   H72 2799   6.472   0.100   1.393 -0.2008  0.2828  0.4327
    7CHTO   O27 2800   6.399   0.206   1.109  0.8695 -0.3442  0.2872
    7CHTO   C37 2801   6.527   0.170   1.064 -1.0121  0.9825  0.6328
    7CHTO   H79 2802   6.600   0.194   1.142 -0.6244 -1.3460  1.0192
    7CHTO   C38 2803   6.535   0.015   1.041 -0.2433 -0.4448 -0.1672
    7CHTO   H80 2804   6.443  -0.019   0.991 -0.1043 -0.1662 -0.6241
    7CHTO   O31 2805   6.529  -0.062   1.162 -0.1362  0.1492 -0.2032
    7CHTO   H68 2806   6.583  -0.009   1.217  1.2816 -2.0769  0.6655
    7CHTO   C39 2807   6.651  -0.035   0.943  0.1318  0.5402 -0.0744
    7CHTO   H81 2808   6.742  -0.035   1.004  0.3021  1.8109 -0.3155
    7CHTO    N7 2809   6.635  -0.172   0.889 -0.5670 -0.3284 -0.2328
    7CHTO   H73 2810   6.544  -0.195   0.835 -0.9855  0.4666  0.1288
    7CHTO   H74 2811   6.651  -0.252   0.960  0.8159  0.0577 -0.0909
    7CHTO   C40 2812   6.684   0.072   0.828  0.4019  0.2189 -0.0177
    7CHTO   H82 2813   6.599   0.067   0.759 -0.4787  2.8712  0.8379
    7CHTO   O26 2814   6.698   0.201   0.891 -0.4419 -0.0623  0.4107
    7CHTO   C41 2815   6.566   0.250   0.928 -0.1986 -0.2534  0.5137
    7CHTO   H83 2816   6.488   0.218   0.858  0.8264 -1.0742 -0.2466
    7CHTO   C52 2817   6.562   0.406   0.952  0.3515  0.1949 -0.5131
    7CHTO   O35 2818   6.609   0.484   0.810 -0.1849  0.2928 -0.1801
    7CHTO   H71 2819   6.571   0.568   0.794 -1.8366 -0.8474 -2.5326
    7CHTO   O28 2820   6.795   0.054   0.739  0.1848 -0.1664 -0.2754
    7CHTO   C42 2821   6.834   0.134   0.627  0.1269  0.0772  0.0574
    7CHTO   H84 2822   6.893   0.067   0.565 -1.3273  1.5689 -3.0876
    7CHTO   C44 2823   6.936   0.255   0.660  0.2107  0.2448  0.6732
    7CHTO   H86 2824   6.891   0.330   0.724  2.4678  2.0619  0.2127
    7CHTO   O32 2825   7.047   0.209   0.728  0.6182 -0.2752  0.3195
    7CHTO   H69 2826   7.106   0.163   0.671 -0.4102  0.1012 -1.0840
    7CHTO   C48 2827   6.971   0.325   0.523  0.5855  0.3515 -0.9919
    7CHTO   H90 2828   7.024   0.255   0.459  0.2108 -0.6945 -0.1834
    7CHTO    N9 2829   7.072   0.437   0.550 -0.2262  0.3625 -1.1432
    7CHTO   H77 2830   7.032   0.500   0.628  0.8713  0.8491 -0.9657
    7CHTO   H78 2831   7.165   0.395   0.584 -1.0829  0.2572  1.1508
    7CHTO   C51 2832   6.842   0.377   0.459 -0.1047  0.3739 -0.0004
    7CHTO   H93 2833   6.787   0.442   0.526  0.1776 -0.3900  0.9836
    7CHTO   O30 2834   6.769   0.259   0.424  0.0908 -0.4356  0.5031
    7CHTO   C46 2835   6.715   0.173   0.534  0.3042 -0.3364  0.6931
    7CHTO   H88 2836   6.639   0.238   0.578 -0.7725 -0.4012 -1.0173
    7CHTO   C53 2837   6.648   0.046   0.476 -0.0724  0.3233 -0.0721
    7CHTO   O72 2838   6.533   0.076   0.390  0.1505  0.6137 -0.0180
    7CHTO  H199 2839   6.559   0.048   0.305  0.3932  0.5223  0.0883
    7CHTO   O22 2840   6.864   0.426   0.325 -0.0241  0.3509  0.1831
    7CHTO   C31 2841   6.768   0.462   0.222 -0.3179 -0.3443  0.2226
    7CHTO   H59 2842   6.827   0.523   0.151  2.7674 -0.1147  2.8591
    7CHTO   C29 2843   6.711   0.346   0.137  0.6174  0.7380  0.5688
    7CHTO   H57 2844   6.653   0.269   0.189 -0.4824 -0.9531 -2.9543
    7CHTO   O21 2845   6.823   0.274   0.090 -0.2440 -0.3755  0.0494
    7CHTO   H37 2846   6.795   0.233   0.011  1.2426 -1.3067 -0.0102
    7CHTO   C27 2847   6.615   0.393   0.026 -0.5606 -0.0215 -0.5537
    7CHTO   H55 2848   6.676   0.448  -0.047 -0.5223  1.7884  0.8166
    7CHTO    N5 2849   6.544   0.283  -0.041  0.1693  0.0873  0.0958
    7CHTO   H43 2850   6.438   0.287  -0.024  0.3277  1.5207  0.7356
    7CHTO   H44 2851   6.576   0.266  -0.143 -0.5232  3.0526 -0.6415
    7CHTO   C25 2852   6.507   0.489   0.075  0.2688 -0.3887 -0.6374
    7CHTO   H53 2853   6.428   0.441   0.134 -0.2988  1.0866 -0.1728
    7CHTO   O17 2854   6.571   0.590   0.161  0.4157  0.1286  0.1057
    7CHTO   C32 2855   6.649   0.553   0.272 -0.1128  0.1893  0.3008
    7CHTO   H60 2856   6.584   0.501   0.342  0.0974 -0.8015 -0.2300
    7CHTO   C36 2857   6.689   0.682   0.346 -0.3544 -0.1368  0.0895
    7CHTO   O25 2858   6.766   0.772   0.266  0.2723  0.4783  0.0964
    7CHTO   H40 2859   6.721   0.798   0.188  0.0724 -0.9578 -0.2647
    7CHTO   O15 2860   6.445   0.578  -0.042  0.2734  0.0034 -0.2854
    7CHTO   C19 2861   6.360   0.693  -0.064 -0.4570 -0.3733  0.4344
    7CHTO   H47 2862   6.354   0.709  -0.173  1.3369 -0.2126  0.3399
    7CHTO   C20 2863   6.219   0.677  -0.012  0.3463  0.0362 -0.6887
    7CHTO   H48 2864   6.220   0.634   0.090 -0.7558 -0.1545 -0.7565
    7CHTO   O19 2865   6.158   0.576  -0.097  0.2876  0.2387  0.0122
    7CHTO   H35 2866   6.119   0.504  -0.050  1.5864  0.5458  1.5752
    7CHTO   C21 2867   6.146   0.815  -0.012  0.2685 -0.2655  0.1109
    7CHTO   H49 2868   6.141   0.853  -0.114  0.0524  0.8407  0.5284
    7CHTO    N4 2869   6.008   0.799   0.035  0.1114  0.2654 -0.0807
    7CHTO   H41 2870   5.952   0.891   0.042  1.7082  1.1943  0.7858
    7CHTO   H42 2871   5.988   0.738   0.122  0.1504  0.4828  0.0815
    7CHTO   C22 2872   6.223   0.919   0.072 -0.8785 -0.1507 -0.5789
    7CHTO   H50 2873   6.240   0.879   0.172  1.3675  1.3190 -0.3382
    7CHTO   O14 2874   6.347   0.940   0.004  0.6283 -0.0600  0.0937
    7CHTO   C23 2875   6.430   0.827  -0.011  0.1155 -0.3116  0.8167
    7CHTO   H51 2876   6.475   0.816   0.089  2.5766  1.0778 -0.0869
    7CHTO   C34 2877   6.541   0.858  -0.111 -0.3206  0.1728 -0.7825
    7CHTO   O23 2878   6.659   0.787  -0.096 -0.0706  0.0789 -0.0020
    7CHTO   H38 2879   6.690   0.788  -0.007 -2.0633  1.3678  0.7198
    7CHTO   O16 2880   6.180   1.050   0.076  0.2488  0.2078 -0.1218
    7CHTO   C24 2881   6.226   1.128   0.207 -0.1780 -0.4855 -0.3688
    7CHTO   H52 2882   6.308   1.078   0.257 -0.1813 -0.4191 -0.2965
    7CHTO   C26 2883   6.114   1.142   0.312  0.9466  0.0906 -0.4438
    7CHTO   H54 2884   6.035   1.204   0.266  1.1298  1.2514  0.7873
    7CHTO   O20 2885   6.066   1.015   0.351  0.4242 -0.0893  0.0474
    7CHTO   H36 2886   5.983   1.031   0.393 -0.0363 -0.5496 -0.6612
    7CHTO   C30 2887   6.174   1.215   0.442  0.1332 -0.0461  0.2911
    7CHTO   H58 2888   6.256   1.160   0.490  0.3667 -1.1604 -1.3348
    7CHTO    N6 2889   6.076   1.222   0.554 -0.1313  0.2366 -0.7065
    7CHTO   H45 2890   5.992   1.277   0.514 -0.2765 -0.6217 -1.6121
    7CHTO   H46 2891   6.116   1.280   0.636  3.2392 -0.6343 -1.6889
    7CHTO   C33 2892   6.236   1.353   0.398 -0.0026 -0.3987  0.3898
    7CHTO   H61 2893   6.154   1.423   0.376  1.1166  1.4353  1.9771
    7CHTO   O18 2894   6.325   1.345   0.282  0.3323  0.1671  0.1077
    7CHTO   C28 2895   6.288   1.267   0.166 -0.3190 -0.4500  0.4380
    7CHTO   H56 2896   6.220   1.318   0.098 -0.9550 -0.8142  0.7976
    7CHTO   C35 2897   6.428   1.249   0.092  0.4509 -0.6584  0.1478
    7CHTO   O24 2898   6.486   1.370   0.051  0.3559 -0.1844 -0.3629
    7CHTO   H39 2899   6.579   1.365   0.060  0.5826  2.2184 -0.9765
    7CHTO    O9 2900   6.306   1.415   0.507 -0.1715  0.3313  0.3250
    7CHTO   C13 2901   6.360   1.558   0.473  0.0172  0.3398 -0.1396
    7CHTO   H26 2902   6.354   1.575   0.364  1.4542  1.6253 -0.0394
    7CHTO   C11 2903   6.508   1.567   0.527 -0.3963  0.0063 -0.3846
    7CHTO   H24 2904   6.565   1.479   0.494  2.6562  1.6681  0.3436
    7CHTO    O8 2905   6.517   1.567   0.673  0.3772 -0.1390  0.0285
    7CHTO    H3 2906   6.589   1.618   0.704  1.6459 -2.7691  1.6035
    7CHTO    C9 2907   6.567   1.691   0.466  0.3672 -0.0186 -0.2068
    7CHTO   H22 2908   6.560   1.678   0.357 -1.8287 -1.8395  0.1262
    7CHTO    N2 2909   6.709   1.710   0.487  0.0833  0.4880 -0.2030
    7CHTO   H10 2910   6.767   1.726   0.397  0.6872 -3.6676 -0.6472
    7CHTO   H11 2911   6.747   1.630   0.548 -0.8531 -1.5409 -2.1828
    7CHTO    C7 2912   6.482   1.819   0.508  0.7824  0.8186 -1.2308
    7CHTO   H20 2913   6.448   1.858   0.410  0.0711 -0.1942 -1.3981
    7CHTO    O4 2914   6.367   1.788   0.586 -0.0204  0.7657  0.1131
    7CHTO   C14 2915   6.282   1.687   0.531  0.2359 -0.4327  0.3044
    7CHTO   H27 2916   6.226   1.741   0.452  1.8548 -0.0194 -0.5731
    7CHTO   C18 2917   6.182   1.651   0.639 -0.0907  0.3121  0.0228
    7CHTO   O13 2918   6.067   1.572   0.590 -0.3685 -0.0008 -0.3070
    7CHTO    H7 2919   6.016   1.537   0.660 -0.5863 -0.5969 -0.7666
    7CHTO    O2 2920   6.567   1.959   0.581 -0.1763 -0.1243 -0.0860
    7CHTO    C1 2921   6.526   2.088   0.537 -0.6961 -1.1343 -0.5900
    7CHTO   H14 2922   6.565   2.168   0.603  0.4994 -0.9187 -1.5294
    7CHTO    C2 2923   6.367   2.103   0.515 -0.6662  0.6005  0.5217
    7CHTO   H15 2924   6.331   2.029   0.441 -0.0582  0.3300  0.5013
    7CHTO    O6 2925   6.307   2.074   0.643  0.0431  0.5627  0.2390
    7CHTO    H1 2926   6.215   2.067   0.627  0.1494 -0.5134  0.0731
    7CHTO    C3 2927   6.317   2.244   0.463  0.7209 -1.0478  0.1871
    7CHTO   H16 2928   6.338   2.326   0.533 -2.0911 -0.1358  0.0056
    7CHTO    N1 2929   6.168   2.258   0.434 -0.2827 -0.1161 -0.4968
    7CHTO    H8 2930   6.130   2.184   0.365  0.0358  1.3192 -2.2498
    7CHTO    H9 2931   6.153   2.352   0.384  1.7768 -0.6052 -2.1389
    7CHTO    C4 2932   6.408   2.280   0.344 -0.7379  0.2563 -0.1673
    7CHTO   H17 2933   6.373   2.218   0.261 -1.1566  0.3523 -0.0616
    7CHTO    O1 2934   6.548   2.256   0.364 -0.2499 -0.3533  0.2871
    7CHTO    C5 2935   6.585   2.121   0.399 -0.2229  0.3058 -0.5914
    7CHTO   H18 2936   6.555   2.051   0.320 -0.5114  1.0559 -1.1476
    7CHTO   C16 2937   6.740   2.106   0.406 -0.1086 -0.2790  0.0636
    7CHTO   O11 2938   6.800   2.150   0.287  0.6678 -0.1423  0.6411
    7CHTO    H5 2939   6.790   2.081   0.224  1.2473 -1.5104  2.0435
    7CHTO    O3 2940   6.400   2.419   0.306 -0.4694 -0.4338 -0.1256
    7CHTO    C6 2941   6.457   2.442   0.173  0.0620  0.0243  0.2419
    7CHTO   H19 2942   6.514   2.361   0.127  0.7540  1.3917 -1.3402
    7CHTO    C8 2943   6.335   2.473   0.088 -0.3515 -0.5935  0.9320
    7CHTO   H21 2944   6.273   2.543   0.143 -0.4395 -1.7948  2.3706
    7CHTO    O7 2945   6.261   2.352   0.072  0.2587 -0.0932 -0.4088
    7CHTO    H2 2946   6.170   2.355   0.094  0.3878  0.7853  0.0315
    7CHTO   C12 2947   6.380   2.528  -0.062 -0.0212 -0.2902  0.1862
    7CHTO   H25 2948   6.427   2.445  -0.119 -1.1762 -1.1557  0.4713
    7CHTO    N3 2949   6.262   2.568  -0.142 -0.3489 -0.0618  0.4973
    7CHTO   H12 2950   6.192   2.486  -0.136  0.5378 -0.7269  2.2284
    7CHTO   H13 2951   6.232   2.671  -0.129  1.5695  0.4293  1.2573
    7CHTO   C15 2952   6.491   2.643  -0.035 -0.2710  1.1540 -0.4450
    7CHTO   H28 2953   6.442   2.726   0.015 -1.0649  0.8537 -0.7040
    7CHTO   O10 2954   6.564   2.692  -0.163 -0.7804 -0.2918 -0.1431
    7CHTO    H4 2955   6.521   2.766  -0.202  1.4945  0.7046 -0.8563
    7CHTO    O5 2956   6.598   2.593   0.049 -0.1355 -0.4252  0.0434
    7CHTO   C10 2957   6.556   2.561   0.178  0.0046 -0.0858 -0.2110
    7CHTO   H23 2958   6.503   2.647   0.219 -1.4841 -0.2210 -1.7887
    7CHTO   C17 2959   6.686   2.540   0.263  0.7465 -0.1062  0.7816
    7CHTO   O12 2960   6.670   2.575   0.400 -0.2200  0.1947  0.4300
    7CHTO    H6 2961   6.583   2.561   0.432 -1.0665  0.4827 -1.6781
    8CHTO  H203 2962   6.807   6.651   2.385 -0.7967  0.1067  0.0269
    8CHTO   O82 2963   6.862   6.660   2.310 -0.3438  0.2039  0.3666
    8CHTO  C123 2964   6.854   6.782   2.242  0.5846  0.5303 -0.8191
    8CHTO  H227 2965   6.949   6.798   2.190  0.6610  0.0247 -0.8393
    8CHTO   O77 2966   6.750   6.763   2.148 -0.0805  0.5698  0.1074
    8CHTO  C118 2967   6.712   6.869   2.071  0.0803 -0.1346  0.2089
    8CHTO  H222 2968   6.799   6.898   2.010 -1.9041  1.3097 -2.0520
    8CHTO  C125 2969   6.602   6.827   1.973 -0.1047  0.1668 -0.3041
    8CHTO   O84 2970   6.642   6.716   1.881  0.5412  0.0790  0.3329
    8CHTO  H205 2971   6.655   6.639   1.932 -0.2417  0.1167  0.5980
    8CHTO  C114 2972   6.669   6.997   2.144 -0.4602 -0.4074 -0.2498
    8CHTO  H218 2973   6.580   6.978   2.204  0.5228  0.0588  1.3905
    8CHTO  C116 2974   6.789   7.036   2.239  0.0238  0.1949 -0.1430
    8CHTO  H220 2975   6.878   7.060   2.176 -0.8517  2.1265 -0.7107
    8CHTO   O79 2976   6.750   7.155   2.316 -0.9194 -0.3890  0.2295
    8CHTO  H201 2977   6.776   7.237   2.281 -0.4301 -0.2110  0.9944
    8CHTO  C120 2978   6.824   6.913   2.329 -0.1681  0.0174  0.1384
    8CHTO  H224 2979   6.735   6.894   2.392  0.7846 -1.9302  0.9676
    8CHTO   N21 2980   6.941   6.942   2.424 -0.5364  0.3381  0.9994
    8CHTO  H211 2981   6.908   6.992   2.514 -1.7277  2.8332 -0.7877
    8CHTO  H212 2982   7.015   7.004   2.376 -1.7730  0.1525 -1.1810
    8CHTO   O75 2983   6.627   7.093   2.048  0.6070  0.6181 -0.3119
    8CHTO  C112 2984   6.550   7.230   2.092  0.0478 -0.1975 -0.6659
    8CHTO  H216 2985   6.621   7.297   2.142  0.7507 -2.5727  1.5976
    8CHTO   O73 2986   6.444   7.189   2.180 -0.2020  0.8941  0.1998
    8CHTO  C113 2987   6.375   7.297   2.241 -0.2044 -0.6830 -0.0107
    8CHTO  H217 2988   6.455   7.368   2.272 -0.1332 -1.4439  1.6208
    8CHTO  C124 2989   6.294   7.244   2.369 -0.3516 -0.2839 -0.1676
    8CHTO   O83 2990   6.373   7.182   2.469  0.0180  0.0695  0.1667
    8CHTO  H204 2991   6.369   7.228   2.550  0.4226 -0.3112  0.3994
    8CHTO  C109 2992   6.285   7.349   2.133 -0.2276 -0.4270 -0.3349
    8CHTO  H213 2993   6.215   7.268   2.106  1.8948 -1.7829 -1.9835
    8CHTO  C110 2994   6.372   7.395   2.008  0.0884  0.5459 -0.7161
    8CHTO  H214 2995   6.418   7.489   2.039 -2.0829  1.6772 -0.7860
    8CHTO   O78 2996   6.279   7.434   1.903 -0.2919 -0.1860 -0.7978
    8CHTO  H200 2997   6.326   7.488   1.842 -0.1150  1.1164  0.4500
    8CHTO  C111 2998   6.483   7.290   1.965  0.3333  0.0883 -0.7186
    8CHTO  H215 2999   6.439   7.205   1.910 -1.0427 -0.7839  1.6353
    8CHTO   N19 3000   6.580   7.352   1.872 -0.0321  0.2149 -0.4961
    8CHTO  H207 3001   6.548   7.452   1.847  2.1091  0.9607 -0.3468
    8CHTO  H208 3002   6.681   7.348   1.911 -0.1344  1.2415 -0.1085
    8CHTO   O74 3003   6.212   7.472   2.176  0.0750  0.2712  0.0951
    8CHTO  C115 3004   6.066   7.461   2.198 -0.0558  0.2837  0.2309
    8CHTO  H219 3005   6.026   7.366   2.161 -0.7445  1.1774 -1.3581
    8CHTO   O76 3006   6.018   7.466   2.371  0.1736 -0.0567  0.3793
    8CHTO  C122 3007   6.030   7.602   2.424  0.5363  0.4718 -0.2054
    8CHTO  H226 3008   6.134   7.634   2.428  0.0718  2.0270  0.1709
    8CHTO  C126 3009   5.980   7.602   2.567 -0.3701  0.4105 -0.1411
    8CHTO   O85 3010   5.844   7.570   2.582 -0.2347 -0.1867 -0.1509
    8CHTO  H206 3011   5.841   7.477   2.567  1.2986 -0.5128  1.4140
    8CHTO  C121 3012   5.951   7.711   2.343 -1.0612 -0.1953  0.2572
    8CHTO  H225 3013   5.845   7.677   2.336 -1.4051  1.1575 -1.2696
    8CHTO   O81 3014   5.949   7.843   2.410 -0.1296 -0.2093 -0.0491
    8CHTO  H202 3015   6.033   7.876   2.437 -0.2653 -0.9960  1.3877
    8CHTO  C119 3016   6.012   7.714   2.202  0.0578  0.9785 -0.0873
    8CHTO  H223 3017   5.957   7.793   2.152  0.2634 -1.0040 -3.5665
    8CHTO  C117 3018   6.011   7.587   2.118 -0.5178  0.0682  0.2607
    8CHTO  H221 3019   6.081   7.598   2.035  1.6419  1.8560  2.2353
    8CHTO   N20 3020   5.875   7.561   2.052 -0.1903  0.1631 -0.0722
    8CHTO  H209 3021   5.871   7.483   1.978 -1.0050  0.0874  0.0434
    8CHTO  H210 3022   5.852   7.657   2.008 -0.6668  0.6984  1.3202
    8CHTO   O80 3023   6.162   7.774   2.211 -0.1773  0.1891 -0.1547
    8CHTO  C103 3024   6.194   7.909   2.151  0.7014  0.2487  0.1913
    8CHTO  H190 3025   6.125   7.927   2.068 -0.1583 -2.1774  0.3519
    8CHTO  C101 3026   6.183   8.030   2.250  0.4649  0.9307  0.5404
    8CHTO  H188 3027   6.214   7.994   2.348 -1.1840  1.1499  1.1606
    8CHTO   O68 3028   6.026   8.071   2.264  0.8900  0.5190 -0.6365
    8CHTO  H168 3029   6.004   8.107   2.180 -0.0839  1.8411  0.1536
    8CHTO   C99 3030   6.270   8.161   2.196 -0.0197 -0.7947  0.1410
    8CHTO  H186 3031   6.214   8.202   2.110  1.8120  2.9310  0.6273
    8CHTO   N17 3032   6.286   8.266   2.302  0.4742 -0.1570  0.6566
    8CHTO  H174 3033   6.187   8.295   2.337  0.4280  0.0107  0.3860
    8CHTO  H175 3034   6.344   8.350   2.267 -1.6774  0.3736 -1.8538
    8CHTO   C97 3035   6.409   8.111   2.141  0.2131  0.5837  0.6673
    8CHTO  H184 3036   6.471   8.067   2.221  0.8783 -0.1462 -0.2461
    8CHTO   O64 3037   6.389   8.015   2.027  0.3045 -0.0743 -0.1163
    8CHTO  C104 3038   6.339   7.891   2.086  0.2473  0.5543  0.8545
    8CHTO  H191 3039   6.409   7.858   2.162 -0.1483  1.2875  1.5391
    8CHTO  C108 3040   6.328   7.779   1.974  0.7437 -0.0868  0.0466
    8CHTO   O71 3041   6.447   7.768   1.901 -0.3350  0.4054  0.1343
    8CHTO  H171 3042   6.510   7.725   1.957  1.1480  0.1970 -1.6286
    8CHTO   O62 3043   6.486   8.226   2.095  0.2477 -0.3616 -0.0602
    8CHTO   C91 3044   6.632   8.196   2.094  0.0836  0.9898 -0.6515
    8CHTO  H178 3045   6.656   8.150   2.190  0.0005 -1.8332 -1.9279
    8CHTO   C92 3046   6.689   8.347   2.087 -0.2287  0.3335 -0.8992
    8CHTO  H179 3047   6.646   8.410   2.166 -2.2280  0.9908 -2.4696
    8CHTO   O66 3048   6.831   8.335   2.108  0.2744  0.2621  0.3962
    8CHTO  H166 3049   6.860   8.305   2.192  0.7695 -2.3771 -0.6714
    8CHTO   C93 3050   6.664   8.411   1.944  0.4423  0.4183  0.2605
    8CHTO  H180 3051   6.745   8.484   1.928  0.5104  0.4762  0.8675
    8CHTO   N16 3052   6.539   8.487   1.926 -0.0523  0.2066 -0.6969
    8CHTO  H172 3053   6.544   8.582   1.977  1.5700  0.2959 -0.9893
    8CHTO  H173 3054   6.456   8.434   1.971  2.3036 -1.4928  1.8351
    8CHTO   C94 3055   6.670   8.304   1.830 -0.7533  0.0406  0.3281
    8CHTO  H181 3056   6.573   8.264   1.801 -0.8916 -0.3542  1.3351
    8CHTO   O61 3057   6.750   8.196   1.874 -0.2179  0.5266 -0.5259
    8CHTO   C95 3058   6.685   8.111   1.971  0.1446  0.9376  0.2807
    8CHTO  H182 3059   6.597   8.061   1.929  1.7924 -1.8389  0.0007
    8CHTO  C106 3060   6.769   7.991   2.025 -0.4548 -0.0900 -0.0593
    8CHTO   O69 3061   6.836   7.916   1.921  0.1345  0.5102 -0.1859
    8CHTO  H169 3062   6.905   7.862   1.956  0.8705  0.8557 -1.0950
    8CHTO   O63 3063   6.738   8.391   1.705  0.0535 -0.1806  0.4031
    8CHTO   C96 3064   6.708   8.308   1.570 -0.6480 -0.7506  0.3171
    8CHTO  H183 3065   6.639   8.233   1.610 -2.4186 -0.3060 -1.7926
    8CHTO   C98 3066   6.836   8.248   1.510 -0.4425 -0.0665  0.3810
    8CHTO  H185 3067   6.918   8.313   1.543  1.7113 -2.1256 -0.7524
    8CHTO   O67 3068   6.866   8.125   1.571 -0.2501  0.5859  0.0782
    8CHTO  H167 3069   6.945   8.130   1.621  0.5378 -0.0825 -1.0909
    8CHTO  C102 3070   6.841   8.220   1.349 -0.4201  0.1201 -0.2111
    8CHTO  H189 3071   6.785   8.126   1.339 -0.9395  0.4201 -0.1960
    8CHTO   N18 3072   6.978   8.199   1.288 -0.3798  0.3196 -0.1078
    8CHTO  H176 3073   7.050   8.263   1.338  0.0945 -0.2969 -0.0003
    8CHTO  H177 3074   6.972   8.191   1.181 -2.2622  1.6577 -0.1239
    8CHTO  C105 3075   6.760   8.326   1.269  0.7192 -0.6960 -0.3687
    8CHTO  H192 3076   6.817   8.418   1.253 -0.0116 -0.1150  0.2935
    8CHTO   O65 3077   6.641   8.364   1.337 -0.5610  0.4807 -0.1517
    8CHTO  C100 3078   6.642   8.404   1.477  0.0201 -0.6402  0.5365
    8CHTO  H187 3079   6.706   8.493   1.476 -0.6113 -0.1681 -2.1849
    8CHTO  C107 3080   6.499   8.448   1.531  0.7883  0.0513  0.1419
    8CHTO   O70 3081   6.449   8.547   1.442 -0.4664 -0.0235  0.3206
    8CHTO  H170 3082   6.394   8.504   1.380 -0.1454 -1.2842  0.8914
    8CHTO   O57 3083   6.723   8.250   1.120 -0.2374 -0.1674  0.1473
    8CHTO   C85 3084   6.784   8.291   0.994 -0.1818 -0.0118  0.0708
    8CHTO  H157 3085   6.892   8.315   1.008 -0.3899  1.7821 -1.2305
    8CHTO   C83 3086   6.719   8.425   0.958 -0.1723 -0.1068 -0.2875
    8CHTO  H155 3087   6.748   8.496   1.036 -0.3049 -0.4879  0.1090
    8CHTO   O56 3088   6.576   8.421   0.957  0.8767 -0.2590  0.1049
    8CHTO  H135 3089   6.543   8.335   0.972 -1.5197  0.8648  1.5722
    8CHTO   C81 3090   6.779   8.474   0.828  0.5089 -0.8356 -0.1371
    8CHTO  H153 3091   6.887   8.479   0.838  0.4721  0.7603 -0.4027
    8CHTO   N14 3092   6.749   8.617   0.799  0.6504  0.1117 -0.3054
    8CHTO  H141 3093   6.716   8.631   0.699  0.8061 -2.0480 -0.6980
    8CHTO  H142 3094   6.826   8.689   0.815  0.0047  0.9961 -1.1751
    8CHTO   C79 3095   6.732   8.373   0.709 -0.0952 -0.8209  0.5611
    8CHTO  H151 3096   6.775   8.408   0.616  0.7541 -1.9997  0.4961
    8CHTO   O52 3097   6.781   8.238   0.739 -0.2434  0.0569 -0.0141
    8CHTO   C86 3098   6.759   8.193   0.874 -0.1587  0.1248 -0.3813
    8CHTO  H158 3099   6.650   8.168   0.872 -0.7001  2.1503  1.7747
    8CHTO   C90 3100   6.835   8.056   0.890  0.3834  0.2800 -0.4185
    8CHTO   O60 3101   6.976   8.079   0.894 -0.1396  0.3893 -0.1767
    8CHTO  H138 3102   7.018   8.056   0.975 -0.3208  1.4772  0.2439
    8CHTO   O50 3103   6.585   8.380   0.689 -0.2934  0.8833  0.1188
    8CHTO   C73 3104   6.472   8.361   0.597 -0.1726  0.0704  0.3478
    8CHTO  H145 3105   6.474   8.257   0.563 -2.7377  0.7659 -2.0809
    8CHTO   C74 3106   6.474   8.458   0.475 -0.1405 -0.2192  0.2335
    8CHTO  H146 3107   6.560   8.426   0.416  1.2750 -0.5770  2.4234
    8CHTO   O54 3108   6.355   8.439   0.391  0.0211 -0.5513 -0.0359
    8CHTO  H133 3109   6.376   8.467   0.304 -0.6932 -2.5991 -0.9025
    8CHTO   C75 3110   6.491   8.603   0.534  0.4590 -0.4376  0.4804
    8CHTO  H147 3111   6.584   8.607   0.593  1.2362 -0.2434 -0.7347
    8CHTO   N13 3112   6.504   8.708   0.425 -0.2315  0.3703 -0.1136
    8CHTO  H139 3113   6.584   8.771   0.460 -0.1522  0.8619 -1.1583
    8CHTO  H140 3114   6.417   8.771   0.432 -0.6697 -0.2426  0.0216
    8CHTO   C76 3115   6.376   8.628   0.648  0.2873  0.8815  0.5327
    8CHTO  H148 3116   6.282   8.646   0.595  1.9376  1.3204 -2.3223
    8CHTO   O49 3117   6.353   8.510   0.743  0.5037 -0.7410 -0.4850
    8CHTO   C77 3118   6.342   8.383   0.681 -1.1074  0.3128 -0.2570
    8CHTO  H149 3119   6.256   8.368   0.615  0.3835 -0.2638 -2.1130
    8CHTO   C88 3120   6.330   8.280   0.787 -0.0556  0.4813  0.2418
    8CHTO   O58 3121   6.211   8.296   0.865  0.3596  0.4367 -0.0347
    8CHTO  H136 3122   6.144   8.256   0.812  1.1239 -0.1771 -0.5423
    8CHTO   O51 3123   6.422   8.729   0.723  0.0092 -0.1195 -0.0006
    8CHTO   C78 3124   6.307   8.802   0.809  0.1905 -0.0913 -0.6948
    8CHTO  H150 3125   6.206   8.757   0.806 -0.7813  1.9832 -0.3678
    8CHTO   C80 3126   6.299   8.943   0.753  0.1034 -0.7682  0.2991
    8CHTO  H152 3127   6.401   8.980   0.728 -0.1182 -0.8087 -0.6934
    8CHTO   O55 3128   6.239   8.918   0.626  0.4289 -0.7284  0.5778
    8CHTO  H134 3129   6.247   8.996   0.574  1.1639 -2.4066 -1.9029
    8CHTO   C84 3130   6.203   9.043   0.834 -0.5551  0.2486  0.2235
    8CHTO  H156 3131   6.102   9.001   0.837 -0.0759 -0.8945  0.5688
    8CHTO   N15 3132   6.200   9.179   0.786 -0.1864 -0.3342  0.3968
    8CHTO  H143 3133   6.183   9.171   0.681 -0.7633 -0.6594  0.5144
    8CHTO  H144 3134   6.108   9.221   0.821 -1.0910 -1.5404 -0.4820
    8CHTO   C87 3135   6.249   9.037   0.986 -0.5519 -0.6609 -0.0695
    8CHTO  H159 3136   6.350   9.078   0.991 -0.5829 -0.5572 -0.3072
    8CHTO   O53 3137   6.256   8.864   1.032  0.3347 -0.7772  0.7162
    8CHTO   C82 3138   6.357   8.806   0.956 -0.2250  0.0829 -0.6501
    8CHTO  H154 3139   6.458   8.843   0.971 -0.0780 -1.2118  1.7761
    8CHTO   C89 3140   6.361   8.664   1.009  0.2570 -0.3588 -0.1642
    8CHTO   O59 3141   6.429   8.643   1.136  0.1130 -0.3888  0.0786
    8CHTO  H137 3142   6.522   8.659   1.132  0.0695 -0.3950 -1.2203
    8CHTO   O45 3143   6.157   9.107   1.096 -0.3938 -0.2551 -0.1012
    8CHTO   C67 3144   6.194   9.072   1.230 -0.2584  0.0183 -0.7865
    8CHTO  H124 3145   6.162   8.969   1.250  1.4592 -0.0230  1.9844
    8CHTO   C65 3146   6.344   9.086   1.270 -0.5121 -0.5251  0.0469
    8CHTO  H122 3147   6.401   9.030   1.195 -0.3144  0.7217 -0.7533
    8CHTO   O44 3148   6.366   9.014   1.394  0.8811  0.1893  0.4686
    8CHTO  H102 3149   6.457   8.997   1.405  0.3585 -0.8245  3.8433
    8CHTO   C63 3150   6.399   9.240   1.265  0.2213 -0.4934 -0.6970
    8CHTO  H120 3151   6.372   9.282   1.168  0.7552  0.9033 -0.2520
    8CHTO   N11 3152   6.544   9.272   1.296  0.0453  0.5582  0.0114
    8CHTO  H108 3153   6.556   9.353   1.365 -0.2099 -0.4736  1.2741
    8CHTO  H109 3154   6.605   9.270   1.208  1.5304 -1.0437  1.0261
    8CHTO   C61 3155   6.306   9.323   1.355  0.1580  0.2322 -0.1699
    8CHTO  H118 3156   6.326   9.429   1.333  1.5001  0.0035 -0.1310
    8CHTO   O40 3157   6.159   9.301   1.342 -0.1891  0.0368  0.5494
    8CHTO   C68 3158   6.103   9.164   1.328  0.0237  0.3403 -0.0700
    8CHTO  H125 3159   6.011   9.179   1.270 -1.6137 -1.2021  2.0328
    8CHTO   C72 3160   6.062   9.109   1.463 -0.6618  0.3070 -0.1021
    8CHTO   O48 3161   6.026   8.970   1.457 -0.0294  0.4885 -0.3172
    8CHTO  H105 3162   5.934   8.955   1.456  0.0734 -0.0709 -2.2752
    8CHTO   O38 3163   6.332   9.301   1.490 -0.7516 -0.0485  0.5757
    8CHTO   C55 3164   6.327   9.410   1.578  0.7542  0.2313  0.0032
    8CHTO  H112 3165   6.304   9.505   1.526 -0.1321 -1.0321 -2.0008
    8CHTO   C56 3166   6.466   9.414   1.652 -0.5567  0.1790  0.2210
    8CHTO  H113 3167   6.538   9.391   1.572  0.1034 -0.6128  1.0381
    8CHTO   O42 3168   6.506   9.541   1.710  0.5484 -0.3557  0.5996
    8CHTO  H100 3169   6.508   9.605   1.642 -2.2942 -0.2110  0.6018
    8CHTO   C57 3170   6.482   9.305   1.765  0.0241  0.4222  0.3718
    8CHTO  H114 3171   6.487   9.348   1.865  0.7811  2.1210 -0.3717
    8CHTO   N10 3172   6.604   9.223   1.746 -0.4174 -0.5689  0.1280
    8CHTO  H106 3173   6.623   9.211   1.640  0.0612  0.4760  0.0853
    8CHTO  H107 3174   6.689   9.271   1.793  1.0468 -0.0131 -2.9788
    8CHTO   C58 3175   6.369   9.203   1.764  0.0429  0.2354  0.0332
    8CHTO  H115 3176   6.368   9.143   1.670 -2.9325 -0.8021  0.6684
    8CHTO   O37 3177   6.241   9.267   1.768  0.3016 -0.1582 -0.0569
    8CHTO   C59 3178   6.216   9.380   1.681 -0.0099  0.1223 -0.1113
    8CHTO  H116 3179   6.118   9.372   1.634  0.4673 -3.0480 -0.6991
    8CHTO   C70 3180   6.192   9.504   1.775 -0.1447 -0.3635  0.0233
    8CHTO   O46 3181   6.068   9.507   1.844 -0.0611 -0.4338 -0.6651
    8CHTO  H103 3182   6.064   9.446   1.916  3.6790 -0.0948 -0.0752
    8CHTO   O39 3183   6.358   9.095   1.888 -0.6963  0.4653  0.5333
    8CHTO   C60 3184   6.264   8.987   1.902 -0.3998  0.0216  0.2340
    8CHTO  H117 3185   6.162   9.022   1.894 -0.5112 -0.4336 -0.3419
    8CHTO   C62 3186   6.279   8.886   1.792 -0.6318  0.5719  1.3502
    8CHTO  H119 3187   6.259   8.945   1.700  1.2298 -0.6623  0.1307
    8CHTO   O43 3188   6.414   8.838   1.781 -0.3374 -0.2005  0.1562
    8CHTO  H101 3189   6.425   8.761   1.834  0.5755 -0.9965 -1.1434
    8CHTO   C66 3190   6.162   8.776   1.797 -0.7972  0.3497 -0.4243
    8CHTO  H123 3191   6.067   8.828   1.812  0.0499  1.9275 -0.4004
    8CHTO   N12 3192   6.150   8.702   1.670 -0.0002 -0.3291 -0.6915
    8CHTO  H110 3193   6.248   8.659   1.654  0.3813 -0.4046  1.5712
    8CHTO  H111 3194   6.081   8.619   1.676 -0.0529 -0.3457 -1.4898
    8CHTO   C69 3195   6.182   8.695   1.925 -0.1688  0.0619 -0.3788
    8CHTO  H126 3196   6.275   8.634   1.923  0.3951  0.9028  0.0224
    8CHTO   O41 3197   6.190   8.810   2.064  0.8154 -0.0155  0.4315
    8CHTO   C64 3198   6.279   8.917   2.042 -0.5183 -0.2649 -0.4495
    8CHTO  H121 3199   6.382   8.877   2.050  0.5383  2.4313  0.0867
    8CHTO   C71 3200   6.261   9.028   2.160  0.4899 -0.1538  0.2711
    8CHTO   O47 3201   6.125   9.072   2.149 -0.0011  0.0832 -0.1306
    8CHTO  H104 3202   6.106   9.088   2.059  0.7634 -1.1324 -0.5241
    8CHTO   O34 3203   6.058   8.593   1.943 -0.2559  0.1818  0.0382
    8CHTO   C49 3204   6.023   8.566   2.085 -0.4685 -0.2528  0.1163
    8CHTO   H91 3205   6.117   8.565   2.140 -0.1490  1.2893 -0.3641
    8CHTO   C47 3206   5.964   8.423   2.079 -0.2542 -0.2869  0.3275
    8CHTO   H89 3207   5.964   8.393   2.186 -0.5740 -1.3287  0.0400
    8CHTO   O33 3208   6.041   8.333   2.000  0.4529  0.4576  0.5158
    8CHTO   H70 3209   6.115   8.300   2.046  0.0753 -1.1980 -0.0007
    8CHTO   C45 3210   5.816   8.430   2.023  0.0461  0.7839  0.0736
    8CHTO   H87 3211   5.831   8.408   1.916  2.4349  1.3820  0.2521
    8CHTO    N8 3212   5.744   8.319   2.090 -0.2560  0.2965  0.4431
    8CHTO   H75 3213   5.683   8.359   2.170 -0.1558  1.8360 -0.2282
    8CHTO   H76 3214   5.683   8.261   2.021  0.2888  1.4096 -1.0071
    8CHTO   C43 3215   5.744   8.574   2.021 -0.6361 -0.6324  0.1515
    8CHTO   H85 3216   5.785   8.633   1.939 -1.9859 -0.2220 -0.2538
    8CHTO   O29 3217   5.772   8.637   2.144 -0.0145 -0.2752 -0.2919
    8CHTO   C50 3218   5.913   8.660   2.149  0.0703  0.2665  0.1205
    8CHTO   H92 3219   5.928   8.761   2.108 -4.0241 -0.0370 -2.3727
    8CHTO   C54 3220   5.958   8.683   2.293  0.1630 -0.0554 -0.3690
    8CHTO   O36 3221   5.954   8.560   2.368 -0.5219 -0.2949  0.2017
    8CHTO   H72 3222   6.041   8.527   2.358 -0.7900 -2.1098  3.2192
    8CHTO   O27 3223   5.601   8.568   1.995 -0.6122  0.3883  1.2566
    8CHTO   C37 3224   5.485   8.612   1.926 -0.4184 -0.3516  0.2514
    8CHTO   H79 3225   5.439   8.525   1.877  1.2066 -0.8636 -0.3761
    8CHTO   C38 3226   5.376   8.682   2.021  0.8264 -0.5996  0.1392
    8CHTO   H80 3227   5.420   8.772   2.066 -1.0625  0.4768 -0.1097
    8CHTO   O31 3228   5.345   8.583   2.121  0.0593 -0.0661 -0.4757
    8CHTO   H68 3229   5.315   8.617   2.203  0.6555 -1.5866  0.3907
    8CHTO   C39 3230   5.245   8.732   1.942 -0.4106  0.0046 -0.3111
    8CHTO   H81 3231   5.188   8.650   1.900 -0.7475 -0.9177  1.8962
    8CHTO    N7 3232   5.150   8.805   2.028 -0.4064 -0.7276  0.1415
    8CHTO   H73 3233   5.053   8.758   2.021 -1.0362  0.5347  0.1534
    8CHTO   H74 3234   5.132   8.900   1.980 -0.7234 -0.7598  0.1912
    8CHTO   C40 3235   5.299   8.825   1.824  0.1178 -0.1443  1.2954
    8CHTO   H82 3236   5.334   8.922   1.861 -1.7391  0.5832  1.2129
    8CHTO   O26 3237   5.406   8.753   1.749 -0.3203 -0.2404  0.1520
    8CHTO   C41 3238   5.524   8.719   1.818 -0.4670  0.3761  0.3049
    8CHTO   H83 3239   5.575   8.802   1.869 -2.2980  0.5001  2.0055
    8CHTO   C52 3240   5.616   8.663   1.710 -0.3557 -0.5320  0.7640
    8CHTO   O35 3241   5.666   8.770   1.620  0.1904 -0.0510  0.9376
    8CHTO   H71 3242   5.733   8.828   1.651  1.8728 -0.4547 -1.8479
    8CHTO   O28 3243   5.192   8.864   1.732  0.2637 -0.3795  0.3577
    8CHTO   C42 3244   5.214   8.918   1.594 -0.4479 -0.1951  0.6336
    8CHTO   H84 3245   5.115   8.958   1.575  1.1050  2.5671 -1.8953
    8CHTO   C44 3246   5.249   8.814   1.482 -1.1150 -0.3589 -0.1660
    8CHTO   H86 3247   5.333   8.752   1.516 -0.3720  1.0223  0.5513
    8CHTO   O32 3248   5.139   8.721   1.469 -0.7325  0.4671 -0.0417
    8CHTO   H69 3249   5.075   8.755   1.411  0.0455  0.4433 -0.9226
    8CHTO   C48 3250   5.284   8.879   1.340 -0.2055 -0.3241 -0.3876
    8CHTO   H90 3251   5.183   8.906   1.309 -0.4673 -1.2516 -0.3635
    8CHTO    N9 3252   5.326   8.776   1.234 -0.0624  0.2795  0.6575
    8CHTO   H77 3253   5.349   8.826   1.141  2.4134  0.9147  1.5738
    8CHTO   H78 3254   5.250   8.700   1.219  0.8002 -0.0319 -2.4860
    8CHTO   C51 3255   5.388   9.001   1.356 -0.4712  0.0273 -0.7330
    8CHTO   H93 3256   5.482   8.968   1.401  0.5050 -0.3414 -2.9800
    8CHTO   O30 3257   5.313   9.083   1.444  0.0764  0.6269 -0.3844
    8CHTO   C46 3258   5.313   9.041   1.588  0.4153 -0.0089  0.1195
    8CHTO   H88 3259   5.417   9.013   1.605  0.2829 -0.5697  0.0119
    8CHTO   C53 3260   5.260   9.162   1.671  0.3877 -0.5562 -0.0737
    8CHTO   O72 3261   5.120   9.181   1.636 -0.1847 -0.6974  0.1575
    8CHTO  H199 3262   5.071   9.172   1.715 -0.6518  1.5839  0.1400
    8CHTO   O22 3263   5.427   9.081   1.246  0.1583  0.0313 -0.1444
    8CHTO   C31 3264   5.556   9.075   1.178  0.7112  0.1467  0.1579
    8CHTO   H59 3265   5.591   9.180   1.176 -0.8781  0.6725 -1.9960
    8CHTO   C29 3266   5.669   8.980   1.229  0.1851 -0.3324  0.5177
    8CHTO   H57 3267   5.614   8.886   1.246  0.7589 -0.4447  1.8081
    8CHTO   O21 3268   5.701   9.039   1.354 -0.5075  0.6269  0.2601
    8CHTO   H37 3269   5.791   9.030   1.378 -0.6898 -1.1343  0.3542
    8CHTO   C27 3270   5.787   8.962   1.126 -0.2230 -0.1075 -0.2769
    8CHTO   H55 3271   5.843   9.057   1.120  0.8002 -0.7230 -0.7324
    8CHTO    N5 3272   5.881   8.853   1.173 -0.6462 -0.3454 -0.1939
    8CHTO   H43 3273   5.951   8.842   1.091 -1.4375  0.2151 -0.9460
    8CHTO   H44 3274   5.931   8.887   1.262 -0.0698 -2.2691  0.2313
    8CHTO   C25 3275   5.729   8.931   0.984  0.3067 -0.7821 -0.2526
    8CHTO   H53 3276   5.666   8.841   0.994  0.2332 -0.7173 -0.1265
    8CHTO   O17 3277   5.634   9.029   0.946 -0.0239 -0.6382  0.0398
    8CHTO   C32 3278   5.523   9.027   1.032  0.2017 -0.6646  0.6710
    8CHTO   H60 3279   5.487   8.924   1.039  0.2881 -0.7675 -0.2711
    8CHTO   C36 3280   5.412   9.113   0.975 -0.6534  0.4311 -0.5833
    8CHTO   O25 3281   5.451   9.252   0.985 -0.5938  0.0607  0.2303
    8CHTO   H40 3282   5.515   9.279   0.922 -0.1147 -0.4261  0.5113
    8CHTO   O15 3283   5.843   8.909   0.872  0.0719 -0.4625 -0.3709
    8CHTO   C19 3284   5.827   8.883   0.729  0.0980 -0.0492 -0.4313
    8CHTO   H47 3285   5.724   8.844   0.729 -0.0899  0.4431 -0.2582
    8CHTO   C20 3286   5.842   9.003   0.639  0.1676 -0.5266  0.2583
    8CHTO   H48 3287   5.940   9.050   0.655 -0.6013  0.8118  1.1112
    8CHTO   O19 3288   5.746   9.107   0.665 -0.5477 -0.0200  0.0304
    8CHTO   H35 3289   5.749   9.152   0.747  0.9558  0.7685 -0.4312
    8CHTO   C21 3290   5.840   8.956   0.487 -0.1907 -0.1509 -0.0920
    8CHTO   H49 3291   5.741   8.923   0.457 -0.5717  0.1970  0.7746
    8CHTO    N4 3292   5.871   9.067   0.389 -0.8477 -0.1284  0.6330
    8CHTO   H41 3293   5.947   9.137   0.423 -0.3004 -0.4948  0.1666
    8CHTO   H42 3294   5.886   9.039   0.286  1.9829  2.2782  0.3005
    8CHTO   C22 3295   5.935   8.835   0.465  0.6296 -0.1611  0.5490
    8CHTO   H50 3296   6.036   8.874   0.484  0.2823  0.5716  0.9167
    8CHTO   O14 3297   5.904   8.736   0.559 -0.1506 -0.2008 -0.0798
    8CHTO   C23 3298   5.921   8.768   0.698 -0.2187  0.2295  0.0511
    8CHTO   H51 3299   6.025   8.791   0.725 -0.7017 -1.0690  3.1182
    8CHTO   C34 3300   5.883   8.642   0.778  0.3794 -0.2761  0.1667
    8CHTO   O23 3301   5.982   8.539   0.780 -0.2997  0.3296 -0.0103
    8CHTO   H38 3302   5.983   8.494   0.863  0.9134 -0.3540 -0.3857
    8CHTO   O16 3303   5.934   8.773   0.333  0.2850 -0.6464 -0.5211
    8CHTO   C24 3304   6.066   8.716   0.293 -0.1294  0.2271  0.5963
    8CHTO   H52 3305   6.135   8.713   0.377  1.7484  1.3125 -0.8567
    8CHTO   C26 3306   6.122   8.808   0.179 -0.5727  0.8768  0.0474
    8CHTO   H54 3307   6.035   8.829   0.113 -1.1143  2.4500  1.2254
    8CHTO   O20 3308   6.165   8.931   0.232  0.5230 -0.3049  0.2849
    8CHTO   H36 3309   6.112   9.002   0.203  1.9052  1.7854  2.6998
    8CHTO   C30 3310   6.230   8.740   0.090 -0.0283 -0.1037 -0.1468
    8CHTO   H58 3311   6.329   8.740   0.139 -1.0313 -0.3033  1.9156
    8CHTO    N6 3312   6.274   8.817  -0.031 -0.5736  0.3921 -0.0634
    8CHTO   H45 3313   6.244   8.768  -0.122  0.5562 -0.7555  0.1707
    8CHTO   H46 3314   6.231   8.916  -0.026 -1.0857  0.1472  0.4576
    8CHTO   C33 3315   6.214   8.588   0.067 -0.2245 -0.4228  0.5666
    8CHTO   H61 3316   6.136   8.578  -0.010  1.2603 -2.0030 -0.7507
    8CHTO   O18 3317   6.164   8.526   0.188 -0.2279 -0.0894  0.1733
    8CHTO   C28 3318   6.041   8.572   0.245 -0.0599  0.4646 -0.4111
    8CHTO   H56 3319   5.966   8.574   0.167 -0.2720 -0.9175 -0.2492
    8CHTO   C35 3320   5.998   8.472   0.355  0.3213  0.4212  0.5293
    8CHTO   O24 3321   5.975   8.347   0.288 -0.2145  0.0878  0.3700
    8CHTO   H39 3322   5.930   8.287   0.345 -0.3153  0.4595  0.6932
    8CHTO    O9 3323   6.333   8.521   0.022 -0.7160 -0.7421 -0.2862
    8CHTO   C13 3324   6.322   8.449  -0.114 -0.1987 -0.4778  0.3299
    8CHTO   H26 3325   6.271   8.518  -0.184  0.2916  0.4735  0.9023
    8CHTO   C11 3326   6.242   8.309  -0.094  0.1474  0.3574  0.0998
    8CHTO   H24 3327   6.137   8.341  -0.098  1.0969  3.5497 -0.5486
    8CHTO    O8 3328   6.272   8.255   0.037 -0.1941  0.2769 -0.3390
    8CHTO    H3 3329   6.226   8.174   0.048 -0.0996  0.0755 -1.3531
    8CHTO    C9 3330   6.274   8.211  -0.211 -0.2454  0.1474 -0.0501
    8CHTO   H22 3331   6.257   8.269  -0.303  1.0243 -0.2185 -0.5374
    8CHTO    N2 3332   6.186   8.094  -0.223 -0.6888  0.4508  0.1486
    8CHTO   H10 3333   6.130   8.092  -0.316 -2.6016 -0.3627  1.2873
    8CHTO   H11 3334   6.240   8.002  -0.209 -2.2990 -0.3895  0.9898
    8CHTO    C7 3335   6.422   8.183  -0.194 -0.4935 -0.0848 -0.1240
    8CHTO   H20 3336   6.442   8.152  -0.299 -1.0604 -0.8189 -0.0148
    8CHTO    O4 3337   6.509   8.292  -0.166  0.0562 -0.2864 -0.4331
    8CHTO   C14 3338   6.461   8.425  -0.184 -0.5167 -0.0876  0.2195
    8CHTO   H27 3339   6.440   8.458  -0.287 -0.1984 -0.3171  0.0795
    8CHTO   C18 3340   6.572   8.516  -0.125  0.4933  0.4407  0.4286
    8CHTO   O13 3341   6.686   8.529  -0.206  0.4595  0.0490 -0.3557
    8CHTO    H7 3342   6.761   8.481  -0.175  1.4224  1.5797 -0.2442
    8CHTO    O2 3343   6.461   8.068  -0.090  0.2944 -0.1018  0.4247
    8CHTO    C1 3344   6.561   8.083   0.016 -0.0703  0.3119 -0.3316
    8CHTO   H14 3345   6.544   8.184   0.058 -1.8043  0.5360 -1.5143
    8CHTO    C2 3346   6.708   8.072  -0.037 -0.8002 -0.8331  0.0966
    8CHTO   H15 3347   6.712   7.985  -0.105 -2.3262 -0.6403 -0.2559
    8CHTO    O6 3348   6.750   8.190  -0.118  0.4687 -0.1570 -0.0215
    8CHTO    H1 3349   6.719   8.188  -0.206 -0.7711  0.0168  0.4003
    8CHTO    C3 3350   6.809   8.061   0.085  0.2340  0.5763  0.6364
    8CHTO   H16 3351   6.812   8.155   0.142 -0.8316  0.1968  1.3343
    8CHTO    N1 3352   6.951   8.034   0.047 -0.1633  0.6740  0.3469
    8CHTO    H8 3353   7.014   8.029   0.135 -0.2376  2.0315  0.4870
    8CHTO    H9 3354   6.959   7.949  -0.018 -1.3457 -1.5762  3.0414
    8CHTO    C4 3355   6.763   7.950   0.191 -0.1256  0.4938  0.3485
    8CHTO   H17 3356   6.770   7.853   0.143  1.0635  1.5001 -1.5884
    8CHTO    O1 3357   6.628   7.985   0.234  0.1747  1.0536 -0.1808
    8CHTO    C5 3358   6.523   7.980   0.134 -0.0597 -0.2671 -0.6452
    8CHTO   H18 3359   6.508   7.880   0.093 -0.8500 -0.5154  0.2471
    8CHTO   C16 3360   6.397   8.021   0.209  0.9964 -0.0270 -0.1031
    8CHTO   O11 3361   6.276   7.951   0.175  0.4227 -0.6261  0.2832
    8CHTO    H5 3362   6.217   8.005   0.126  0.5863 -0.1201  0.6443
    8CHTO    O3 3363   6.840   7.957   0.312  0.0940 -0.0798 -0.0103
    8CHTO    C6 3364   6.834   7.837   0.393  0.7173  0.5354 -0.4924
    8CHTO   H19 3365   6.751   7.770   0.372 -0.2263  0.6784  2.5834
    8CHTO    C8 3366   6.968   7.757   0.360  0.2789  0.1344 -0.0205
    8CHTO   H21 3367   7.051   7.827   0.374  0.8110 -0.5693  0.4118
    8CHTO    O7 3368   6.963   7.725   0.219  0.2163 -0.1444 -0.3639
    8CHTO    H2 3369   6.997   7.640   0.200  1.3219 -0.0203  1.0222
    8CHTO   C12 3370   6.973   7.622   0.450 -0.4215  0.0272  0.6065
    8CHTO   H25 3371   6.888   7.555   0.423 -0.9434  0.4691  1.1545
    8CHTO    N3 3372   7.100   7.545   0.427  0.7313 -0.0113  0.0452
    8CHTO   H12 3373   7.095   7.452   0.480 -0.9152  0.3102  0.4744
    8CHTO   H13 3374   7.181   7.597   0.475  1.0371  0.2765 -0.7675
    8CHTO   C15 3375   6.955   7.664   0.599 -0.0188  0.3992  0.2388
    8CHTO   H28 3376   7.045   7.716   0.629 -0.8676  1.4446  1.0190
    8CHTO   O10 3377   6.923   7.558   0.680  0.0844 -0.0823  0.0014
    8CHTO    H4 3378   6.997   7.526   0.729 -0.6218 -1.5782  0.1135
    8CHTO    O5 3379   6.830   7.740   0.615  0.1410 -0.1026  0.5253
    8CHTO   C10 3380   6.829   7.866   0.545  0.0703 -0.3492 -0.6644
    8CHTO   H23 3381   6.916   7.920   0.584 -0.9407 -0.8140  2.3355
    8CHTO   C17 3382   6.707   7.946   0.579 -0.3417  0.1898  0.0405
    8CHTO   O12 3383   6.691   8.079   0.542  0.0908 -0.0060  0.3713
    8CHTO    H6 3384   6.603   8.102   0.565 -0.1770  0.6995 -1.2834
    9CHTO  H203 3385   6.111   2.729   1.959  0.0029 -0.2943 -1.3522
    9CHTO   O82 3386   6.136   2.796   1.898 -0.0241  0.5190 -0.4821
    9CHTO  C123 3387   6.053   2.794   1.781  0.6518  0.4681 -0.3807
    9CHTO  H227 3388   5.954   2.757   1.810  0.9418 -1.4744 -1.7716
    9CHTO   O77 3389   6.061   2.928   1.726 -0.2624  0.0377  0.1453
    9CHTO  C118 3390   5.986   2.942   1.601 -0.2413 -0.3208 -0.7717
    9CHTO  H222 3391   5.886   2.904   1.626  1.6631 -4.6949  0.8489
    9CHTO  C125 3392   5.979   3.091   1.557  0.0125 -0.3857  0.5355
    9CHTO   O84 3393   5.921   3.193   1.641 -0.3693  0.1872 -0.5153
    9CHTO  H205 3394   5.837   3.158   1.666  0.3636 -0.7859  0.6779
    9CHTO  C114 3395   6.043   2.850   1.495 -0.1856  0.1130  0.5446
    9CHTO  H218 3396   6.142   2.890   1.473  0.4033 -0.3382  2.2976
    9CHTO  C116 3397   6.050   2.697   1.534  0.4035 -0.2183 -0.1209
    9CHTO  H220 3398   5.950   2.649   1.544  0.3526 -0.6921 -2.6628
    9CHTO   O79 3399   6.124   2.612   1.445  0.8834  0.1211 -0.1941
    9CHTO  H201 3400   6.096   2.629   1.357 -0.2845 -0.7762 -0.0169
    9CHTO  C120 3401   6.109   2.682   1.680 -0.7207  0.1865  0.8528
    9CHTO  H224 3402   6.217   2.689   1.654 -0.9453 -1.8527 -0.6988
    9CHTO   N21 3403   6.099   2.545   1.735 -0.2517  0.3379  0.2301
    9CHTO  H211 3404   6.018   2.486   1.698  0.0705 -0.2990  0.5333
    9CHTO  H212 3405   6.095   2.544   1.843  1.9915 -0.9451  0.3335
    9CHTO   O75 3406   5.957   2.866   1.379 -0.4075  0.3380 -0.4249
    9CHTO  C112 3407   6.035   2.820   1.243 -0.2077 -0.8500  0.3318
    9CHTO  H216 3408   6.066   2.715   1.251 -1.0270 -1.0012  1.8814
    9CHTO   O73 3409   6.146   2.912   1.222 -0.7800 -0.2594 -0.3438
    9CHTO  C113 3410   6.239   2.878   1.114 -0.4640  0.1729 -0.2641
    9CHTO  H217 3411   6.275   2.774   1.124 -0.8438  0.1775  1.3014
    9CHTO  C124 3412   6.355   2.977   1.135 -0.1462  0.3203 -0.2969
    9CHTO   O83 3413   6.461   2.986   1.034 -0.0550  0.3119  0.2422
    9CHTO  H204 3414   6.509   3.064   1.054 -1.3409  1.2930 -0.3684
    9CHTO  C109 3415   6.162   2.894   0.976 -0.6932  0.2026 -1.1551
    9CHTO  H213 3416   6.126   2.998   0.973 -2.3592 -0.3292 -0.2392
    9CHTO  C110 3417   6.039   2.803   0.984  0.1520  0.4371 -0.3133
    9CHTO  H214 3418   6.069   2.699   0.974 -3.4507 -0.8793  1.5733
    9CHTO   O78 3419   5.962   2.836   0.865 -0.4758  0.4221 -0.4409
    9CHTO  H200 3420   5.877   2.797   0.859  0.0195 -0.7219 -0.1122
    9CHTO  C111 3421   5.949   2.834   1.109 -0.2594 -0.6926 -0.3820
    9CHTO  H215 3422   5.919   2.940   1.108  1.5164 -0.1419 -3.4656
    9CHTO   N19 3423   5.825   2.755   1.122  0.0980  0.2637  0.2549
    9CHTO  H207 3424   5.748   2.816   1.077 -1.3062  0.1710  2.4234
    9CHTO  H208 3425   5.838   2.667   1.060  0.1949  1.5387 -1.5579
    9CHTO   O74 3426   6.245   2.863   0.859  0.0914 -0.5227 -0.0474
    9CHTO  C115 3427   6.267   2.696   0.819  0.8217  0.7081  1.0849
    9CHTO  H219 3428   6.245   2.632   0.905  0.7413  1.7828  1.8838
    9CHTO   O76 3429   6.169   2.648   0.713 -0.4156 -0.1389  0.2637
    9CHTO  C122 3430   6.185   2.689   0.579 -0.2551 -0.0214 -0.6658
    9CHTO  H226 3431   6.162   2.795   0.591 -0.5242 -0.1108 -0.3866
    9CHTO  C126 3432   6.067   2.613   0.510 -0.0647 -0.1576 -0.2414
    9CHTO   O85 3433   6.064   2.630   0.363 -0.2138  0.7137  0.0802
    9CHTO  H206 3434   5.993   2.684   0.334 -1.4357  1.6273  4.4807
    9CHTO  C121 3435   6.331   2.656   0.532  0.0564  0.2761 -0.5595
    9CHTO  H225 3436   6.344   2.546   0.541  0.1597  0.1197 -2.4733
    9CHTO   O81 3437   6.356   2.705   0.403 -0.1628 -0.0761  0.0435
    9CHTO  H202 3438   6.304   2.660   0.339 -0.5630 -1.3054  1.2020
    9CHTO  C119 3439   6.428   2.734   0.633  0.2472  0.5112 -0.6721
    9CHTO  H223 3440   6.530   2.708   0.603 -0.6974 -0.9885 -2.7687
    9CHTO  C117 3441   6.416   2.678   0.781  0.1705 -0.0525 -0.4404
    9CHTO  H221 3442   6.472   2.738   0.854  0.1132  0.4580 -0.8167
    9CHTO   N20 3443   6.453   2.535   0.811 -0.0341 -0.2165 -0.5224
    9CHTO  H209 3444   6.397   2.466   0.750 -0.1910 -0.2709 -0.3194
    9CHTO  H210 3445   6.441   2.509   0.915  1.0335  2.0641  0.1986
    9CHTO   O80 3446   6.421   2.885   0.612 -0.1028  0.3897 -0.3593
    9CHTO  C103 3447   6.491   2.970   0.696  0.3839 -0.4307  0.3806
    9CHTO  H190 3448   6.460   2.964   0.800 -0.5326  2.9971  0.3749
    9CHTO  C101 3449   6.648   2.974   0.696  0.2993  0.2761 -0.3556
    9CHTO  H188 3450   6.684   2.977   0.593 -1.5732  1.2892 -1.0162
    9CHTO   O68 3451   6.699   2.857   0.763  0.5972  0.5448  0.7041
    9CHTO  H168 3452   6.675   2.775   0.725  1.3126  0.2618  0.8428
    9CHTO   C99 3453   6.704   3.114   0.764  0.6846 -0.9731  0.0339
    9CHTO  H186 3454   6.683   3.106   0.873 -1.3081 -1.9073 -0.4040
    9CHTO   N17 3455   6.857   3.134   0.754  0.1079  0.5188  0.5993
    9CHTO  H174 3456   6.908   3.039   0.765 -0.7208 -0.0773 -0.5341
    9CHTO  H175 3457   6.884   3.181   0.661  1.6715 -2.1977 -0.4032
    9CHTO   C97 3458   6.625   3.236   0.712 -0.0461  0.3194  0.0043
    9CHTO  H184 3459   6.659   3.259   0.610 -0.2114 -2.4789 -0.7341
    9CHTO   O64 3460   6.485   3.216   0.723  0.3703 -0.1004  0.0544
    9CHTO  C104 3461   6.436   3.112   0.634  0.8883 -0.3539  0.4193
    9CHTO  H191 3462   6.478   3.122   0.534  2.0049 -1.4984  0.7546
    9CHTO  C108 3463   6.288   3.122   0.621  0.6256 -0.2643 -0.0319
    9CHTO   O71 3464   6.212   3.118   0.745 -0.3652  0.0821  0.0941
    9CHTO  H171 3465   6.188   3.034   0.780  0.2211  0.7304  2.1472
    9CHTO   O62 3466   6.639   3.346   0.807 -0.0599  0.2655 -0.2289
    9CHTO   C91 3467   6.682   3.474   0.761 -0.1563  0.0085  0.5743
    9CHTO  H178 3468   6.780   3.457   0.716  0.3826 -0.8508  2.0287
    9CHTO   C92 3469   6.708   3.562   0.885  0.8348 -0.6855  0.4375
    9CHTO  H179 3470   6.627   3.549   0.959 -0.1078  1.7786 -0.0823
    9CHTO   O66 3471   6.828   3.510   0.943  0.2023 -0.0740  0.1539
    9CHTO  H166 3472   6.902   3.549   0.900  0.7847 -0.5680  0.6890
    9CHTO   C93 3473   6.717   3.718   0.859  0.0257 -0.6022 -0.4005
    9CHTO  H180 3474   6.816   3.740   0.816 -0.3730 -1.4572 -1.7784
    9CHTO   N16 3475   6.721   3.787   0.991 -0.5207  0.2924 -0.0751
    9CHTO  H172 3476   6.811   3.842   1.012 -0.3465 -0.6431  1.7234
    9CHTO  H173 3477   6.633   3.848   1.007  0.8510  1.9138  1.4564
    9CHTO   C94 3478   6.598   3.767   0.763 -0.6319  0.5224 -0.3713
    9CHTO  H181 3479   6.499   3.748   0.805 -0.2403  0.8634  0.7316
    9CHTO   O61 3480   6.603   3.688   0.642 -0.4894  0.4981  0.3812
    9CHTO   C95 3481   6.590   3.546   0.650 -0.5731  0.6012 -0.0084
    9CHTO  H182 3482   6.487   3.516   0.665  0.1184 -2.3553 -0.7556
    9CHTO  C106 3483   6.629   3.487   0.510 -0.0165  0.0370 -0.0540
    9CHTO   O69 3484   6.529   3.503   0.415 -0.2327  0.0203 -0.3156
    9CHTO  H169 3485   6.455   3.451   0.438 -1.1829  1.5614  0.2093
    9CHTO   O63 3486   6.619   3.912   0.735  0.1553  0.1965  0.7981
    9CHTO   C96 3487   6.485   3.984   0.738  0.4856  0.3125 -0.0051
    9CHTO  H183 3488   6.432   3.953   0.829  1.1731 -0.0688  0.2686
    9CHTO   C98 3489   6.376   3.964   0.620 -0.3307 -0.1911 -0.2372
    9CHTO  H185 3490   6.424   4.000   0.528  0.8964  0.0170  0.4707
    9CHTO   O67 3491   6.346   3.827   0.601  0.4713  0.2542 -0.0794
    9CHTO  H167 3492   6.292   3.828   0.524 -0.3845  0.3988  0.5216
    9CHTO  C102 3493   6.236   4.046   0.656 -0.1543  0.5006 -0.0535
    9CHTO  H189 3494   6.185   3.983   0.731 -0.0483  0.1004 -0.3155
    9CHTO   N18 3495   6.134   4.053   0.544  0.4699  0.0830  0.2621
    9CHTO  H176 3496   6.158   3.992   0.458  0.0160  0.7198 -0.3261
    9CHTO  H177 3497   6.105   4.150   0.507  1.9886  0.4143 -0.1198
    9CHTO  C105 3498   6.270   4.189   0.709 -0.2916 -0.4942 -0.0366
    9CHTO  H192 3499   6.286   4.259   0.627 -0.3824 -0.4901 -0.0509
    9CHTO   O65 3500   6.380   4.189   0.800 -0.6754 -0.1359  0.0164
    9CHTO  C100 3501   6.504   4.134   0.760 -0.3267  0.2056 -0.1050
    9CHTO  H187 3502   6.540   4.179   0.666  2.2400 -0.4809  0.5197
    9CHTO  C107 3503   6.600   4.184   0.867  0.6500  0.2646 -0.3035
    9CHTO   O70 3504   6.584   4.117   0.994  0.2521  0.5252 -0.3096
    9CHTO  H170 3505   6.634   4.166   1.057 -2.2072  1.2036  1.2192
    9CHTO   O57 3506   6.134   4.241   0.796 -0.2390  0.0817 -0.2810
    9CHTO   C85 3507   6.123   4.380   0.818  0.2646 -0.1396 -0.3002
    9CHTO  H157 3508   6.098   4.424   0.719 -0.2024  1.0281  0.3225
    9CHTO   C83 3509   6.257   4.448   0.862 -0.3410 -0.1820 -0.4482
    9CHTO  H155 3510   6.331   4.438   0.782  1.3631  2.3667  0.7091
    9CHTO   O56 3511   6.315   4.396   0.979  0.3959  0.2314 -0.1945
    9CHTO  H135 3512   6.337   4.305   0.970  1.0666  0.6566 -3.0577
    9CHTO   C81 3513   6.234   4.601   0.881  0.6871  0.0116  0.1263
    9CHTO  H153 3514   6.201   4.638   0.784  0.0992 -1.6217 -0.3038
    9CHTO   N14 3515   6.357   4.681   0.912  0.0063  0.1122 -0.2676
    9CHTO  H141 3516   6.410   4.621   0.982 -1.9734 -0.5501  0.6999
    9CHTO  H142 3517   6.334   4.777   0.955  2.5073  1.8812 -2.6564
    9CHTO   C79 3518   6.119   4.633   0.991  0.1016  0.0742 -0.1003
    9CHTO  H151 3519   6.101   4.741   0.989  0.5495  0.1465 -0.3959
    9CHTO   O52 3520   6.002   4.558   0.955 -0.9288  0.3196  0.9790
    9CHTO   C86 3521   6.015   4.417   0.921  0.0652  0.2607 -0.7707
    9CHTO  H158 3522   6.029   4.369   1.020 -3.7014 -0.8395 -0.6830
    9CHTO   C90 3523   5.882   4.367   0.870  0.0059 -0.1505  0.2671
    9CHTO   O60 3524   5.811   4.447   0.771 -0.5466 -0.3803 -0.0679
    9CHTO  H138 3525   5.781   4.389   0.704 -2.3542  0.2270  0.1740
    9CHTO   O50 3526   6.150   4.586   1.118 -0.1085 -0.0780  0.5145
    9CHTO   C73 3527   6.114   4.590   1.259 -0.2885 -0.6659  0.1901
    9CHTO  H145 3528   6.007   4.566   1.268 -0.1200 -1.3870  0.3254
    9CHTO   C74 3529   6.154   4.720   1.327 -0.5783 -0.1433 -0.1280
    9CHTO  H146 3530   6.090   4.789   1.271 -1.3128 -0.2787  0.5386
    9CHTO   O54 3531   6.111   4.712   1.467  0.0840  0.6551 -0.1640
    9CHTO  H133 3532   6.017   4.711   1.460  0.0470 -1.1052  0.1825
    9CHTO   C75 3533   6.310   4.746   1.295  0.2288 -0.5980  0.4615
    9CHTO  H147 3534   6.320   4.735   1.186  0.0560 -0.9853  0.4868
    9CHTO   N13 3535   6.362   4.880   1.315 -0.2426 -0.2789 -0.4190
    9CHTO  H139 3536   6.344   4.933   1.222  0.7914 -1.2181 -1.1683
    9CHTO  H140 3537   6.469   4.871   1.324 -0.2775 -0.6143 -0.3136
    9CHTO   C76 3538   6.383   4.622   1.366  0.2452  0.7334  0.5469
    9CHTO  H148 3539   6.355   4.637   1.470 -1.8109  3.2346 -0.3019
    9CHTO   O49 3540   6.336   4.492   1.306 -0.2130  0.4276  0.1470
    9CHTO   C77 3541   6.194   4.471   1.322  0.0602  0.0003  0.3621
    9CHTO  H149 3542   6.163   4.456   1.425 -2.3551  3.2370  0.1740
    9CHTO   C88 3543   6.157   4.338   1.261  0.2176 -0.5275  0.6433
    9CHTO   O58 3544   6.259   4.225   1.309 -0.0684 -0.1446  0.4502
    9CHTO  H136 3545   6.251   4.154   1.248 -0.2859 -0.7228  1.1528
    9CHTO   O51 3546   6.545   4.628   1.343 -0.1898 -0.1191 -0.6180
    9CHTO   C78 3547   6.614   4.515   1.405  0.1055 -0.1943 -0.4538
    9CHTO  H150 3548   6.545   4.429   1.418 -0.4410  0.2196 -0.6007
    9CHTO   C80 3549   6.664   4.551   1.548  0.2771 -0.4581 -0.4071
    9CHTO  H152 3550   6.710   4.652   1.546  0.9525 -0.7607 -0.1157
    9CHTO   O55 3551   6.550   4.562   1.634  0.1937 -0.1291  0.5506
    9CHTO  H134 3552   6.535   4.484   1.685  0.9581 -0.6414 -0.0129
    9CHTO   C84 3553   6.768   4.442   1.609  0.4202  0.1979  0.0890
    9CHTO  H156 3554   6.715   4.348   1.621 -0.5483  0.7252 -0.0168
    9CHTO   N15 3555   6.814   4.485   1.742  0.1891 -0.8799  0.4370
    9CHTO  H143 3556   6.799   4.400   1.807 -2.5389 -0.8908 -0.1642
    9CHTO  H144 3557   6.917   4.513   1.747  0.3120 -0.9685 -1.4032
    9CHTO   C87 3558   6.882   4.419   1.506 -0.4922  0.3612 -0.0744
    9CHTO  H159 3559   6.943   4.510   1.498  0.2470 -0.1008  0.1861
    9CHTO   O53 3560   6.812   4.375   1.364 -0.3895 -0.5142 -0.2561
    9CHTO   C82 3561   6.729   4.476   1.312  0.4702 -0.1457 -0.1106
    9CHTO  H154 3562   6.790   4.562   1.285  0.6825 -0.5232 -0.8581
    9CHTO   C89 3563   6.668   4.420   1.180  0.3121  0.4290 -0.2056
    9CHTO   O59 3564   6.647   4.520   1.076  0.0399 -0.4505  1.0052
    9CHTO  H137 3565   6.632   4.600   1.123  0.7684 -0.8120  1.8788
    9CHTO   O45 3566   6.992   4.291   1.551  0.9570 -0.0570 -0.1298
    9CHTO   C67 3567   6.950   4.165   1.508  0.4972  0.1515 -0.0011
    9CHTO  H124 3568   6.843   4.159   1.488  1.1101 -1.9404 -3.0993
    9CHTO   C65 3569   7.027   4.133   1.371  0.3073 -0.4476 -0.5140
    9CHTO  H122 3570   7.019   4.218   1.304 -1.7086 -0.8032 -0.7471
    9CHTO   O44 3571   6.972   4.021   1.312  0.2731 -0.1207  0.3393
    9CHTO  H102 3572   7.042   3.961   1.294  0.1952  0.0055 -0.3743
    9CHTO   C63 3573   7.181   4.124   1.399 -0.1578  0.4561 -0.1812
    9CHTO  H120 3574   7.213   4.223   1.431 -1.1287  0.0266  2.1899
    9CHTO   N11 3575   7.267   4.104   1.272  0.0986  1.3509 -0.4717
    9CHTO  H108 3576   7.371   4.092   1.291  0.1118 -1.2088 -1.9905
    9CHTO  H109 3577   7.247   4.181   1.201  2.1859  0.6691 -1.8324
    9CHTO   C61 3578   7.204   4.003   1.499 -0.1321 -0.1339  0.5094
    9CHTO  H118 3579   7.311   4.012   1.524 -0.4326  2.3206  1.0964
    9CHTO   O40 3580   7.125   4.024   1.629  0.0882 -0.0118 -0.3085
    9CHTO   C68 3581   6.984   4.052   1.614 -0.7425  0.5370 -0.0529
    9CHTO  H125 3582   6.959   4.090   1.715  1.5811  0.2513  0.6676
    9CHTO   C72 3583   6.904   3.923   1.601 -0.2246 -0.2138  0.4049
    9CHTO   O48 3584   6.882   3.864   1.729  0.7638  0.2439 -0.3718
    9CHTO  H105 3585   6.927   3.784   1.748  0.5092  0.1605 -0.1164
    9CHTO   O38 3586   7.169   3.874   1.447  0.6397 -0.0794 -0.2654
    9CHTO   C55 3587   7.244   3.758   1.488  0.4588 -1.0183 -0.0737
    9CHTO  H112 3588   7.304   3.800   1.570  1.5454  0.0909 -1.4073
    9CHTO   C56 3589   7.338   3.703   1.369  0.9491 -0.8223 -0.0765
    9CHTO  H113 3590   7.388   3.793   1.330 -0.0971  0.6127  1.7965
    9CHTO   O42 3591   7.436   3.613   1.422  0.4509 -0.2970 -0.4361
    9CHTO  H100 3592   7.452   3.533   1.374 -1.1595 -1.2675  0.6064
    9CHTO   C57 3593   7.248   3.635   1.257  0.2283 -0.3982  0.0759
    9CHTO  H114 3594   7.306   3.568   1.192  1.2310  0.1620  0.3764
    9CHTO   N10 3595   7.206   3.726   1.147 -0.4066 -0.7522 -0.1938
    9CHTO  H106 3596   7.264   3.718   1.056 -0.0457  0.5824 -0.1081
    9CHTO  H107 3597   7.206   3.828   1.183 -2.1709 -0.9675  0.4607
    9CHTO   C58 3598   7.134   3.554   1.326 -0.4507 -0.4987 -0.0007
    9CHTO  H115 3599   7.041   3.614   1.320 -1.4403 -1.9383  0.6323
    9CHTO   O37 3600   7.163   3.527   1.466 -0.0628  0.0912 -0.4057
    9CHTO   C59 3601   7.159   3.646   1.553 -0.0907  0.4611  0.0551
    9CHTO  H116 3602   7.057   3.682   1.567 -1.1087 -1.8808 -1.1985
    9CHTO   C70 3603   7.217   3.603   1.688 -0.2898  0.0637  0.0269
    9CHTO   O46 3604   7.196   3.698   1.791 -0.1054  0.4465  0.3807
    9CHTO  H103 3605   7.272   3.746   1.816 -0.9092  0.8033  2.2198
    9CHTO   O39 3606   7.098   3.418   1.238 -0.5067  0.2888 -0.6099
    9CHTO   C60 3607   7.003   3.334   1.295  0.1746 -0.3682  0.1112
    9CHTO  H117 3608   7.049   3.279   1.377  1.4857 -1.1055 -1.0986
    9CHTO   C62 3609   6.876   3.394   1.347 -0.1931  0.9016  0.2936
    9CHTO  H119 3610   6.905   3.456   1.434  1.1465 -0.0193  0.5171
    9CHTO   O43 3611   6.822   3.493   1.258  0.0811 -0.2384 -0.3329
    9CHTO  H101 3612   6.733   3.510   1.281  0.1873  0.5535 -0.4948
    9CHTO   C66 3613   6.779   3.279   1.408  0.4261 -0.0002  0.9306
    9CHTO  H123 3614   6.831   3.215   1.480 -0.2344 -1.2117  0.3429
    9CHTO   N12 3615   6.678   3.337   1.492 -0.0782 -0.3770  0.7626
    9CHTO  H110 3616   6.595   3.271   1.516  0.6504 -2.0763 -1.2599
    9CHTO  H111 3617   6.630   3.414   1.433  1.8527  0.1059 -0.2086
    9CHTO   C69 3618   6.723   3.199   1.284 -0.7315 -0.5244  0.5102
    9CHTO  H126 3619   6.675   3.261   1.206 -1.4374  0.7619  1.9495
    9CHTO   O41 3620   6.842   3.121   1.219 -0.3699 -0.7515 -0.2106
    9CHTO   C64 3621   6.972   3.231   1.184  0.3608  0.4026  0.2055
    9CHTO  H121 3622   6.944   3.278   1.088  0.1686 -1.2705 -0.5710
    9CHTO   C71 3623   7.097   3.142   1.163 -0.1402  0.1241  0.3146
    9CHTO   O47 3624   7.085   3.051   1.046  0.7589 -0.7496  0.8884
    9CHTO  H104 3625   7.015   2.989   1.051  0.0639 -0.0483  0.0699
    9CHTO   O34 3626   6.617   3.095   1.319  0.3964 -0.0624  0.0051
    9CHTO   C49 3627   6.641   2.968   1.407  0.5385  0.7010  0.4956
    9CHTO   H91 3628   6.693   3.008   1.495  0.0305  0.2054  1.0230
    9CHTO   C47 3629   6.731   2.858   1.340  0.4228  0.1152  0.4856
    9CHTO   H89 3630   6.831   2.899   1.364  0.4683 -0.3785  1.1521
    9CHTO   O33 3631   6.718   2.853   1.199  0.2223 -0.5272 -0.1853
    9CHTO   H70 3632   6.732   2.939   1.165 -0.2383 -0.8024 -1.1001
    9CHTO   C45 3633   6.706   2.719   1.411  0.0080 -0.6415  0.1838
    9CHTO   H87 3634   6.614   2.678   1.367  0.0531 -1.2442  0.6373
    9CHTO    N8 3635   6.817   2.620   1.385 -0.2421  0.1594  0.5234
    9CHTO   H75 3636   6.844   2.571   1.477  2.2601  2.4851  1.0878
    9CHTO   H76 3637   6.800   2.546   1.308  3.4869 -0.6630  0.3987
    9CHTO   C43 3638   6.660   2.727   1.566 -0.1068  0.0274  0.9787
    9CHTO   H85 3639   6.641   2.625   1.599  0.8576 -0.1565  0.9811
    9CHTO   O29 3640   6.539   2.812   1.579 -0.0446 -0.3054 -0.1300
    9CHTO   C50 3641   6.509   2.905   1.471  0.6275  0.3615  0.0441
    9CHTO   H92 3642   6.451   2.848   1.398  0.2716 -0.7543  1.1863
    9CHTO   C54 3643   6.408   3.010   1.524 -0.0930 -0.4369  0.2948
    9CHTO   O36 3644   6.360   3.104   1.428  0.1236  0.9961 -0.1298
    9CHTO   H72 3645   6.268   3.119   1.444  0.2786 -0.9556  2.8903
    9CHTO   O27 3646   6.762   2.777   1.647 -0.0679 -0.6466  0.5331
    9CHTO   C37 3647   6.806   2.847   1.763 -0.0431  0.0190 -0.2841
    9CHTO   H79 3648   6.868   2.780   1.824 -0.1353  0.7914  0.6746
    9CHTO   C38 3649   6.905   2.966   1.724  0.3521 -0.7530  0.5729
    9CHTO   H80 3650   6.866   3.007   1.630  2.4775  1.0308  0.4385
    9CHTO   O31 3651   7.039   2.923   1.700 -0.4136 -0.4498  0.5353
    9CHTO   H68 3652   7.078   2.881   1.775 -0.2614  1.7657  1.7238
    9CHTO   C39 3653   6.914   3.080   1.841  0.2526 -0.4700 -0.0444
    9CHTO   H81 3654   6.952   3.050   1.939 -0.7268  3.6750  1.6913
    9CHTO    N7 3655   6.997   3.198   1.807  0.2619 -0.1989  0.4531
    9CHTO   H73 3656   7.046   3.187   1.711 -0.3011 -0.8721  0.2420
    9CHTO   H74 3657   7.072   3.204   1.885 -1.7750 -1.2513  2.5626
    9CHTO   C40 3658   6.761   3.119   1.879  0.4467  0.5390 -0.1269
    9CHTO   H82 3659   6.714   3.148   1.785 -1.3762 -0.3107  0.5101
    9CHTO   O26 3660   6.701   3.000   1.932 -0.0311  0.4880  0.0030
    9CHTO   C41 3661   6.681   2.891   1.841  0.0939  0.4954  0.2643
    9CHTO   H83 3662   6.598   2.925   1.779 -0.0037  0.0557  0.1520
    9CHTO   C52 3663   6.620   2.776   1.919 -0.1047  0.2974 -0.0728
    9CHTO   O35 3664   6.484   2.813   1.974  0.0894  0.0163  0.0199
    9CHTO   H71 3665   6.429   2.836   1.901 -1.3525 -0.2875  0.9951
    9CHTO   O28 3666   6.744   3.220   1.981  0.1767  0.2053 -0.6798
    9CHTO   C42 3667   6.624   3.305   1.977 -0.3305  0.4835 -0.2779
    9CHTO   H84 3668   6.621   3.354   2.074  2.3485  0.0945  0.0523
    9CHTO   C44 3669   6.485   3.236   1.955 -0.5699  0.2278  0.6491
    9CHTO   H86 3670   6.495   3.170   1.868 -1.4272 -0.6117  1.1833
    9CHTO   O32 3671   6.467   3.147   2.067  0.1338 -0.2678 -0.0887
    9CHTO   H69 3672   6.376   3.127   2.083 -0.3120  0.4067 -1.6720
    9CHTO   C48 3673   6.361   3.334   1.925 -0.8651 -0.5815 -0.3282
    9CHTO   H90 3674   6.333   3.379   2.020 -0.2040 -0.2450 -0.2968
    9CHTO    N9 3675   6.234   3.261   1.875 -0.0807 -0.0413 -0.1329
    9CHTO   H77 3676   6.149   3.282   1.939 -0.5714  2.3031 -1.4781
    9CHTO   H78 3677   6.202   3.302   1.780  3.0381  2.8280 -0.0278
    9CHTO   C51 3678   6.408   3.445   1.822 -0.1585 -0.6278 -0.0976
    9CHTO   H93 3679   6.430   3.394   1.728 -0.3775 -2.5634  0.8708
    9CHTO   O30 3680   6.523   3.516   1.873 -0.1640 -0.2068 -0.2896
    9CHTO   C46 3681   6.643   3.419   1.868  0.3851  0.5424 -0.6707
    9CHTO   H88 3682   6.645   3.369   1.771 -0.6931  0.3534 -0.5956
    9CHTO   C53 3683   6.769   3.497   1.880 -0.2877  0.9628 -0.7157
    9CHTO   O72 3684   6.789   3.584   1.768  0.7416  0.3803 -0.2966
    9CHTO  H199 3685   6.864   3.575   1.712  0.5937 -0.3079 -0.3971
    9CHTO   O22 3686   6.299   3.537   1.788 -0.2365  0.5842 -0.1489
    9CHTO   C31 3687   6.306   3.605   1.665 -0.1213 -0.7376  0.5805
    9CHTO   H59 3688   6.217   3.671   1.668  2.5576  3.0728  0.1345
    9CHTO   C29 3689   6.424   3.704   1.646  0.0303  0.4459  0.1738
    9CHTO   H57 3690   6.512   3.641   1.668 -0.5386 -0.2563  0.4630
    9CHTO   O21 3691   6.418   3.795   1.756 -0.0244 -0.1028 -0.4194
    9CHTO   H37 3692   6.487   3.859   1.754  1.2314 -1.3625  0.6022
    9CHTO   C27 3693   6.435   3.774   1.507  0.5202 -0.0568  0.0821
    9CHTO   H55 3694   6.364   3.858   1.505 -0.7258 -1.0354  1.7829
    9CHTO    N5 3695   6.575   3.826   1.477 -0.2230  0.0863  0.1906
    9CHTO   H43 3696   6.586   3.933   1.472  2.2199 -0.1664 -0.5228
    9CHTO   H44 3697   6.613   3.783   1.385  1.1024 -4.7318  2.8181
    9CHTO   C25 3698   6.390   3.679   1.394  0.6422 -0.0990 -0.3309
    9CHTO   H53 3699   6.470   3.610   1.363  0.0983 -0.3037 -1.2895
    9CHTO   O17 3700   6.268   3.611   1.426  0.0878  0.4456  0.0143
    9CHTO   C32 3701   6.288   3.523   1.533 -0.0110  0.1292  0.6728
    9CHTO   H60 3702   6.374   3.459   1.515  0.5579  1.2855 -0.7457
    9CHTO   C36 3703   6.169   3.423   1.541 -0.6556 -0.3052 -0.3443
    9CHTO   O25 3704   6.040   3.481   1.556  0.1894 -0.0389 -0.0967
    9CHTO   H40 3705   6.021   3.499   1.647 -0.0392  0.9337 -0.3355
    9CHTO   O15 3706   6.363   3.751   1.271 -0.5631 -0.0297 -0.4123
    9CHTO   C19 3707   6.334   3.725   1.127 -0.1581  0.3643  0.3203
    9CHTO   H47 3708   6.428   3.756   1.078  0.3517 -1.2106  0.2551
    9CHTO   C20 3709   6.319   3.572   1.095 -0.0580  0.0251  0.3707
    9CHTO   H48 3710   6.235   3.527   1.152  0.6543 -0.1255  1.3130
    9CHTO   O19 3711   6.443   3.508   1.125  0.0320  0.2221 -0.3188
    9CHTO   H35 3712   6.442   3.494   1.217 -1.6356 -0.7794 -0.4661
    9CHTO   C21 3713   6.301   3.541   0.945 -0.4116  0.4368  0.3585
    9CHTO   H49 3714   6.398   3.547   0.895 -0.0451  0.8336  1.1020
    9CHTO    N4 3715   6.247   3.402   0.919 -0.1953  0.1402 -0.5125
    9CHTO   H41 3716   6.280   3.358   0.826  0.3538  2.6260 -1.5408
    9CHTO   H42 3717   6.259   3.336   1.003 -0.0295  1.4666  0.5343
    9CHTO   C22 3718   6.204   3.650   0.896 -0.1056  0.0860 -0.3546
    9CHTO   H50 3719   6.104   3.632   0.936 -1.0284  0.5515 -2.4133
    9CHTO   O14 3720   6.248   3.781   0.923 -0.0619 -0.0969  0.1818
    9CHTO   C23 3721   6.228   3.810   1.060  0.0938 -0.2987 -0.0767
    9CHTO   H51 3722   6.125   3.789   1.094 -0.7751  1.9274 -1.1623
    9CHTO   C34 3723   6.247   3.958   1.091  0.1341 -0.1443 -0.4000
    9CHTO   O23 3724   6.119   4.023   1.061  0.1063  0.2079 -0.1971
    9CHTO   H38 3725   6.118   4.043   0.970  0.1087  0.4062 -0.1531
    9CHTO   O16 3726   6.186   3.650   0.755 -0.3155  0.2965 -0.1231
    9CHTO   C24 3727   6.076   3.566   0.670 -0.7011  0.3887  0.3545
    9CHTO   H52 3728   6.064   3.464   0.707  5.0130 -0.8318 -0.6303
    9CHTO   C26 3729   6.136   3.542   0.524 -0.0202 -0.3551 -0.6765
    9CHTO   H54 3730   6.159   3.643   0.484 -0.0973 -0.2467 -0.4504
    9CHTO   O20 3731   6.263   3.477   0.538 -0.0351 -0.0200  0.3171
    9CHTO   H36 3732   6.327   3.541   0.562 -0.2779 -0.2261  1.5627
    9CHTO   C30 3733   6.031   3.466   0.434 -0.5892  0.1155  0.0357
    9CHTO   H58 3734   6.014   3.367   0.479  1.3763 -0.0372  0.4825
    9CHTO    N6 3735   6.084   3.454   0.297  0.6642  0.1513 -0.1428
    9CHTO   H45 3736   6.054   3.535   0.233  2.1836  1.6533  0.9713
    9CHTO   H46 3737   6.046   3.360   0.259 -1.7796  0.8473  0.5384
    9CHTO   C33 3738   5.883   3.529   0.437 -0.2693 -0.5174 -0.2409
    9CHTO   H61 3739   5.888   3.627   0.387  0.4490  1.0605  2.8474
    9CHTO   O18 3740   5.848   3.549   0.580 -0.1023  0.7048  0.1492
    9CHTO   C28 3741   5.940   3.631   0.657 -0.0379  0.2905  0.0104
    9CHTO   H56 3742   5.950   3.723   0.600 -1.3662 -0.1054 -0.8994
    9CHTO   C35 3743   5.883   3.656   0.798 -0.2022  0.2503  0.1103
    9CHTO   O24 3744   5.745   3.691   0.805 -0.0195 -0.1115 -0.6872
    9CHTO   H39 3745   5.749   3.780   0.779 -1.0190  1.3043  3.5260
    9CHTO    O9 3746   5.790   3.446   0.372 -0.4348  0.0978 -0.0930
    9CHTO   C13 3747   5.646   3.536   0.324  0.2180  0.4857  0.3238
    9CHTO   H26 3748   5.672   3.613   0.249  2.2296 -1.0233 -0.5570
    9CHTO   C11 3749   5.580   3.598   0.457 -0.3115  0.0878  0.4409
    9CHTO   H24 3750   5.638   3.690   0.477 -2.0840  1.4430 -0.5579
    9CHTO    O8 3751   5.581   3.499   0.566 -0.2516 -0.0416  0.8111
    9CHTO    H3 3752   5.537   3.420   0.540  0.2987  0.0677 -0.4929
    9CHTO    C9 3753   5.440   3.647   0.422 -0.3682  0.1706  0.1467
    9CHTO   H22 3754   5.462   3.724   0.347  0.2794  1.0031  1.1739
    9CHTO    N2 3755   5.373   3.726   0.529 -0.3119  0.4412 -0.5621
    9CHTO   H10 3756   5.354   3.674   0.622 -0.3153  1.1319 -0.1707
    9CHTO   H11 3757   5.286   3.775   0.486  0.2633  1.0920 -0.9949
    9CHTO    C7 3758   5.350   3.540   0.361  0.3761 -0.0206 -0.4634
    9CHTO   H20 3759   5.266   3.601   0.322  0.0748 -0.2020 -0.1061
    9CHTO    O4 3760   5.402   3.474   0.249  0.0837 -0.6964  0.3075
    9CHTO   C14 3761   5.540   3.437   0.247  0.5012  0.4640 -0.4748
    9CHTO   H27 3762   5.572   3.431   0.140 -1.5023  1.3610 -1.1440
    9CHTO   C18 3763   5.539   3.287   0.296  0.3522 -0.4508 -0.0437
    9CHTO   O13 3764   5.478   3.200   0.201  0.0689 -0.6427 -0.2554
    9CHTO    H7 3765   5.457   3.115   0.234 -1.0395  0.1958  1.2254
    9CHTO    O2 3766   5.299   3.423   0.473  0.0975 -0.5389  0.2224
    9CHTO    C1 3767   5.160   3.373   0.468  0.9320  0.0451 -0.7105
    9CHTO   H14 3768   5.136   3.355   0.361 -0.0869 -0.4371 -0.4105
    9CHTO    C2 3769   5.047   3.474   0.529 -0.3050  0.6846 -0.2030
    9CHTO   H15 3770   5.085   3.497   0.629  1.7046 -1.7912 -0.3640
    9CHTO    O6 3771   5.032   3.587   0.448 -0.1718  0.5182 -0.2156
    9CHTO    H1 3772   4.979   3.649   0.493 -0.0118  0.4189  0.1116
    9CHTO    C3 3773   4.902   3.393   0.533 -0.1649 -0.3612  0.0742
    9CHTO   H16 3774   4.861   3.380   0.432 -1.6853 -0.0412  0.6355
    9CHTO    N1 3775   4.792   3.470   0.605 -0.1668 -0.3871 -0.7717
    9CHTO    H8 3776   4.806   3.474   0.712 -1.4696  2.6812 -0.6523
    9CHTO    H9 3777   4.783   3.569   0.563 -0.2753 -0.6113 -1.2840
    9CHTO    C4 3778   4.914   3.248   0.587 -0.1383  0.4057  0.3275
    9CHTO   H17 3779   4.934   3.247   0.694  0.2483 -0.5591  0.2468
    9CHTO    O1 3780   5.018   3.180   0.515  0.1168  0.0181  0.4886
    9CHTO    C5 3781   5.144   3.234   0.536 -0.7576 -0.4373 -0.2276
    9CHTO   H18 3782   5.172   3.252   0.640  1.9252 -0.6485 -0.8845
    9CHTO   C16 3783   5.242   3.133   0.481  0.2271  0.5489 -0.1660
    9CHTO   O11 3784   5.249   3.003   0.540  0.7076 -0.0467 -0.7739
    9CHTO    H5 3785   5.306   2.947   0.491 -0.9293 -1.1103 -1.5037
    9CHTO    O3 3786   4.793   3.171   0.550 -0.3679  0.3580  0.2491
    9CHTO    C6 3787   4.717   3.114   0.659  0.7317  0.0335 -0.1330
    9CHTO   H19 3788   4.702   3.176   0.747  0.2805  2.0544 -1.5983
    9CHTO    C8 3789   4.570   3.100   0.599 -0.8369 -0.1086  0.2684
    9CHTO   H21 3790   4.570   3.035   0.512 -2.1019 -0.1258  0.2646
    9CHTO    O7 3791   4.525   3.231   0.565  0.2250 -0.2539  0.0714
    9CHTO    H2 3792   4.440   3.223   0.527 -0.0486  2.1278  0.1067
    9CHTO   C12 3793   4.482   3.022   0.706 -0.1609  0.0650  0.2379
    9CHTO   H25 3794   4.472   3.089   0.794 -1.0196 -1.8002  1.5982
    9CHTO    N3 3795   4.344   3.000   0.655  0.0728  0.3583  0.2165
    9CHTO   H12 3796   4.352   2.897   0.623 -0.4334  0.4845 -0.3261
    9CHTO   H13 3797   4.323   3.055   0.564  0.6376 -0.7718 -0.6192
    9CHTO   C15 3798   4.557   2.886   0.754 -0.2257 -0.5428 -0.2026
    9CHTO   H28 3799   4.571   2.811   0.677  1.2609 -2.1085  1.5248
    9CHTO   O10 3800   4.468   2.818   0.885 -0.0791 -0.1526  0.5513
    9CHTO    H4 3801   4.469   2.872   0.962  1.8236  1.8126 -0.7624
    9CHTO    O5 3802   4.687   2.915   0.797  0.7062  0.5594 -0.1062
    9CHTO   C10 3803   4.783   2.977   0.708 -0.1592 -0.3634 -0.8178
    9CHTO   H23 3804   4.803   2.903   0.630  3.1142  1.1550 -1.5103
    9CHTO   C17 3805   4.908   2.995   0.795  0.5634 -0.3880  0.2024
    9CHTO   O12 3806   4.959   2.866   0.832  0.0344  0.5102 -0.0627
    9CHTO    H6 3807   5.007   2.831   0.760 -1.9253  0.3095 -1.2987
   10CHTO  H203 3808   3.659   6.189   1.991  1.2395  0.3205  0.0386
   10CHTO   O82 3809   3.664   6.280   1.969  0.5927  0.4178  0.2815
   10CHTO  C123 3810   3.706   6.358   2.082 -0.6040 -0.1572 -0.5076
   10CHTO  H227 3811   3.687   6.465   2.063 -2.0116 -0.2059  0.6124
   10CHTO   O77 3812   3.609   6.311   2.184 -0.5977 -0.3174 -0.7126
   10CHTO  C118 3813   3.615   6.371   2.314 -0.4352  0.1398  0.1150
   10CHTO  H222 3814   3.595   6.479   2.304 -0.5455  0.2979  1.8446
   10CHTO  C125 3815   3.498   6.310   2.406  0.6480  0.7752 -0.4430
   10CHTO   O84 3816   3.367   6.335   2.340  0.6488 -0.1902 -0.1258
   10CHTO  H205 3817   3.362   6.272   2.271  0.3416 -0.0162 -0.2652
   10CHTO  C114 3818   3.753   6.344   2.373 -0.3938 -0.1563 -0.0117
   10CHTO  H218 3819   3.770   6.236   2.382  1.8202  0.0997 -0.8821
   10CHTO  C116 3820   3.866   6.386   2.272  0.5401  0.2418 -0.4098
   10CHTO  H220 3821   3.873   6.497   2.265 -0.7224  0.3029 -0.9909
   10CHTO   O79 3822   3.992   6.351   2.329 -0.2383 -0.1500  0.1337
   10CHTO  H201 3823   4.008   6.259   2.336  0.9728  0.0948  0.7618
   10CHTO  C120 3824   3.852   6.323   2.128 -0.2867 -0.0372 -0.1875
   10CHTO  H224 3825   3.868   6.214   2.139  2.2594 -0.0237 -3.1869
   10CHTO   N21 3826   3.961   6.371   2.034 -0.2148  0.5415  0.0272
   10CHTO  H211 3827   4.054   6.322   2.058  0.3778  0.4080 -2.3784
   10CHTO  H212 3828   3.929   6.346   1.934  0.5768  0.9329 -0.3288
   10CHTO   O75 3829   3.762   6.423   2.493 -0.2555 -0.0283  0.0921
   10CHTO  C112 3830   3.789   6.341   2.623  0.7773  0.1895  0.7059
   10CHTO  H216 3831   3.842   6.248   2.599 -1.7489 -1.3607  0.9675
   10CHTO   O73 3832   3.664   6.314   2.686 -0.2279 -0.2855  0.4514
   10CHTO  C113 3833   3.680   6.222   2.792 -0.6101  0.6837  0.7948
   10CHTO  H217 3834   3.723   6.133   2.742 -1.7906  1.8308 -2.3845
   10CHTO  C124 3835   3.540   6.172   2.828 -0.4471  0.3183  0.8587
   10CHTO   O83 3836   3.464   6.279   2.872  0.6358 -0.2573  0.0395
   10CHTO  H204 3837   3.373   6.274   2.850  0.4942  1.4387  0.2089
   10CHTO  C109 3838   3.759   6.280   2.914  0.8339 -0.3555 -0.7419
   10CHTO  H213 3839   3.693   6.352   2.965 -1.6376 -2.5711 -0.6973
   10CHTO  C110 3840   3.883   6.345   2.858 -0.2366  0.6146 -0.5958
   10CHTO  H214 3841   3.949   6.262   2.834 -0.6436 -0.2311  1.1022
   10CHTO   O78 3842   3.955   6.411   2.971  0.0791 -0.5631 -0.1973
   10CHTO  H200 3843   3.922   6.494   2.998  1.4301  0.8610 -2.7471
   10CHTO  C111 3844   3.866   6.430   2.731  0.1114 -0.2045  0.2309
   10CHTO  H215 3845   3.797   6.513   2.753 -0.2264 -0.6356  0.8203
   10CHTO   N19 3846   3.993   6.493   2.682 -0.0499 -0.4680 -0.4540
   10CHTO  H207 3847   3.977   6.587   2.633 -1.7381 -0.0347  0.8985
   10CHTO  H208 3848   4.038   6.420   2.615 -0.8805 -0.3608 -1.1416
   10CHTO   O74 3849   3.781   6.163   3.005 -0.2582  0.1052 -0.4587
   10CHTO  C115 3850   3.703   6.175   3.138  0.1182 -0.6277  0.8441
   10CHTO  H219 3851   3.673   6.278   3.157 -0.7122 -0.9119  1.0822
   10CHTO   O76 3852   3.566   6.090   3.129 -0.3607 -0.2164  0.1713
   10CHTO  C122 3853   3.486   6.094   3.250  0.2433 -0.6824 -0.0256
   10CHTO  H226 3854   3.404   6.023   3.233 -1.2683  0.5607  1.8349
   10CHTO  C126 3855   3.418   6.230   3.269  0.4643  0.2200  0.2605
   10CHTO   O85 3856   3.333   6.262   3.161 -0.3322  0.1079  0.6258
   10CHTO  H206 3857   3.378   6.292   3.084 -1.3049 -0.6595 -0.2576
   10CHTO  C121 3858   3.563   6.049   3.365 -0.3357  0.2708 -0.4292
   10CHTO  H225 3859   3.511   6.053   3.463 -0.2936 -2.0454 -0.2848
   10CHTO   O81 3860   3.589   5.906   3.354 -0.2012 -0.0162 -0.0739
   10CHTO  H202 3861   3.649   5.874   3.419  0.2979  1.6992  0.3253
   10CHTO  C119 3862   3.700   6.130   3.385  0.7694  0.0381 -0.0822
   10CHTO  H223 3863   3.660   6.230   3.403  0.4978 -0.1796  0.5221
   10CHTO  C117 3864   3.791   6.127   3.258  0.4629  0.9307 -0.1725
   10CHTO  H221 3865   3.837   6.031   3.236 -0.8480 -0.0686  1.3406
   10CHTO   N20 3866   3.909   6.222   3.271  0.0466 -0.1068  0.1684
   10CHTO  H209 3867   3.899   6.271   3.367  0.1836 -0.6181  0.4443
   10CHTO  H210 3868   3.911   6.306   3.203  0.7033  0.7178  1.1822
   10CHTO   O80 3869   3.752   6.100   3.532 -0.6385 -0.0677 -0.6657
   10CHTO  C103 3870   3.737   6.212   3.656  0.6433 -0.7014  0.2541
   10CHTO  H190 3871   3.806   6.196   3.739 -0.2294  1.0355  1.3524
   10CHTO  C101 3872   3.728   6.363   3.621 -1.1672 -0.8288 -0.1842
   10CHTO  H188 3873   3.656   6.388   3.543  0.5950  2.9980 -0.7000
   10CHTO   O68 3874   3.874   6.404   3.554  0.4617  0.0191 -0.1856
   10CHTO  H168 3875   3.880   6.368   3.468 -1.2903 -0.0445 -0.3093
   10CHTO   C99 3876   3.692   6.449   3.749 -0.5489  0.5004  0.3138
   10CHTO  H186 3877   3.752   6.423   3.838 -2.4315 -1.2397  1.1174
   10CHTO   N17 3878   3.681   6.594   3.737 -0.1099 -1.1927 -0.3222
   10CHTO  H174 3879   3.742   6.646   3.665 -3.2914  1.1798 -1.3824
   10CHTO  H175 3880   3.668   6.647   3.830  2.0576 -1.3508  0.1139
   10CHTO   C97 3881   3.552   6.400   3.791 -0.4681  0.9346  0.9240
   10CHTO  H184 3882   3.481   6.423   3.711 -1.0642 -1.3725  0.7407
   10CHTO   O64 3883   3.549   6.260   3.811  0.4724 -0.2627  0.1080
   10CHTO  C104 3884   3.596   6.169   3.710 -0.0005 -0.4759  0.4153
   10CHTO  H191 3885   3.517   6.175   3.636 -0.6592 -0.3645  1.1251
   10CHTO  C108 3886   3.592   6.027   3.766  0.0197  0.2653  0.2325
   10CHTO   O71 3887   3.463   6.002   3.820  0.2179  0.0970 -0.4568
   10CHTO  H171 3888   3.462   5.955   3.901  0.8582 -0.9506 -1.0525
   10CHTO   O62 3889   3.491   6.422   3.919 -0.5818 -0.0300  0.0446
   10CHTO   C91 3890   3.345   6.432   3.920  0.0233  0.1706 -0.2537
   10CHTO  H178 3891   3.292   6.390   3.834 -1.0546  1.4440 -0.2286
   10CHTO   C92 3892   3.294   6.580   3.911  0.2782 -0.5585  0.2274
   10CHTO  H179 3893   3.351   6.635   3.987  0.7510  1.1445 -1.3249
   10CHTO   O66 3894   3.335   6.639   3.790  0.3141  0.5185  0.0113
   10CHTO  H166 3895   3.357   6.729   3.805 -1.9559  1.0895  0.1157
   10CHTO   C93 3896   3.142   6.593   3.943  0.0003 -0.1370  0.5953
   10CHTO  H180 3897   3.090   6.562   3.852 -3.1924  1.5934  1.7566
   10CHTO   N16 3898   3.097   6.734   3.954 -0.0969 -0.2275  0.1053
   10CHTO  H172 3899   3.088   6.764   3.850  2.0616 -0.6562 -0.2377
   10CHTO  H173 3900   3.011   6.755   4.015  0.1703  0.4514  0.2545
   10CHTO   C94 3901   3.099   6.507   4.071  0.6780 -0.6341  0.0666
   10CHTO  H181 3902   3.141   6.542   4.165 -0.3135 -0.5539  0.4849
   10CHTO   O61 3903   3.147   6.374   4.054  0.1247  0.2420  0.1056
   10CHTO   C95 3904   3.293   6.362   4.043 -0.3230 -0.6613 -0.5974
   10CHTO  H182 3905   3.335   6.419   4.126  3.0799 -1.8485 -1.4085
   10CHTO  C106 3906   3.331   6.215   4.063 -0.1721  0.3822  0.1002
   10CHTO   O69 3907   3.234   6.159   4.151  0.0281  0.4389  0.1022
   10CHTO  H169 3908   3.176   6.114   4.091  0.4462  0.7792 -0.5632
   10CHTO   O63 3909   2.928   6.505   4.073  0.4953  0.5869  0.6691
   10CHTO   C96 3910   2.888   6.454   4.211  0.4707  0.1764  0.6573
   10CHTO  H183 3911   2.966   6.453   4.287 -0.2905  0.2098  1.4388
   10CHTO   C98 3912   2.817   6.317   4.200  0.3885 -0.5817  0.4655
   10CHTO  H185 3913   2.744   6.330   4.119 -1.9154 -0.5519  2.4755
   10CHTO   O67 3914   2.907   6.222   4.151 -0.3090 -0.0593 -0.3562
   10CHTO  H167 3915   2.855   6.154   4.114  0.9953 -0.9475 -0.6049
   10CHTO  C102 3916   2.741   6.272   4.332 -0.8453 -0.3855 -0.0511
   10CHTO  H189 3917   2.821   6.228   4.394  0.2850  3.6671  1.5486
   10CHTO   N18 3918   2.638   6.170   4.302 -0.3012 -0.4487  0.4230
   10CHTO  H176 3919   2.667   6.123   4.209  0.0408  1.3321 -0.3782
   10CHTO  H177 3920   2.536   6.204   4.297 -0.7493 -2.1682 -3.1912
   10CHTO  C105 3921   2.686   6.390   4.413  0.0821 -0.3690  0.7416
   10CHTO  H192 3922   2.587   6.412   4.372 -0.2054 -0.1421  1.5397
   10CHTO   O65 3923   2.762   6.516   4.408 -0.1438  0.2121  0.5743
   10CHTO  C100 3924   2.790   6.562   4.271 -0.1667  0.0983  0.0154
   10CHTO  H187 3925   2.693   6.545   4.220 -1.9436 -0.4892  3.4579
   10CHTO  C107 3926   2.844   6.706   4.262  0.1268 -0.2240 -0.5006
   10CHTO   O70 3927   2.740   6.793   4.300  0.2174  0.4800  0.5571
   10CHTO  H170 3928   2.667   6.792   4.240 -1.3271 -1.4226  2.3930
   10CHTO   O57 3929   2.686   6.337   4.569  0.2036 -0.0562  0.3620
   10CHTO   C85 3930   2.596   6.384   4.669 -0.3141 -0.4037 -0.0662
   10CHTO  H157 3931   2.512   6.437   4.618  0.4627 -0.3905 -1.3462
   10CHTO   C83 3932   2.667   6.501   4.746  0.4234  0.0841  1.4427
   10CHTO  H155 3933   2.695   6.584   4.683 -0.0674 -1.4058 -0.7906
   10CHTO   O56 3934   2.787   6.449   4.802 -0.1530 -0.0891  0.4280
   10CHTO  H135 3935   2.768   6.381   4.864  0.9698 -1.5704 -0.8201
   10CHTO   C81 3936   2.575   6.554   4.857 -0.3542  0.1801  0.0150
   10CHTO  H153 3937   2.488   6.601   4.810 -0.3209 -1.0576 -1.3071
   10CHTO   N14 3938   2.633   6.664   4.937  0.3195  0.4267 -0.5294
   10CHTO  H141 3939   2.663   6.746   4.875  3.0486 -0.5121 -0.5337
   10CHTO  H142 3940   2.718   6.630   4.992  0.7063  3.3519  0.7362
   10CHTO   C79 3941   2.518   6.439   4.951  0.2682  0.3947 -0.6130
   10CHTO  H151 3942   2.446   6.482   5.021 -0.1557  0.5136 -1.1151
   10CHTO   O52 3943   2.446   6.343   4.871 -0.0735 -0.1524 -0.0594
   10CHTO   C86 3944   2.544   6.279   4.777  0.4268 -0.6113  0.7280
   10CHTO  H158 3945   2.626   6.231   4.834  2.0795 -0.5813 -1.5377
   10CHTO   C90 3946   2.483   6.160   4.706  0.5146 -0.2619  0.1150
   10CHTO   O60 3947   2.403   6.081   4.794 -0.2389 -0.3182 -0.2639
   10CHTO  H138 3948   2.428   5.993   4.774  0.9042 -0.8375  3.1639
   10CHTO   O50 3949   2.612   6.374   5.038  0.4506 -0.1407  0.1405
   10CHTO   C73 3950   2.624   6.257   5.114  0.1233  0.0072 -0.2084
   10CHTO  H145 3951   2.603   6.174   5.045 -0.3593  0.6843 -0.8742
   10CHTO   C74 3952   2.514   6.257   5.224 -0.1692 -0.3510 -0.2807
   10CHTO  H146 3953   2.418   6.280   5.177 -1.7452 -1.0394  2.4777
   10CHTO   O54 3954   2.511   6.127   5.286 -0.1024 -0.1060  0.3402
   10CHTO  H133 3955   2.588   6.105   5.335  1.2973  0.8423 -1.3856
   10CHTO   C75 3956   2.562   6.378   5.318  0.1166  0.6273  0.2803
   10CHTO  H147 3957   2.552   6.476   5.269  1.9218  0.6660 -0.0591
   10CHTO   N13 3958   2.462   6.407   5.422 -0.0365  0.4327  0.1852
   10CHTO  H139 3959   2.446   6.319   5.484  1.7507 -0.1671 -0.1779
   10CHTO  H140 3960   2.506   6.482   5.486  0.1988 -0.0435  0.5862
   10CHTO   C76 3961   2.715   6.362   5.373  0.4592 -0.1045 -0.3367
   10CHTO  H148 3962   2.721   6.269   5.429  0.5341  0.3772  0.4593
   10CHTO   O49 3963   2.793   6.356   5.249  0.4139  0.4351  0.1303
   10CHTO   C77 3964   2.770   6.247   5.160  0.2986 -0.3259  0.4705
   10CHTO  H149 3965   2.785   6.160   5.225  0.1186 -0.2088  0.6696
   10CHTO   C88 3966   2.873   6.239   5.050  0.2227  0.6575 -0.1818
   10CHTO   O58 3967   3.019   6.206   5.134 -0.3877 -0.0658 -0.1417
   10CHTO  H136 3968   3.029   6.113   5.146 -1.2923  0.0362  1.4380
   10CHTO   O51 3969   2.769   6.491   5.471  0.4483  0.2785  0.3835
   10CHTO   C78 3970   2.905   6.446   5.537 -0.0086  0.2497  0.2342
   10CHTO  H150 3971   2.949   6.353   5.495 -0.6383 -0.1622  0.4923
   10CHTO   C80 3972   2.883   6.426   5.685 -0.1945 -0.2459 -0.8552
   10CHTO  H152 3973   2.834   6.516   5.728  0.8011 -0.7328  1.4212
   10CHTO   O55 3974   2.785   6.317   5.691 -0.4671  0.0876  0.3357
   10CHTO  H134 3975   2.705   6.339   5.648  0.2152 -1.8058 -2.0276
   10CHTO   C84 3976   3.017   6.397   5.757 -0.2118  0.1040 -0.7607
   10CHTO  H156 3977   3.065   6.315   5.703 -0.3061  0.7993 -1.9130
   10CHTO   N15 3978   3.002   6.361   5.899 -0.0124  0.4353  0.0600
   10CHTO  H143 3979   2.925   6.410   5.957  0.1984 -0.2056  0.8925
   10CHTO  H144 3980   3.092   6.346   5.954  0.8617  0.7117 -1.2837
   10CHTO   C87 3981   3.111   6.520   5.739  0.1725 -0.0508 -0.3988
   10CHTO  H159 3982   3.066   6.607   5.788 -0.9833 -0.1835 -1.1858
   10CHTO   O53 3983   3.126   6.532   5.595  0.4546 -0.5611 -0.2243
   10CHTO   C82 3984   3.007   6.560   5.518  0.0141  0.0602 -0.1358
   10CHTO  H154 3985   2.956   6.650   5.552  0.7960  0.1953  0.6927
   10CHTO   C89 3986   3.040   6.588   5.367  0.2719  0.4363 -0.4737
   10CHTO   O59 3987   3.073   6.462   5.310 -0.0734  0.8505  0.5400
   10CHTO  H137 3988   3.089   6.471   5.218  1.4119 -2.9407  0.3482
   10CHTO   O45 3989   3.258   6.516   5.789 -0.0159 -0.2653  0.0139
   10CHTO   C67 3990   3.333   6.633   5.768  0.1421 -0.1757 -0.1680
   10CHTO  H124 3991   3.277   6.704   5.707  2.7375  3.5299  1.5001
   10CHTO   C65 3992   3.364   6.697   5.912  0.3576 -0.3264  0.1166
   10CHTO  H122 3993   3.269   6.699   5.965 -1.1949  0.3145 -2.5784
   10CHTO   O44 3994   3.410   6.829   5.891 -1.0134 -0.1287 -0.3928
   10CHTO  H102 3995   3.426   6.872   5.973 -0.1097  0.1595 -0.7197
   10CHTO   C63 3996   3.461   6.604   5.990 -0.2677  0.5367 -0.6444
   10CHTO  H120 3997   3.417   6.504   5.992 -2.6166  1.5666 -0.0303
   10CHTO   N11 3998   3.489   6.633   6.132 -0.0301  0.3522 -0.3549
   10CHTO  H108 3999   3.395   6.639   6.183 -0.0628 -1.0292 -0.2349
   10CHTO  H109 4000   3.542   6.726   6.132  0.4596  0.1355  2.6682
   10CHTO   C61 4001   3.594   6.610   5.908  0.4854 -0.1975  0.5915
   10CHTO  H118 4002   3.668   6.538   5.947  1.5243 -0.2753 -1.3991
   10CHTO   O40 4003   3.584   6.582   5.779  0.1172 -0.0602  0.2637
   10CHTO   C68 4004   3.465   6.604   5.688  0.3185 -0.3256 -0.1992
   10CHTO  H125 4005   3.445   6.511   5.632 -4.0103  2.0221 -2.8737
   10CHTO   C72 4006   3.486   6.704   5.581 -0.0183 -0.9417  0.3633
   10CHTO   O48 4007   3.592   6.669   5.495  0.3287 -0.0376  0.4461
   10CHTO  H105 4008   3.622   6.746   5.452  2.2917 -0.7236  0.5306
   10CHTO   O38 4009   3.663   6.735   5.922  0.3052  0.8248 -0.1915
   10CHTO   C55 4010   3.811   6.741   5.913  0.9053  0.4918  0.1099
   10CHTO  H112 4011   3.848   6.674   5.833  0.1217  1.9702 -1.5287
   10CHTO   C56 4012   3.885   6.708   6.058  0.1554  0.3093  0.3287
   10CHTO  H113 4013   3.841   6.772   6.136 -0.5760  1.2982 -0.8821
   10CHTO   O42 4014   3.845   6.579   6.100  0.4863 -0.6756  0.2353
   10CHTO  H100 4015   3.794   6.533   6.036 -0.9540  1.4731 -0.2016
   10CHTO   C57 4016   4.039   6.715   6.034 -0.3277 -0.3189 -0.1110
   10CHTO  H114 4017   4.070   6.643   5.958 -1.5580  0.5900 -1.5211
   10CHTO   N10 4018   4.121   6.695   6.151 -0.2164 -0.1385  0.5742
   10CHTO  H106 4019   4.208   6.634   6.136  0.3954  1.0099 -0.5938
   10CHTO  H107 4020   4.148   6.788   6.201 -3.3209  0.5389  1.1063
   10CHTO   C58 4021   4.073   6.855   5.970  0.7106  0.7977  0.3764
   10CHTO  H115 4022   4.054   6.934   6.045 -0.8052  1.6443 -0.8792
   10CHTO   O37 4023   4.003   6.885   5.845 -0.0462 -0.2422 -0.2335
   10CHTO   C59 4024   3.863   6.878   5.868 -0.1763  0.1603 -0.0282
   10CHTO  H116 4025   3.842   6.960   5.937 -0.2897 -1.7030  2.1964
   10CHTO   C70 4026   3.778   6.928   5.751 -0.4618 -0.0353 -0.1405
   10CHTO   O46 4027   3.641   6.966   5.791 -0.1670  0.1568  0.0344
   10CHTO  H103 4028   3.629   7.053   5.824 -0.2921  0.6800 -1.3395
   10CHTO   O39 4029   4.225   6.865   5.923 -0.2428 -0.2882 -0.4850
   10CHTO   C60 4030   4.258   7.003   5.898  0.1458 -0.1500 -0.0354
   10CHTO  H117 4031   4.178   7.040   5.834  1.4761  2.0005 -0.5217
   10CHTO   C62 4032   4.280   7.094   6.028 -0.1635  0.4776 -0.0400
   10CHTO  H119 4033   4.181   7.104   6.078 -0.4490 -3.1301  0.2381
   10CHTO   O43 4034   4.361   7.029   6.122 -0.2184  0.5660 -0.6223
   10CHTO  H101 4035   4.450   7.030   6.093 -0.6492  0.5404 -1.9984
   10CHTO   C66 4036   4.330   7.244   5.977 -0.2750 -0.8197 -0.3753
   10CHTO  H123 4037   4.256   7.280   5.906 -0.8015  0.5964  0.8686
   10CHTO   N12 4038   4.341   7.342   6.085 -0.4852 -0.1203 -0.1801
   10CHTO  H110 4039   4.347   7.445   6.056 -2.9238 -0.5396 -2.3137
   10CHTO  H111 4040   4.262   7.326   6.157 -0.8664 -1.8903 -0.9625
   10CHTO   C69 4041   4.464   7.243   5.896 -0.2838 -0.3589  0.8374
   10CHTO  H126 4042   4.549   7.217   5.963  0.5409 -0.3626 -0.2057
   10CHTO   O41 4043   4.452   7.148   5.778 -0.2253  0.3095  0.3230
   10CHTO   C64 4044   4.389   6.999   5.802 -0.1042 -0.3004  0.4733
   10CHTO  H121 4045   4.466   6.937   5.853  0.5111 -0.0519 -0.1534
   10CHTO   C71 4046   4.359   6.941   5.659 -0.4799 -0.0694 -0.1902
   10CHTO   O47 4047   4.313   6.803   5.638 -0.1498 -0.5901 -0.4142
   10CHTO  H104 4048   4.280   6.797   5.551  3.4726 -1.2760 -1.8250
   10CHTO   O34 4049   4.486   7.378   5.829  0.2437 -0.3108 -0.3248
   10CHTO   C49 4050   4.615   7.462   5.797  0.6658 -0.5848  0.0645
   10CHTO   H91 4051   4.704   7.401   5.813  1.5987  1.1319  1.6029
   10CHTO   C47 4052   4.628   7.595   5.882 -0.2335 -0.4611 -0.4678
   10CHTO   H89 4053   4.729   7.630   5.853 -0.1108 -0.8959 -0.5745
   10CHTO   O33 4054   4.634   7.567   6.023  0.4708 -0.5778  0.3401
   10CHTO   H70 4055   4.688   7.626   6.072  0.0185 -1.7155  2.3173
   10CHTO   C45 4056   4.526   7.703   5.830 -0.5348  0.1820  0.1232
   10CHTO   H87 4057   4.423   7.666   5.843 -0.7754  0.7508 -0.1507
   10CHTO    N8 4058   4.547   7.825   5.915 -0.1355  0.3752  0.4318
   10CHTO   H75 4059   4.454   7.878   5.900 -0.8010 -0.9724 -0.3183
   10CHTO   H76 4060   4.614   7.897   5.872 -0.5967 -0.1069 -1.1283
   10CHTO   C43 4061   4.547   7.738   5.669 -0.5681 -0.5489  0.4182
   10CHTO   H85 4062   4.463   7.799   5.635  2.2333  3.6981  0.8337
   10CHTO   O29 4063   4.538   7.601   5.610  0.3680  0.2589 -0.2069
   10CHTO   C50 4064   4.618   7.491   5.649  0.2501 -0.4965  1.4405
   10CHTO   H92 4065   4.561   7.406   5.608 -0.3933  1.3997 -1.6766
   10CHTO   C54 4066   4.750   7.493   5.572 -0.7762 -0.1784  0.4059
   10CHTO   O36 4067   4.726   7.504   5.433 -0.9863  0.0316  0.7050
   10CHTO   H72 4068   4.696   7.420   5.403  1.4278 -0.0391 -1.6413
   10CHTO   O27 4069   4.663   7.815   5.634  0.1731  0.1597 -0.3177
   10CHTO   C37 4070   4.712   7.921   5.548 -0.4797  0.1033  0.6291
   10CHTO   H79 4071   4.732   7.882   5.447  1.0456 -0.7666  1.2561
   10CHTO   C38 4072   4.608   8.038   5.546  0.9195 -0.2360  0.1288
   10CHTO   H80 4073   4.577   8.054   5.650  1.0725  2.6500 -0.2214
   10CHTO   O31 4074   4.487   7.993   5.472  0.0066 -0.0620  0.0498
   10CHTO   H68 4075   4.454   7.916   5.514  1.4287  0.1112  1.5398
   10CHTO   C39 4076   4.670   8.166   5.475 -0.0600  0.8262  1.2042
   10CHTO   H81 4077   4.674   8.138   5.369 -2.2464 -3.2473  2.0931
   10CHTO    N7 4078   4.579   8.279   5.477 -0.0434 -0.2497 -0.0224
   10CHTO   H73 4079   4.496   8.270   5.408  0.6953 -0.1388 -0.9324
   10CHTO   H74 4080   4.513   8.261   5.560  0.1755 -0.2531  0.1517
   10CHTO   C40 4081   4.815   8.198   5.529  0.2637 -0.2837 -0.4120
   10CHTO   H82 4082   4.807   8.235   5.631  0.9509 -1.0471 -0.0737
   10CHTO   O26 4083   4.898   8.075   5.521 -0.9042  0.7290 -0.0051
   10CHTO   C41 4084   4.850   7.972   5.608  0.1987 -0.2453  0.3106
   10CHTO   H83 4085   4.836   7.998   5.714 -0.2573 -1.0512  0.4560
   10CHTO   C52 4086   4.961   7.867   5.614 -0.2395 -0.1990 -0.0985
   10CHTO   O35 4087   4.935   7.738   5.706 -0.3290 -0.0227 -0.2004
   10CHTO   H71 4088   4.948   7.668   5.646  0.6675  0.1027 -0.1264
   10CHTO   O28 4089   4.891   8.293   5.454 -0.2516  0.4348  0.6653
   10CHTO   C42 4090   5.027   8.339   5.485  0.2282  0.0743  0.0911
   10CHTO   H84 4091   5.082   8.249   5.513 -1.8284 -1.4665 -0.7029
   10CHTO   C44 4092   5.029   8.434   5.611 -0.3115 -0.0517 -0.0919
   10CHTO   H86 4093   4.962   8.519   5.602  0.8209  0.7686 -0.9897
   10CHTO   O32 4094   4.985   8.365   5.728 -0.4212 -0.7196 -0.5044
   10CHTO   H69 4095   4.958   8.435   5.784 -0.3570 -0.6688 -0.5353
   10CHTO   C48 4096   5.172   8.505   5.639  0.2876  0.2285  0.5046
   10CHTO   H90 4097   5.237   8.435   5.691 -0.2924  0.1726  1.1688
   10CHTO    N9 4098   5.164   8.613   5.748  0.2429  0.1434 -0.5275
   10CHTO   H77 4099   5.259   8.637   5.794  0.6381 -3.7793  0.9173
   10CHTO   H78 4100   5.126   8.704   5.704 -0.0199  0.3337  0.0784
   10CHTO   C51 4101   5.243   8.559   5.508  0.0452  0.1991 -0.3186
   10CHTO   H93 4102   5.178   8.640   5.474 -0.8393 -0.9434 -1.3792
   10CHTO   O30 4103   5.244   8.444   5.413 -0.3508  0.0267  0.1328
   10CHTO   C46 4104   5.105   8.396   5.364 -0.2135 -0.6331  0.6861
   10CHTO   H88 4105   5.057   8.480   5.313  1.0318  0.3377  1.0964
   10CHTO   C53 4106   5.122   8.285   5.255 -0.4230  0.6865 -0.0359
   10CHTO   O72 4107   5.189   8.326   5.135 -0.5201  0.8398 -0.2269
   10CHTO  H199 4108   5.182   8.250   5.081 -0.8645  0.1115  0.8094
   10CHTO   O22 4109   5.378   8.607   5.514  0.3084 -0.4413  0.0641
   10CHTO   C31 4110   5.419   8.699   5.402 -0.5413 -0.1262  0.0042
   10CHTO   H59 4111   5.334   8.706   5.331 -0.6039  2.6600  0.2731
   10CHTO   C29 4112   5.437   8.845   5.457 -0.4742  0.2697  0.1307
   10CHTO   H57 4113   5.522   8.848   5.527  0.1170  0.1935 -0.5820
   10CHTO   O21 4114   5.319   8.898   5.527  0.2468 -0.0542  0.0861
   10CHTO   H37 4115   5.316   8.991   5.540 -0.4411  0.2549 -2.1349
   10CHTO   C27 4116   5.472   8.943   5.330  0.0395  0.3679  0.4957
   10CHTO   H55 4117   5.380   8.959   5.273 -1.5363 -0.9983  2.5840
   10CHTO    N5 4118   5.512   9.079   5.375 -0.6804 -0.3781 -0.3061
   10CHTO   H43 4119   5.531   9.139   5.287 -1.6166 -0.7434 -0.7667
   10CHTO   H44 4120   5.608   9.068   5.423 -0.1408 -0.1791 -1.3297
   10CHTO   C25 4121   5.587   8.875   5.238 -0.5118 -0.5074  0.0728
   10CHTO   H53 4122   5.687   8.880   5.284 -0.0820 -0.8511 -0.8219
   10CHTO   O17 4123   5.559   8.739   5.212  0.4504  0.1255 -0.2689
   10CHTO   C32 4124   5.546   8.652   5.325 -0.0120 -0.1353 -0.2328
   10CHTO   H60 4125   5.633   8.670   5.388 -1.1016 -0.8482  1.5085
   10CHTO   C36 4126   5.524   8.504   5.277 -0.5503  0.1832 -0.0424
   10CHTO   O25 4127   5.541   8.395   5.375  0.0371  0.6810  0.4761
   10CHTO   H40 4128   5.631   8.376   5.390 -0.4011 -0.5777  1.6175
   10CHTO   O15 4129   5.597   8.943   5.111  0.3626 -0.1765 -0.5608
   10CHTO   C19 4130   5.576   9.047   5.012  0.2665  0.4805 -0.0719
   10CHTO   H47 4131   5.552   8.993   4.919 -0.8006 -0.6789  0.8664
   10CHTO   C20 4132   5.460   9.141   5.042  0.5926  0.3205 -0.3985
   10CHTO   H48 4133   5.468   9.184   5.143  0.3782 -0.9992  0.1872
   10CHTO   O19 4134   5.343   9.062   5.038 -0.4668  0.3023 -0.6807
   10CHTO   H35 4135   5.352   8.998   5.105 -1.1395  1.3784  0.4612
   10CHTO   C21 4136   5.451   9.245   4.928 -0.2459  0.3590  0.8447
   10CHTO   H49 4137   5.422   9.200   4.833 -1.6522  2.9160 -0.0033
   10CHTO    N4 4138   5.352   9.357   4.968  1.0192 -0.1264  0.0765
   10CHTO   H41 4139   5.310   9.407   4.882  2.4403  2.1057  0.6316
   10CHTO   H42 4140   5.391   9.429   5.038  2.1768 -1.8666  1.2573
   10CHTO   C22 4141   5.586   9.314   4.900 -0.3667  0.6987 -0.4412
   10CHTO   H50 4142   5.618   9.365   4.991  0.6640 -1.5325  0.4849
   10CHTO   O14 4143   5.680   9.209   4.876 -0.3141 -0.3354  0.3457
   10CHTO   C23 4144   5.709   9.122   4.986  0.2402  0.1047  0.3991
   10CHTO   H51 4145   5.730   9.191   5.069  0.4814 -0.6685  0.9790
   10CHTO   C34 4146   5.823   9.029   4.949 -0.0492 -1.4777  0.8222
   10CHTO   O23 4147   5.786   8.930   4.855  0.5057 -0.0371 -0.6795
   10CHTO   H38 4148   5.698   8.899   4.848  0.4557 -0.1916  0.5139
   10CHTO   O16 4149   5.583   9.390   4.780 -0.5991  0.5252 -0.6277
   10CHTO   C24 4150   5.726   9.473   4.749  0.9249  0.3624 -0.3473
   10CHTO   H52 4151   5.811   9.442   4.811  1.3021 -0.1438 -1.1043
   10CHTO   C26 4152   5.691   9.623   4.767 -0.0623 -0.0484 -0.4283
   10CHTO   H54 4153   5.596   9.639   4.712 -0.3572  0.5951  0.2527
   10CHTO   O20 4154   5.663   9.642   4.909 -0.2161 -1.4067  0.0151
   10CHTO   H36 4155   5.706   9.720   4.939 -0.2787 -1.6185  0.6479
   10CHTO   C30 4156   5.806   9.712   4.707 -0.1656 -0.3458 -0.2710
   10CHTO   H58 4157   5.899   9.698   4.765  0.3552  1.4133 -0.6659
   10CHTO    N6 4158   5.781   9.858   4.715  0.4232 -0.0135  0.0670
   10CHTO   H45 4159   5.678   9.885   4.695  0.4679  2.0051  2.3382
   10CHTO   H46 4160   5.799   9.888   4.817 -1.5068  1.0690  0.1187
   10CHTO   C33 4161   5.839   9.667   4.557 -1.0940 -0.4745  0.5011
   10CHTO   H61 4162   5.748   9.692   4.500 -0.9031  2.0409  1.2592
   10CHTO   O18 4163   5.866   9.525   4.551 -0.6152  0.2195  0.1725
   10CHTO   C28 4164   5.760   9.448   4.601  0.0652  0.1673 -0.0342
   10CHTO   H56 4165   5.673   9.471   4.539 -0.7626  1.0118  1.4354
   10CHTO   C35 4166   5.786   9.293   4.579 -0.2164  0.1772  0.1587
   10CHTO   O24 4167   5.896   9.249   4.656  0.3333 -0.2013  0.0332
   10CHTO   H39 4168   5.880   9.159   4.681 -5.9147  0.6357 -0.2376
   10CHTO    O9 4169   5.944   9.743   4.496  0.2599  0.7038  0.1183
   10CHTO   C13 4170   5.907   9.765   4.324 -0.3574  0.9478  0.6303
   10CHTO   H26 4171   5.797   9.757   4.307 -0.1479 -0.1504 -0.2278
   10CHTO   C11 4172   5.988   9.659   4.234  0.1186 -0.1608 -0.0250
   10CHTO   H24 4173   5.912   9.611   4.171 -0.4178 -1.9273  1.9111
   10CHTO    O8 4174   6.041   9.565   4.329  0.1414 -0.4210 -0.3969
   10CHTO    H3 4175   6.125   9.599   4.351  0.3592  0.3183 -2.2282
   10CHTO    C9 4176   6.099   9.730   4.148 -0.1022  0.0845 -0.4142
   10CHTO   H22 4177   6.045   9.790   4.073  0.3688 -1.0241 -1.6458
   10CHTO    N2 4178   6.174   9.637   4.068  0.2434  0.7541  0.0079
   10CHTO   H10 4179   6.244   9.597   4.140  1.4748  1.6622 -0.6676
   10CHTO   H11 4180   6.117   9.552   4.034  0.4932  0.9073 -0.7848
   10CHTO    C7 4181   6.181   9.827   4.236 -0.1748 -0.9095  0.5909
   10CHTO   H20 4182   6.243   9.887   4.166  0.5555 -0.5972  1.4807
   10CHTO    O4 4183   6.094   9.922   4.298  0.5462  0.0048  0.0246
   10CHTO   C14 4184   5.948   9.919   4.287 -0.0966 -0.2614  0.4360
   10CHTO   H27 4185   5.914   9.958   4.189  1.3124 -1.1461 -0.4170
   10CHTO   C18 4186   5.899  10.017   4.396  0.2077 -0.0115 -0.5067
   10CHTO   O13 4187   5.755  10.030   4.393  0.0364  0.5389 -0.2048
   10CHTO    H7 4188   5.738  10.122   4.399  1.0406  0.5972  1.9914
   10CHTO    O2 4189   6.275   9.753   4.346  0.5200  0.0243 -0.4189
   10CHTO    C1 4190   6.404   9.810   4.355 -0.4273  0.1759  0.6651
   10CHTO   H14 4191   6.416   9.900   4.291 -0.9554 -0.0969  0.1737
   10CHTO    C2 4192   6.516   9.716   4.313 -0.5856  0.6962 -0.1903
   10CHTO   H15 4193   6.515   9.630   4.381 -0.2515  1.2230  0.4947
   10CHTO    O6 4194   6.489   9.652   4.185 -0.2988 -0.2629 -0.1581
   10CHTO    H1 4195   6.417   9.591   4.179  1.6830 -2.8449  1.0898
   10CHTO    C3 4196   6.659   9.787   4.326  0.2372  0.7230 -0.3727
   10CHTO   H16 4197   6.663   9.879   4.265 -1.9544 -0.5814 -2.5878
   10CHTO    N1 4198   6.772   9.704   4.282 -0.1817 -0.3622  0.0264
   10CHTO    H8 4199   6.744   9.603   4.306 -0.1273 -0.6605 -1.1148
   10CHTO    H9 4200   6.782   9.716   4.175 -0.3155 -3.7579 -0.4021
   10CHTO    C4 4201   6.673   9.834   4.478 -0.7211 -0.1369 -0.4805
   10CHTO   H17 4202   6.682   9.743   4.537  2.3138 -0.2870 -1.1262
   10CHTO    O1 4203   6.560   9.919   4.510 -0.2020  0.8260 -0.1757
   10CHTO    C5 4204   6.433   9.852   4.497  0.3242 -0.6337 -0.5149
   10CHTO   H18 4205   6.415   9.767   4.563  1.8361  0.1194  0.9244
   10CHTO   C16 4206   6.340   9.962   4.554 -0.5116  0.5692  0.0869
   10CHTO   O11 4207   6.211   9.919   4.583  0.7399  0.5706 -0.0268
   10CHTO    H5 4208   6.168   9.977   4.643 -2.6529 -1.9025  0.0337
   10CHTO    O3 4209   6.786   9.921   4.499  0.2587 -0.1039  0.3105
   10CHTO    C6 4210   6.840   9.917   4.633  0.8232  1.0669 -0.6629
   10CHTO   H19 4211   6.770   9.891   4.713  2.6480 -1.2965  0.2235
   10CHTO    C8 4212   6.955   9.805   4.643  1.1381  0.2710  0.0828
   10CHTO   H21 4213   7.023   9.832   4.562  1.8982  1.0241  0.9528
   10CHTO    O7 4214   6.900   9.675   4.624 -0.0484 -0.5310  0.1616
   10CHTO    H2 4215   6.946   9.634   4.553  0.7793 -1.3728  1.1743
   10CHTO   C12 4216   7.031   9.815   4.784  0.3531  0.8261 -0.6721
   10CHTO   H25 4217   6.952   9.806   4.862  0.6292 -1.0095 -0.5832
   10CHTO    N3 4218   7.132   9.711   4.808 -0.3652  0.6020 -0.7185
   10CHTO   H12 4219   7.210   9.711   4.735 -0.6968  1.4526 -1.0853
   10CHTO   H13 4220   7.086   9.614   4.816  1.3109 -0.0414  1.5576
   10CHTO   C15 4221   7.093   9.962   4.795  0.2967 -0.1236 -0.4414
   10CHTO   H28 4222   7.164   9.972   4.713 -1.7491  0.8597 -2.1488
   10CHTO   O10 4223   7.155  10.006   4.929 -0.3735 -0.5838  0.2038
   10CHTO    H4 4224   7.089   9.999   4.994  1.0244 -3.3271  1.4087
   10CHTO    O5 4225   6.983  10.053   4.781  0.3496  0.4586 -0.3598
   10CHTO   C10 4226   6.901  10.053   4.662  0.6319 -0.2739 -0.0335
   10CHTO   H23 4227   6.964  10.091   4.581 -1.5687 -1.1617 -2.2434
   10CHTO   C17 4228   6.786  10.153   4.687 -1.5336 -0.6268  0.0170
   10CHTO   O12 4229   6.693  10.194   4.586  0.2956  0.7199 -0.6668
   10CHTO    H6 4230   6.610  10.212   4.625 -0.1795 -0.7306 -0.9628
   11CHTO  H203 4231   5.314   4.427   1.849 -0.2338  1.5062  1.1318
   11CHTO   O82 4232   5.390   4.463   1.808 -0.2819  0.1041 -0.2306
   11CHTO  C123 4233   5.404   4.606   1.820 -0.5323 -0.4958 -0.4512
   11CHTO  H227 4234   5.394   4.634   1.926  1.9482 -1.2624  0.0315
   11CHTO   O77 4235   5.542   4.628   1.787  0.2878  0.0184  0.3700
   11CHTO  C118 4236   5.582   4.765   1.764 -0.2363  0.1887 -0.0064
   11CHTO  H222 4237   5.574   4.818   1.860 -1.0983  0.1874 -0.0695
   11CHTO  C125 4238   5.731   4.768   1.718 -0.3581 -0.9979  0.3027
   11CHTO   O84 4239   5.810   4.736   1.834  0.2631  0.6228 -0.0765
   11CHTO  H205 4240   5.812   4.804   1.898 -1.1497 -0.5753  1.2562
   11CHTO  C114 4241   5.495   4.840   1.659  0.3326 -0.1629 -0.5365
   11CHTO  H218 4242   5.497   4.778   1.569 -0.5234 -0.6109 -0.2477
   11CHTO  C116 4243   5.349   4.832   1.709 -0.6542  0.6007 -0.1657
   11CHTO  H220 4244   5.346   4.896   1.799  0.4704  0.2452  0.1386
   11CHTO   O79 4245   5.266   4.911   1.620  0.0675 -0.3674  0.0183
   11CHTO  H201 4246   5.177   4.882   1.624 -0.1211  0.2611  0.5595
   11CHTO  C120 4247   5.306   4.679   1.725 -0.2082 -0.4019  0.2706
   11CHTO  H224 4248   5.312   4.634   1.624 -1.1881  1.5942 -0.7063
   11CHTO   N21 4249   5.171   4.678   1.784  0.0099  0.3645  0.1833
   11CHTO  H211 4250   5.088   4.675   1.715 -0.2431  0.9211  0.4634
   11CHTO  H212 4251   5.157   4.758   1.856 -1.8122 -0.1518  0.4468
   11CHTO   O75 4252   5.546   4.973   1.646  0.3950 -0.2549  0.0398
   11CHTO  C112 4253   5.529   5.079   1.782  0.1382  0.4571 -0.5374
   11CHTO  H216 4254   5.559   5.020   1.870  2.2848  0.9494 -0.8968
   11CHTO   O73 4255   5.401   5.130   1.796  0.6173 -0.7428  0.2078
   11CHTO  C113 4256   5.373   5.195   1.919  0.5452  0.1492  0.1545
   11CHTO  H217 4257   5.386   5.120   2.000  0.1872 -1.3532 -1.1506
   11CHTO  C124 4258   5.224   5.236   1.919  0.4507 -0.0974  0.6246
   11CHTO   O83 4259   5.129   5.133   1.898  0.3601 -0.1601 -0.0116
   11CHTO  H204 4260   5.099   5.092   1.977 -0.2667  0.7502  0.2409
   11CHTO  C109 4261   5.466   5.315   1.939 -0.1874  0.1177  0.2382
   11CHTO  H213 4262   5.423   5.400   1.884 -0.8184 -0.1380  0.3352
   11CHTO  C110 4263   5.615   5.288   1.895  0.3806  0.4779  0.4214
   11CHTO  H214 4264   5.680   5.251   1.974  0.7842  0.8793  0.2737
   11CHTO   O78 4265   5.678   5.416   1.867  0.3256  0.0068 -0.0295
   11CHTO  H200 4266   5.653   5.455   1.786  0.2709  1.5384  0.7104
   11CHTO  C111 4267   5.622   5.198   1.766 -0.1803  0.1600  0.6781
   11CHTO  H215 4268   5.576   5.251   1.682  2.0133 -0.0561 -0.6958
   11CHTO   N19 4269   5.762   5.158   1.733  0.0086  0.1557  0.0884
   11CHTO  H207 4270   5.799   5.133   1.831  0.5037 -0.9650 -0.3797
   11CHTO  H208 4271   5.760   5.060   1.689 -2.3876  1.2409 -2.3575
   11CHTO   O74 4272   5.460   5.344   2.086 -0.1309  0.1640 -0.4790
   11CHTO  C115 4273   5.524   5.509   2.134  0.0752  0.2999  0.5919
   11CHTO  H219 4274   5.629   5.520   2.107  0.2697  0.2640  1.3177
   11CHTO   O76 4275   5.438   5.631   2.060 -0.0777 -0.2178 -0.1597
   11CHTO  C122 4276   5.303   5.617   2.110  0.3668  0.4848  0.0093
   11CHTO  H226 4277   5.270   5.514   2.100  0.5322  0.4148  0.1998
   11CHTO  C126 4278   5.216   5.694   2.006  0.0617 -0.0721 -0.1740
   11CHTO   O85 4279   5.235   5.833   2.017 -0.2364  0.3331 -0.0679
   11CHTO  H206 4280   5.205   5.849   2.105 -2.0792  0.1668 -0.6387
   11CHTO  C121 4281   5.293   5.669   2.260  0.9767 -0.1505  0.7762
   11CHTO  H225 4282   5.265   5.775   2.274 -1.0383 -0.4426 -0.8350
   11CHTO   O81 4283   5.188   5.600   2.323  0.2148 -0.2777 -0.5493
   11CHTO  H202 4284   5.110   5.644   2.295  0.9627 -0.2845 -2.7164
   11CHTO  C119 4285   5.430   5.645   2.329  0.1700 -0.0267  0.2903
   11CHTO  H223 4286   5.492   5.724   2.287 -0.6926 -0.2564 -1.4963
   11CHTO  C117 4287   5.509   5.513   2.293 -0.4792  0.1528 -0.2927
   11CHTO  H221 4288   5.458   5.423   2.327  1.6265 -0.9827 -0.0612
   11CHTO   N20 4289   5.645   5.504   2.354 -0.2376  0.3418  0.0541
   11CHTO  H209 4290   5.624   5.474   2.455 -1.1654 -2.8354 -1.0367
   11CHTO  H210 4291   5.698   5.418   2.316  0.9813  1.7474 -1.5136
   11CHTO   O80 4292   5.429   5.678   2.479  0.1568  0.4618 -0.0248
   11CHTO  C103 4293   5.423   5.835   2.520 -0.3015  0.0841  0.6004
   11CHTO  H190 4294   5.458   5.893   2.434 -0.7091 -0.5276  0.0172
   11CHTO  C101 4295   5.286   5.894   2.561 -0.1903  0.0786 -0.0628
   11CHTO  H188 4296   5.246   5.844   2.650 -0.1136  0.6165  0.2789
   11CHTO   O68 4297   5.179   5.878   2.452  0.1826  0.2197  0.6341
   11CHTO  H168 4298   5.106   5.927   2.484 -2.3112 -2.2289 -1.0227
   11CHTO   C99 4299   5.307   6.048   2.597 -0.0079  0.1126 -0.2912
   11CHTO  H186 4300   5.347   6.095   2.505 -0.9783  1.1691 -0.1797
   11CHTO   N17 4301   5.185   6.128   2.631  0.0311 -0.3972  0.3419
   11CHTO  H174 4302   5.087   6.083   2.620 -0.5976  0.8399  0.6559
   11CHTO  H175 4303   5.203   6.181   2.724 -1.0503 -0.1742  0.4303
   11CHTO   C97 4304   5.420   6.059   2.708 -0.6022  0.2174 -1.1400
   11CHTO  H184 4305   5.374   6.022   2.800  0.3443  0.4791 -0.5556
   11CHTO   O64 4306   5.538   5.991   2.673  0.5142 -0.8235 -0.1163
   11CHTO  C104 4307   5.526   5.854   2.639 -0.1590 -0.1129 -0.0313
   11CHTO  H191 4308   5.497   5.788   2.721 -0.4621  0.0181 -0.0320
   11CHTO  C108 4309   5.666   5.803   2.595  0.3074  0.2898 -0.5139
   11CHTO   O71 4310   5.768   5.806   2.696 -0.1461  0.9679 -0.4436
   11CHTO  H171 4311   5.839   5.762   2.653 -1.5952 -0.8073 -1.1340
   11CHTO   O62 4312   5.469   6.197   2.720  0.3726 -0.0460  0.1397
   11CHTO   C91 4313   5.486   6.254   2.857  0.6550 -0.5692  0.0385
   11CHTO  H178 4314   5.382   6.275   2.882  0.5134 -1.3538  0.1321
   11CHTO   C92 4315   5.569   6.384   2.848 -0.5415  0.6780  0.0532
   11CHTO  H179 4316   5.541   6.441   2.758 -0.5483  0.4736 -0.0747
   11CHTO   O66 4317   5.530   6.463   2.963  0.1264  0.0613 -0.0673
   11CHTO  H166 4318   5.437   6.463   2.978  0.4734  1.4812  2.2964
   11CHTO   C93 4319   5.726   6.352   2.841 -0.4611 -0.1934 -0.1473
   11CHTO  H180 4320   5.772   6.448   2.870  1.0007 -1.5339  2.1355
   11CHTO   N16 4321   5.775   6.313   2.706 -0.1846 -0.5834  0.0761
   11CHTO  H172 4322   5.865   6.370   2.689 -0.4229  0.4031  2.0131
   11CHTO  H173 4323   5.698   6.324   2.632 -0.0098 -1.9135 -0.3132
   11CHTO   C94 4324   5.766   6.248   2.958 -0.8745 -0.0070 -0.3156
   11CHTO  H181 4325   5.794   6.151   2.915 -2.8938 -0.0254 -1.6909
   11CHTO   O61 4326   5.656   6.221   3.046  0.3072  0.4388 -0.0973
   11CHTO   C95 4327   5.544   6.168   2.978  0.9191 -0.0108  0.2114
   11CHTO  H182 4328   5.573   6.072   2.934  0.0117  0.0674 -0.5579
   11CHTO  C106 4329   5.430   6.126   3.078 -0.1399 -0.5744 -0.7088
   11CHTO   O69 4330   5.476   6.036   3.185  0.4816 -0.5732  0.0686
   11CHTO  H169 4331   5.464   6.081   3.266 -0.3371 -1.4592  0.4536
   11CHTO   O63 4332   5.899   6.310   3.043 -0.3486  0.0952 -0.0605
   11CHTO   C96 4333   6.037   6.258   3.009  0.3946 -0.0094  0.0293
   11CHTO  H183 4334   6.055   6.269   2.902  1.4752 -0.5691  0.1414
   11CHTO   C98 4335   6.060   6.112   3.051  0.2423 -0.3925 -0.8263
   11CHTO  H185 4336   6.004   6.090   3.144  0.8310 -0.1318 -0.4108
   11CHTO   O67 4337   6.007   6.017   2.960 -0.4116  0.0481  0.6285
   11CHTO  H167 4338   6.031   6.038   2.872  0.6201 -0.7348  0.7026
   11CHTO  C102 4339   6.223   6.085   3.075  0.2044 -0.0175  0.3444
   11CHTO  H189 4340   6.269   6.099   2.977  0.6359  0.0928  0.5612
   11CHTO   N18 4341   6.264   5.947   3.115  0.7324 -0.2022  0.2274
   11CHTO  H176 4342   6.186   5.914   3.183 -0.6707 -0.4381 -1.4776
   11CHTO  H177 4343   6.248   5.886   3.028  0.4077 -0.2521  0.3192
   11CHTO  C105 4344   6.278   6.192   3.169 -0.2219 -0.0573 -0.1216
   11CHTO  H192 4345   6.226   6.185   3.264  1.5513 -0.8679  0.8179
   11CHTO   O65 4346   6.263   6.312   3.099 -0.3658  0.4337  0.2542
   11CHTO  C100 4347   6.129   6.360   3.085 -0.3542  0.7132  0.6487
   11CHTO  H187 4348   6.082   6.372   3.184 -0.2487  0.0110  0.7814
   11CHTO  C107 4349   6.144   6.491   3.009  0.2126 -0.4015 -0.0099
   11CHTO   O70 4350   6.181   6.593   3.108  0.3819 -0.6015 -0.0388
   11CHTO  H170 4351   6.184   6.679   3.071  2.1948  0.5120  2.5545
   11CHTO   O57 4352   6.434   6.186   3.190  0.1337  0.2767  0.1226
   11CHTO   C85 4353   6.497   6.221   3.317 -0.0848  1.3475  0.2399
   11CHTO  H157 4354   6.415   6.242   3.389 -0.1150  2.6141 -0.1589
   11CHTO   C83 4355   6.573   6.361   3.301  0.3998  0.5981  0.3081
   11CHTO  H155 4356   6.494   6.434   3.287 -0.4684 -0.3869 -0.0524
   11CHTO   O56 4357   6.649   6.354   3.178  0.6350  0.4640  0.1083
   11CHTO  H135 4358   6.590   6.371   3.107  0.6187 -2.7059 -0.7124
   11CHTO   C81 4359   6.650   6.399   3.429 -0.3373 -0.4127  0.1733
   11CHTO  H153 4360   6.578   6.401   3.511  0.7183 -2.4433  1.2096
   11CHTO   N14 4361   6.707   6.535   3.437  0.5053 -0.5125  0.5586
   11CHTO  H141 4362   6.625   6.601   3.456  0.6406 -0.7804  2.1519
   11CHTO  H142 4363   6.761   6.568   3.351 -1.2607  1.5810  0.1929
   11CHTO   C79 4364   6.759   6.289   3.449 -0.6660 -0.0502  0.0730
   11CHTO  H151 4365   6.821   6.317   3.534  1.6571 -1.3519 -1.1219
   11CHTO   O52 4366   6.680   6.168   3.486  0.0419 -0.3538  0.2444
   11CHTO   C86 4367   6.602   6.116   3.379 -0.0507 -0.0885 -0.1983
   11CHTO  H158 4368   6.680   6.088   3.305  0.6907  1.9105 -0.2014
   11CHTO   C90 4369   6.536   5.983   3.432  0.3986 -0.1664  0.5161
   11CHTO   O60 4370   6.642   5.891   3.475 -0.1672  0.8080  0.0838
   11CHTO  H138 4371   6.719   5.903   3.422 -0.1282 -1.1542 -0.3483
   11CHTO   O50 4372   6.843   6.257   3.336 -0.0842 -0.4414  0.4362
   11CHTO   C73 4373   6.986   6.244   3.321 -0.1342  0.5143 -0.2056
   11CHTO  H145 4374   7.028   6.241   3.422 -1.9431  0.5656  0.5501
   11CHTO   C74 4375   7.049   6.362   3.239  0.4911  0.2164  0.3768
   11CHTO  H146 4376   7.025   6.452   3.299  1.8958 -0.7991  2.5225
   11CHTO   O54 4377   7.196   6.342   3.241  0.5675  0.0846 -0.4483
   11CHTO  H133 4378   7.223   6.286   3.171  0.6072  0.4900 -0.7651
   11CHTO   C75 4379   6.986   6.360   3.091 -0.6788 -0.5262  0.0374
   11CHTO  H147 4380   6.880   6.388   3.101 -0.5594  0.3580 -1.1892
   11CHTO   N13 4381   7.040   6.457   2.991 -0.0348  0.1692 -0.1672
   11CHTO  H139 4382   7.105   6.532   3.035 -1.3153  1.2687 -0.1027
   11CHTO  H140 4383   7.072   6.411   2.899 -0.1009 -1.2336  0.5072
   11CHTO   C76 4384   7.005   6.215   3.034 -0.2976  0.8583 -0.2084
   11CHTO  H148 4385   7.112   6.201   3.022 -0.3914  0.3628 -0.4888
   11CHTO   O49 4386   6.952   6.116   3.122  0.0201 -0.6687 -0.3336
   11CHTO   C77 4387   7.030   6.109   3.247  0.7698 -0.3842  0.3258
   11CHTO  H149 4388   7.136   6.109   3.221  0.5977 -0.2699 -0.3940
   11CHTO   C88 4389   6.997   5.991   3.342  0.5396  0.4038 -0.1514
   11CHTO   O58 4390   6.959   5.855   3.269  0.1199 -0.3889 -0.1131
   11CHTO  H136 4391   6.867   5.856   3.246 -0.1290 -1.9198  0.8219
   11CHTO   O51 4392   6.914   6.192   2.895  0.2892  0.2134  0.5401
   11CHTO   C78 4393   6.950   6.046   2.824 -0.2811  0.2587 -0.2492
   11CHTO  H150 4394   6.890   6.035   2.731 -1.1753 -3.0216  0.6610
   11CHTO   C80 4395   6.935   5.916   2.910  0.5739 -0.1908 -0.8627
   11CHTO  H152 4396   7.009   5.908   2.992 -2.2771  1.1244  1.9593
   11CHTO   O55 4397   6.803   5.917   2.950  0.5267  0.3538  0.4349
   11CHTO  H134 4398   6.795   5.852   3.017  0.3860 -0.6409 -0.5303
   11CHTO   C84 4399   6.954   5.783   2.819  0.1054  0.1762  0.4559
   11CHTO  H156 4400   6.873   5.774   2.746  2.3298 -0.8184 -2.0029
   11CHTO   N15 4401   6.932   5.656   2.892  0.2998 -0.3003  0.4208
   11CHTO  H143 4402   6.867   5.671   2.976 -0.2566 -2.1883  0.3424
   11CHTO  H144 4403   7.026   5.624   2.931  0.7781 -0.1486 -0.5997
   11CHTO   C87 4404   7.095   5.785   2.748  0.4251  0.7487 -0.0706
   11CHTO  H159 4405   7.177   5.756   2.814 -1.2300 -0.3662  1.5424
   11CHTO   O53 4406   7.130   5.929   2.687 -0.2773  0.4198 -0.1782
   11CHTO   C82 4407   7.098   6.047   2.768  0.1606  0.3481 -0.5774
   11CHTO  H154 4408   7.164   6.054   2.855 -0.8302  2.9720  0.0367
   11CHTO   C89 4409   7.128   6.180   2.685 -0.1844 -0.1672  0.0477
   11CHTO   O59 4410   7.262   6.188   2.647 -1.0434  0.0799 -0.1680
   11CHTO  H137 4411   7.281   6.134   2.572  0.3532  0.2230  0.0687
   11CHTO   O45 4412   7.088   5.675   2.629  0.6650 -0.3764  0.2405
   11CHTO   C67 4413   7.029   5.725   2.508 -0.1239 -0.0601  0.0842
   11CHTO  H124 4414   6.980   5.822   2.519  1.9605  1.2586 -1.8799
   11CHTO   C65 4415   7.152   5.748   2.405 -0.4366  0.1031 -0.7688
   11CHTO  H122 4416   7.234   5.685   2.440  0.0283  0.9750 -0.2663
   11CHTO   O44 4417   7.190   5.893   2.409 -0.3529 -0.1620 -0.3029
   11CHTO  H102 4418   7.103   5.930   2.407 -0.5020 -0.3460  1.7221
   11CHTO   C63 4419   7.122   5.681   2.265  0.0306  0.5727 -0.0308
   11CHTO  H120 4420   7.122   5.572   2.270 -0.8920  0.5639 -0.0364
   11CHTO   N11 4421   7.220   5.712   2.156 -0.2477  0.6790 -0.3611
   11CHTO  H108 4422   7.173   5.743   2.065 -0.1881  0.8827 -0.3219
   11CHTO  H109 4423   7.285   5.629   2.133  0.5314  0.3204  2.8631
   11CHTO   C61 4424   6.978   5.722   2.230  0.2968  0.6372 -0.1536
   11CHTO  H118 4425   6.959   5.688   2.127 -2.2685 -0.8158  0.7640
   11CHTO   O40 4426   6.874   5.666   2.318  0.3500 -0.1208 -0.4619
   11CHTO   C68 4427   6.927   5.620   2.445  0.3320  0.5722  0.8631
   11CHTO  H125 4428   6.977   5.524   2.423  1.3672  1.8730 -2.8011
   11CHTO   C72 4429   6.816   5.588   2.540  0.5735 -0.3786 -0.1667
   11CHTO   O48 4430   6.731   5.485   2.506 -0.2383 -0.1304  0.3321
   11CHTO  H105 4431   6.712   5.430   2.578  0.1572  0.9016  1.2455
   11CHTO   O38 4432   6.961   5.864   2.241  0.0104  0.0389  0.6906
   11CHTO   C55 4433   6.864   5.941   2.169  0.1063  0.9676  0.0218
   11CHTO  H112 4434   6.801   5.868   2.117 -0.7027  1.5062  0.2492
   11CHTO   C56 4435   6.945   6.031   2.067 -0.2227 -0.1093  0.0897
   11CHTO  H113 4436   7.032   6.067   2.124 -2.2456  0.2209  3.0716
   11CHTO   O42 4437   6.987   5.940   1.969  0.6804  0.5042 -0.2718
   11CHTO  H100 4438   6.928   5.927   1.896  0.6538  0.2775 -0.2108
   11CHTO   C57 4439   6.865   6.158   2.017  0.2329 -0.0691  0.0992
   11CHTO  H114 4440   6.805   6.120   1.935 -1.1619  0.4198  0.8605
   11CHTO   N10 4441   6.950   6.265   1.956 -0.7475  0.4456  0.0476
   11CHTO  H106 4442   6.907   6.319   1.873  1.2382  0.9407 -0.7007
   11CHTO  H107 4443   7.044   6.228   1.918 -1.1347 -0.1783 -0.3070
   11CHTO   C58 4444   6.768   6.223   2.124 -0.0069  0.4977 -0.2001
   11CHTO  H115 4445   6.832   6.269   2.202  0.9098  0.9838 -1.2128
   11CHTO   O37 4446   6.692   6.121   2.189  0.3663  0.2421 -0.1561
   11CHTO   C59 4447   6.773   6.030   2.262 -0.6906  0.5953 -0.0628
   11CHTO  H116 4448   6.836   6.084   2.333  0.7137 -0.0401 -0.8190
   11CHTO   C70 4449   6.693   5.929   2.342 -0.0977  0.0135  0.5277
   11CHTO   O46 4450   6.610   5.999   2.427 -0.3990 -0.2531 -0.3591
   11CHTO  H103 4451   6.568   5.945   2.491 -0.6220  1.0235  0.6190
   11CHTO   O39 4452   6.655   6.338   2.057  0.0641  0.0721 -0.1324
   11CHTO   C60 4453   6.561   6.272   1.971 -0.2336  0.4851  0.0457
   11CHTO  H117 4454   6.615   6.186   1.930  1.6076  1.7750 -0.2809
   11CHTO   C62 4455   6.428   6.240   2.047  0.0550 -0.0834  0.1905
   11CHTO  H119 4456   6.449   6.167   2.127  0.0360 -0.6343 -0.3096
   11CHTO   O43 4457   6.367   6.361   2.100  0.1556  0.2375 -0.5619
   11CHTO  H101 4458   6.287   6.339   2.142  0.3130 -0.2162 -0.4993
   11CHTO   C66 4459   6.335   6.155   1.952 -0.8111 -0.1080 -0.3096
   11CHTO  H123 4460   6.388   6.066   1.920 -0.5880 -0.1032  0.0364
   11CHTO   N12 4461   6.214   6.105   2.020  0.1229  0.6667 -0.7772
   11CHTO  H110 4462   6.131   6.128   1.956 -1.6291 -0.4828  1.0203
   11CHTO  H111 4463   6.223   5.999   2.042  1.0362  0.8970 -0.0342
   11CHTO   C69 4464   6.298   6.233   1.825  0.1674  0.1108 -0.4424
   11CHTO  H126 4465   6.233   6.321   1.846  3.2167  2.5137 -0.7331
   11CHTO   O41 4466   6.419   6.276   1.752 -0.1810  0.7008 -0.0071
   11CHTO   C64 4467   6.523   6.361   1.847  0.0625  0.5230 -0.7429
   11CHTO  H121 4468   6.462   6.449   1.880  0.2571  1.0005 -1.6287
   11CHTO   C71 4469   6.652   6.399   1.777  0.5281 -0.5982 -0.7810
   11CHTO   O47 4470   6.636   6.482   1.659  0.7836  0.1302 -0.2340
   11CHTO  H104 4471   6.716   6.525   1.638  1.1178 -1.2037 -1.7960
   11CHTO   O34 4472   6.211   6.153   1.723 -0.4197 -0.3416 -0.5368
   11CHTO   C49 4473   6.160   6.017   1.669 -0.0504 -0.6380 -0.1659
   11CHTO   H91 4474   6.083   5.992   1.742  1.3894  0.6880  1.8853
   11CHTO   C47 4475   6.275   5.916   1.681  0.2178 -0.3826  0.3502
   11CHTO   H89 4476   6.269   5.870   1.781  1.0519  0.7981  0.9523
   11CHTO   O33 4477   6.402   5.982   1.669  0.1998 -0.7674  0.0647
   11CHTO   H70 4478   6.436   6.016   1.750  1.6905 -1.4886 -0.2564
   11CHTO   C45 4479   6.265   5.801   1.563  0.0538  0.0957 -0.1242
   11CHTO   H87 4480   6.310   5.826   1.466 -1.2560 -0.3634 -0.8807
   11CHTO    N8 4481   6.337   5.679   1.605  0.1192  0.0489  0.3102
   11CHTO   H75 4482   6.296   5.639   1.697  1.7649  2.3038  2.1035
   11CHTO   H76 4483   6.441   5.708   1.603 -0.7493  3.3395 -0.9981
   11CHTO   C43 4484   6.112   5.774   1.520  0.7113 -0.0310 -0.7108
   11CHTO   H85 4485   6.111   5.692   1.448  2.3804 -1.4202  0.8008
   11CHTO   O29 4486   6.059   5.897   1.467 -0.3111  0.1323 -0.2616
   11CHTO   C50 4487   6.111   6.022   1.525  0.1631  0.1546 -0.1973
   11CHTO   H92 4488   6.203   6.049   1.470  0.6471  0.0597  0.5545
   11CHTO   C54 4489   6.004   6.131   1.498 -0.5422  0.4326 -1.6248
   11CHTO   O36 4490   6.010   6.160   1.359 -0.1392 -0.7514  0.9259
   11CHTO   H72 4491   5.953   6.105   1.308 -0.4017  0.7662 -0.4468
   11CHTO   O27 4492   6.020   5.740   1.628  0.1121 -0.4346 -0.1287
   11CHTO   C37 4493   5.888   5.702   1.663  0.3163 -0.0621 -0.0460
   11CHTO   H79 4494   5.894   5.621   1.737 -0.2540 -0.4372 -0.4028
   11CHTO   C38 4495   5.819   5.817   1.728 -0.2893 -0.8175 -0.3185
   11CHTO   H80 4496   5.815   5.898   1.654  0.5984  0.1733  0.6950
   11CHTO   O31 4497   5.896   5.863   1.841  0.2716  0.0053 -0.1168
   11CHTO   H68 4498   5.911   5.794   1.902 -0.6859 -0.4085 -0.3221
   11CHTO   C39 4499   5.672   5.775   1.778  0.7094  0.0399 -0.1799
   11CHTO   H81 4500   5.692   5.685   1.836 -1.2613  0.1853  0.7700
   11CHTO    N7 4501   5.604   5.883   1.850 -0.1022 -0.3468 -0.2972
   11CHTO   H73 4502   5.539   5.926   1.776  0.3728  1.2552  0.2043
   11CHTO   H74 4503   5.539   5.848   1.929  0.5796 -0.5322  0.1890
   11CHTO   C40 4504   5.596   5.721   1.658  0.1453  0.2244 -0.2145
   11CHTO   H82 4505   5.554   5.798   1.593 -0.4792 -1.2957 -1.6458
   11CHTO   O26 4506   5.671   5.624   1.579 -0.4679 -0.3417  0.0216
   11CHTO   C41 4507   5.810   5.653   1.536  0.5690  0.6388 -0.3568
   11CHTO   H83 4508   5.823   5.725   1.454  0.6545  1.3877  0.3125
   11CHTO   C52 4509   5.862   5.519   1.478 -0.1677  0.0139 -0.1054
   11CHTO   O35 4510   5.802   5.475   1.355  0.3262  0.5745  0.4466
   11CHTO   H71 4511   5.819   5.385   1.334 -1.2610  0.2072  0.6745
   11CHTO   O28 4512   5.479   5.642   1.689  0.6567  0.4416  0.3601
   11CHTO   C42 4513   5.361   5.641   1.598 -0.4404 -0.2100 -0.0345
   11CHTO   H84 4514   5.400   5.677   1.503  1.6076 -0.0397  0.8287
   11CHTO   C44 4515   5.259   5.746   1.642 -0.1370 -0.6048 -0.3500
   11CHTO   H86 4516   5.264   5.753   1.751 -0.6431  0.7475 -0.4110
   11CHTO   O32 4517   5.301   5.878   1.602  0.0285  0.2569 -0.2153
   11CHTO   H69 4518   5.270   5.939   1.665 -2.1801 -0.7416 -0.2733
   11CHTO   C48 4519   5.117   5.719   1.585  0.2330 -0.0858  0.0708
   11CHTO   H90 4520   5.118   5.745   1.479 -0.6211 -1.7445 -0.3574
   11CHTO    N9 4521   5.020   5.806   1.655  0.2378 -0.1854  0.1940
   11CHTO   H77 4522   5.027   5.905   1.614  0.2469  0.0030  0.6399
   11CHTO   H78 4523   4.919   5.769   1.646  0.8737 -1.7626 -0.7863
   11CHTO   C51 4524   5.088   5.561   1.592 -0.2897  0.0682 -0.3251
   11CHTO   H93 4525   5.100   5.538   1.698  0.1901 -0.6925 -0.5393
   11CHTO   O30 4526   5.185   5.491   1.516  0.4932  0.1401 -0.3563
   11CHTO   C46 4527   5.311   5.496   1.577  0.8973  0.2644  0.5031
   11CHTO   H88 4528   5.294   5.459   1.678  0.7963  1.1120  0.8051
   11CHTO   C53 4529   5.404   5.402   1.504 -0.5350 -0.1721  0.2463
   11CHTO   O72 4530   5.483   5.442   1.389 -0.0964  0.2355 -0.2936
   11CHTO  H199 4531   5.552   5.500   1.411  1.2759 -0.8758 -1.5405
   11CHTO   O22 4532   4.953   5.532   1.551  0.3727  0.1214  0.5638
   11CHTO   C31 4533   4.872   5.442   1.623  0.4104  0.1976  0.4981
   11CHTO   H59 4534   4.914   5.424   1.724 -1.6760 -2.5703  0.9457
   11CHTO   C29 4535   4.725   5.496   1.647 -0.7270 -0.5296  0.3424
   11CHTO   H57 4536   4.681   5.504   1.546 -0.9547  0.1987  0.4985
   11CHTO   O21 4537   4.731   5.632   1.702  0.0728  0.3274 -0.1578
   11CHTO   H37 4538   4.747   5.695   1.635 -0.0353  0.0478 -0.4472
   11CHTO   C27 4539   4.649   5.394   1.736 -0.3708 -0.1466 -0.0874
   11CHTO   H55 4540   4.699   5.388   1.834 -2.5360 -0.5988  1.0077
   11CHTO    N5 4541   4.507   5.421   1.765  0.9787  0.1043  0.2502
   11CHTO   H43 4542   4.501   5.479   1.857  0.9074  0.4088  0.0546
   11CHTO   H44 4543   4.468   5.488   1.689  1.9892 -0.8345 -1.1015
   11CHTO   C25 4544   4.659   5.247   1.687 -0.5835  0.6997 -1.0825
   11CHTO   H53 4545   4.590   5.243   1.601  0.1610 -0.4007 -1.6377
   11CHTO   O17 4546   4.796   5.214   1.639 -0.1001 -0.3519 -0.2816
   11CHTO   C32 4547   4.862   5.302   1.555  0.1388  0.1961  0.6001
   11CHTO   H60 4548   4.813   5.318   1.459  2.2564  0.2651 -0.4904
   11CHTO   C36 4549   5.004   5.236   1.543 -0.0499 -0.2718  0.1909
   11CHTO   O25 4550   5.032   5.193   1.409  0.4050  0.4842  0.0357
   11CHTO   H40 4551   4.965   5.140   1.370  0.1911  0.6891  0.1255
   11CHTO   O15 4552   4.612   5.147   1.793  0.1882 -0.1233 -0.3766
   11CHTO   C19 4553   4.595   5.006   1.802  0.1120  0.3139 -0.3116
   11CHTO   H47 4554   4.557   4.981   1.702  1.7036 -2.5000 -0.2363
   11CHTO   C20 4555   4.728   4.919   1.828 -0.5142 -0.2353 -0.9628
   11CHTO   H48 4556   4.775   4.945   1.925  0.3985 -1.1124 -1.1610
   11CHTO   O19 4557   4.824   4.956   1.727  0.1484 -0.1660 -0.0438
   11CHTO   H35 4558   4.901   4.903   1.728 -1.6119 -2.8933 -1.0928
   11CHTO   C21 4559   4.695   4.766   1.831  0.2519  0.3152  0.4093
   11CHTO   H49 4560   4.667   4.732   1.731  1.3226  1.0541 -0.1501
   11CHTO    N4 4561   4.819   4.689   1.858 -0.1835 -0.3860  0.1297
   11CHTO   H41 4562   4.845   4.612   1.787  0.9983 -2.2202  2.4545
   11CHTO   H42 4563   4.904   4.754   1.874 -1.4801  1.1885  0.8216
   11CHTO   C22 4564   4.591   4.751   1.943  0.7397  0.1715 -0.1340
   11CHTO   H50 4565   4.633   4.795   2.034 -2.0965  0.8400  0.9028
   11CHTO   O14 4566   4.474   4.822   1.901  0.1797  0.5060  0.1524
   11CHTO   C23 4567   4.486   4.963   1.899 -0.3949 -0.5077 -0.3607
   11CHTO   H51 4568   4.509   4.997   2.001  3.5331  0.3438 -1.4612
   11CHTO   C34 4569   4.357   5.028   1.860 -0.1611 -0.1459  0.6675
   11CHTO   O23 4570   4.246   4.978   1.929  0.3792  0.5029  0.4476
   11CHTO   H38 4571   4.215   5.046   1.984 -2.3647 -2.0130  2.1289
   11CHTO   O16 4572   4.557   4.620   1.976  0.0063 -0.1405 -0.0263
   11CHTO   C24 4573   4.477   4.583   2.103 -0.7300 -0.2486 -0.5349
   11CHTO   H52 4574   4.418   4.665   2.142  2.2329  1.5649  0.2767
   11CHTO   C26 4575   4.573   4.521   2.203 -0.1335  0.7462  0.4823
   11CHTO   H54 4576   4.629   4.444   2.147 -0.3101  1.2841 -0.4548
   11CHTO   O20 4577   4.674   4.616   2.237  0.0483 -0.0343 -0.5983
   11CHTO   H36 4578   4.733   4.628   2.166  0.1481 -1.9639 -0.8718
   11CHTO   C30 4579   4.500   4.466   2.325  0.3061  0.5864  0.1125
   11CHTO   H58 4580   4.463   4.551   2.383 -1.4827 -1.2673  1.7804
   11CHTO    N6 4581   4.597   4.383   2.408 -0.6856  0.2728  0.1385
   11CHTO   H45 4582   4.593   4.278   2.383  0.4581 -0.2026  1.9093
   11CHTO   H46 4583   4.570   4.393   2.512  1.9081 -0.8372  0.9619
   11CHTO   C33 4584   4.375   4.379   2.284 -0.0585 -0.2303 -0.2359
   11CHTO   H61 4585   4.409   4.278   2.256  0.4726 -0.5573  1.5133
   11CHTO   O18 4586   4.297   4.435   2.170  0.1268 -0.3494  0.0385
   11CHTO   C28 4587   4.379   4.472   2.060  0.6625  0.0333  0.0843
   11CHTO   H56 4588   4.430   4.385   2.020 -0.0671  0.7421 -2.5272
   11CHTO   C35 4589   4.290   4.520   1.943 -0.5835  0.7210 -0.1278
   11CHTO   O24 4590   4.190   4.613   1.982 -0.2279  0.6453 -0.5216
   11CHTO   H39 4591   4.107   4.570   1.993  0.1932 -0.3101 -1.0254
   11CHTO    O9 4592   4.290   4.360   2.394  0.1129  0.8923  0.3755
   11CHTO   C13 4593   4.228   4.220   2.431 -0.0786  0.2428 -0.3750
   11CHTO   H26 4594   4.301   4.173   2.499 -2.2842 -1.1473  1.0966
   11CHTO   C11 4595   4.203   4.126   2.302 -0.6803  0.2289  0.0461
   11CHTO   H24 4596   4.303   4.081   2.290 -0.9960 -0.4139 -0.2410
   11CHTO    O8 4597   4.169   4.200   2.182  0.2298  0.1664 -0.0227
   11CHTO    H3 4598   4.216   4.166   2.108  0.1483  2.0866 -0.9893
   11CHTO    C9 4599   4.098   4.021   2.352 -0.3676  0.7381  1.0588
   11CHTO   H22 4600   4.131   3.982   2.450 -1.8178 -1.0597  0.8593
   11CHTO    N2 4601   4.085   3.903   2.268 -0.0724 -0.2886 -0.2224
   11CHTO   H10 4602   4.004   3.898   2.196 -0.1623  0.8887 -0.2197
   11CHTO   H11 4603   4.107   3.813   2.323 -1.0012  0.5320  1.5508
   11CHTO    C7 4604   3.965   4.096   2.377  0.2369  0.3789  0.7140
   11CHTO   H20 4605   3.903   4.023   2.434  1.5743  0.2330  1.9972
   11CHTO    O4 4606   3.983   4.215   2.455  0.1291 -0.1654 -0.4689
   11CHTO   C14 4607   4.103   4.236   2.526 -0.4925 -0.0657 -0.5538
   11CHTO   H27 4608   4.099   4.162   2.609 -1.7430  0.6310  0.0252
   11CHTO   C18 4609   4.099   4.375   2.594  0.2748 -0.2453  0.2736
   11CHTO   O13 4610   4.215   4.381   2.671  0.4991 -0.5766 -0.2074
   11CHTO    H7 4611   4.277   4.442   2.636  0.1818 -0.0036  0.2256
   11CHTO    O2 4612   3.879   4.134   2.247 -0.1739 -0.0073  0.3688
   11CHTO    C1 4613   3.752   4.183   2.284 -0.3903 -0.3656 -0.1573
   11CHTO   H14 4614   3.734   4.195   2.393 -0.2790  0.9784 -0.2913
   11CHTO    C2 4615   3.628   4.095   2.234  0.4573 -0.0579 -0.4727
   11CHTO   H15 4616   3.631   4.083   2.124 -0.1771 -0.8675 -0.4124
   11CHTO    O6 4617   3.634   3.961   2.300  0.0075 -0.1249  0.0272
   11CHTO    H1 4618   3.703   3.908   2.265  0.2166 -0.9145  1.5797
   11CHTO    C3 4619   3.487   4.163   2.273  0.1291  0.2145 -0.0410
   11CHTO   H16 4620   3.482   4.168   2.383 -0.7049 -0.4049 -0.0463
   11CHTO    N1 4621   3.365   4.090   2.230 -0.0313 -0.0600  0.3558
   11CHTO    H8 4622   3.375   3.983   2.231  1.0412 -0.0155 -1.8504
   11CHTO    H9 4623   3.340   4.127   2.132 -0.8768 -1.5322  0.0128
   11CHTO    C4 4624   3.484   4.313   2.218 -1.0549 -0.5759  0.7001
   11CHTO   H17 4625   3.452   4.310   2.114 -1.4747 -1.4021  0.8495
   11CHTO    O1 4626   3.608   4.379   2.245  0.3432 -0.9901 -0.0032
   11CHTO    C5 4627   3.733   4.319   2.221 -0.3821  0.1070 -0.6129
   11CHTO   H18 4628   3.757   4.317   2.114  1.5040  1.9527 -0.2588
   11CHTO   C16 4629   3.816   4.428   2.284 -0.0959 -0.5215  0.3337
   11CHTO   O11 4630   3.957   4.431   2.250 -0.1116 -0.2647 -0.3605
   11CHTO    H5 4631   3.966   4.464   2.163 -1.2995  0.4773 -0.2091
   11CHTO    O3 4632   3.387   4.400   2.286  0.3211  0.1014 -0.1453
   11CHTO    C6 4633   3.289   4.475   2.210  0.9079  0.3276 -0.5463
   11CHTO   H19 4634   3.279   4.440   2.107 -0.0018  1.2494 -0.7770
   11CHTO    C8 4635   3.154   4.446   2.283 -0.1257  0.2400 -0.4363
   11CHTO   H21 4636   3.166   4.478   2.386  1.2646  0.5983 -0.6912
   11CHTO    O7 4637   3.129   4.306   2.279  0.2857  0.3954 -0.2910
   11CHTO    H2 4638   3.049   4.291   2.326  0.0465  2.7991  0.1517
   11CHTO   C12 4639   3.035   4.526   2.209 -0.4492  0.0007  0.0814
   11CHTO   H25 4640   3.027   4.484   2.107 -1.4646 -2.5877  1.1776
   11CHTO    N3 4641   2.902   4.505   2.271  1.1852 -0.1667 -0.5577
   11CHTO   H12 4642   2.836   4.450   2.206  3.4409  0.2179 -3.2858
   11CHTO   H13 4643   2.915   4.471   2.373  0.1729  1.0436 -0.0015
   11CHTO   C15 4644   3.071   4.682   2.205  0.3668  0.5751 -0.2421
   11CHTO   H28 4645   3.091   4.726   2.303 -0.0506  0.3559 -0.0617
   11CHTO   O10 4646   2.990   4.769   2.113 -0.6610 -0.3147  0.3916
   11CHTO    H4 4647   2.923   4.813   2.162  0.1427  1.4176 -0.0068
   11CHTO    O5 4648   3.199   4.698   2.143  0.1420  0.2446  0.4345
   11CHTO   C10 4649   3.316   4.632   2.199 -0.1195  0.1091 -0.1260
   11CHTO   H23 4650   3.330   4.670   2.301 -1.5915 -1.9463  0.8785
   11CHTO   C17 4651   3.433   4.659   2.111 -0.0402 -0.1788  0.3468
   11CHTO   O12 4652   3.444   4.802   2.082 -0.6317  0.7047  0.0673
   11CHTO    H6 4653   3.532   4.835   2.083 -0.3692  0.0589  2.5804
   12CHTO  H203 4654   4.652   0.451   2.871 -0.8629 -0.3312  0.8240
   12CHTO   O82 4655   4.633   0.475   2.782 -0.1847 -0.1258  0.7297
   12CHTO  C123 4656   4.663   0.374   2.691  1.2141  0.7432  0.3333
   12CHTO  H227 4657   4.644   0.276   2.737  1.7344 -0.0170 -1.0201
   12CHTO   O77 4658   4.570   0.408   2.580  0.7421 -0.6307  0.6095
   12CHTO  C118 4659   4.586   0.321   2.459 -0.4578  0.0255 -0.1335
   12CHTO  H222 4660   4.552   0.222   2.494 -0.8227  0.6178  1.2435
   12CHTO  C125 4661   4.479   0.391   2.352 -0.2442  0.3784 -0.0213
   12CHTO   O84 4662   4.361   0.309   2.352  0.1413 -0.6465  1.4089
   12CHTO  H205 4663   4.342   0.275   2.437  2.4648  1.3825  2.8017
   12CHTO  C114 4664   4.733   0.310   2.412 -0.0254 -0.2063 -0.2674
   12CHTO  H218 4665   4.760   0.401   2.359 -0.8114 -0.0444 -0.3955
   12CHTO  C116 4666   4.834   0.279   2.528 -0.2288 -0.1371 -0.3644
   12CHTO  H220 4667   4.822   0.178   2.572 -1.1772  1.2414  2.6720
   12CHTO   O79 4668   4.966   0.291   2.471  0.9574 -0.3468  0.2545
   12CHTO  H201 4669   4.978   0.367   2.417  0.7111  0.0016  0.6915
   12CHTO  C120 4670   4.815   0.376   2.648  0.1200  0.1552  0.1612
   12CHTO  H224 4671   4.848   0.473   2.606 -1.1218  0.4540 -0.1420
   12CHTO   N21 4672   4.908   0.338   2.755 -0.2336 -0.8180  0.3825
   12CHTO  H211 4673   4.874   0.262   2.824  1.2353 -1.1785  0.7306
   12CHTO  H212 4674   5.006   0.323   2.714 -0.4856 -2.4208  0.3318
   12CHTO   O75 4675   4.733   0.209   2.309  0.9496  0.0486  0.1979
   12CHTO  C112 4676   4.667   0.040   2.334 -0.2532  0.6162 -0.0772
   12CHTO  H216 4677   4.557   0.042   2.326 -0.4856 -3.1025  1.0871
   12CHTO   O73 4678   4.705  -0.005   2.461 -0.2952 -0.0828 -0.3051
   12CHTO  C113 4679   4.640  -0.131   2.500 -0.4842 -0.0928  0.3463
   12CHTO  H217 4680   4.531  -0.115   2.516 -0.2451  1.1046  0.7947
   12CHTO  C124 4681   4.684  -0.158   2.644  0.5843 -0.1748 -0.6639
   12CHTO   O83 4682   4.673  -0.048   2.737  0.5635  0.3599  0.0815
   12CHTO  H204 4683   4.739  -0.047   2.803 -1.3118 -2.1127  2.1249
   12CHTO  C109 4684   4.680  -0.244   2.408 -0.2245  0.0081  0.0635
   12CHTO  H213 4685   4.788  -0.263   2.422 -0.0574  2.1516  2.0543
   12CHTO  C110 4686   4.659  -0.206   2.257  0.1653  0.4214 -0.6147
   12CHTO  H214 4687   4.552  -0.203   2.239 -0.1717  2.0218  1.5314
   12CHTO   O78 4688   4.707  -0.314   2.172  0.2512  0.2241 -0.4658
   12CHTO  H200 4689   4.706  -0.283   2.084  1.0078  1.5331 -0.0276
   12CHTO  C111 4690   4.721  -0.067   2.230 -0.4510 -0.2916 -0.1556
   12CHTO  H215 4691   4.830  -0.072   2.239 -0.4484 -1.4500 -0.8294
   12CHTO   N19 4692   4.692  -0.011   2.092  0.7015  0.8297 -0.7290
   12CHTO  H207 4693   4.787   0.007   2.043  0.8731  1.8781 -0.0291
   12CHTO  H208 4694   4.648   0.087   2.088 -1.2709 -0.0083 -0.1525
   12CHTO   O74 4695   4.605  -0.361   2.452  0.0577  0.0491  0.6295
   12CHTO  C115 4696   4.672  -0.524   2.440  0.8717  0.1546  0.2967
   12CHTO  H219 4697   4.600  -0.605   2.450 -0.4039  1.1224 -0.9387
   12CHTO   O76 4698   4.753  -0.553   2.295 -0.1289  0.3236 -0.5643
   12CHTO  C122 4699   4.832  -0.668   2.292  0.3320  0.1963 -0.0070
   12CHTO  H226 4700   4.908  -0.655   2.215 -1.1012  2.0737 -1.1526
   12CHTO  C126 4701   4.743  -0.777   2.235 -0.3665 -0.4017  0.2054
   12CHTO   O85 4702   4.809  -0.898   2.220  0.3866 -0.2111  0.3297
   12CHTO  H206 4703   4.768  -0.966   2.269 -1.3677  0.8002  0.3322
   12CHTO  C121 4704   4.914  -0.715   2.430 -0.6047 -0.2621 -0.1674
   12CHTO  H225 4705   4.934  -0.824   2.431  0.7910 -0.0043  0.9377
   12CHTO   O81 4706   5.046  -0.652   2.437  0.3498  0.6002 -0.0121
   12CHTO  H202 4707   5.093  -0.715   2.387 -0.7189  0.5169 -0.9305
   12CHTO  C119 4708   4.833  -0.686   2.558 -0.5407 -1.0181  0.2415
   12CHTO  H223 4709   4.756  -0.762   2.556 -1.6945  0.1419 -0.7551
   12CHTO  C117 4710   4.758  -0.551   2.564 -0.4376 -0.2087 -0.3779
   12CHTO  H221 4711   4.830  -0.469   2.563  0.8423 -1.3109 -0.6531
   12CHTO   N20 4712   4.683  -0.537   2.693  0.7980  0.2330  0.2039
   12CHTO  H209 4713   4.643  -0.439   2.714  2.3595  1.0564 -0.5793
   12CHTO  H210 4714   4.732  -0.569   2.784 -1.2385  0.5184  1.4273
   12CHTO   O80 4715   4.920  -0.736   2.698  0.9152  0.4284 -0.0000
   12CHTO  C103 4716   4.856  -0.842   2.784 -0.0233 -0.4060  1.2599
   12CHTO  H190 4717   4.753  -0.811   2.799  0.2033 -0.0871  2.2164
   12CHTO  C101 4718   4.863  -0.987   2.728 -0.8057 -0.3502  0.1951
   12CHTO  H188 4719   4.968  -1.012   2.707 -0.9592 -2.1124  1.4273
   12CHTO   O68 4720   4.782  -0.999   2.596 -0.3057 -0.4168  0.3191
   12CHTO  H168 4721   4.734  -1.077   2.572 -1.2570  0.0151  0.7827
   12CHTO   C99 4722   4.803  -1.094   2.841  0.3126 -0.2234 -0.4662
   12CHTO  H186 4723   4.696  -1.073   2.863  1.1779  1.2154  2.6641
   12CHTO   N17 4724   4.809  -1.237   2.790 -0.1124 -0.1745  0.0858
   12CHTO  H174 4725   4.848  -1.234   2.689 -1.9962 -0.1627 -0.6662
   12CHTO  H175 4726   4.706  -1.272   2.788  0.1366 -0.9264  0.2992
   12CHTO   C97 4727   4.882  -1.080   2.980  0.5116 -0.4353 -0.3712
   12CHTO  H184 4728   4.986  -1.109   2.963  0.0509 -2.1098 -0.4301
   12CHTO   O64 4729   4.867  -0.947   3.021 -0.0115  0.0866 -0.0074
   12CHTO  C104 4730   4.924  -0.846   2.928  0.1565 -0.6035 -0.4980
   12CHTO  H191 4731   5.031  -0.863   2.919  1.2229  4.5817  0.6839
   12CHTO  C108 4732   4.913  -0.711   2.992 -0.5182 -0.7057 -0.3727
   12CHTO   O71 4733   4.998  -0.623   2.918 -0.5331 -0.2536  0.7447
   12CHTO  H171 4734   4.970  -0.537   2.941  0.6175  0.0398  1.0656
   12CHTO   O62 4735   4.828  -1.170   3.086 -0.2470  0.0386  0.3000
   12CHTO   C91 4736   4.910  -1.192   3.203 -0.4395 -0.5183  0.7120
   12CHTO  H178 4737   4.988  -1.243   3.147 -0.2735  1.8172 -1.2758
   12CHTO   C92 4738   4.842  -1.305   3.292 -0.0042 -0.0461 -0.1190
   12CHTO  H179 4739   4.818  -1.383   3.219  0.6029  1.3782 -1.8865
   12CHTO   O66 4740   4.945  -1.348   3.378  1.1814  0.2651  0.7676
   12CHTO  H166 4741   4.952  -1.302   3.460 -1.9828  0.4287  0.9990
   12CHTO   C93 4742   4.732  -1.253   3.382  0.4704  0.1431 -0.3069
   12CHTO  H180 4743   4.731  -1.331   3.459  0.6951 -0.9986 -1.4445
   12CHTO   N16 4744   4.591  -1.269   3.329 -0.1584 -0.4979  0.8503
   12CHTO  H172 4745   4.536  -1.333   3.397  2.2624 -0.6457  2.7458
   12CHTO  H173 4746   4.552  -1.170   3.344  0.9228  0.1488 -0.5534
   12CHTO   C94 4747   4.769  -1.115   3.448  0.3509 -0.5320 -0.9949
   12CHTO  H181 4748   4.714  -1.030   3.405  1.8467  1.2988  0.6010
   12CHTO   O61 4749   4.913  -1.088   3.431 -0.3900 -0.5976  0.1885
   12CHTO   C95 4750   4.952  -1.067   3.297  0.6304 -0.6391 -0.0968
   12CHTO  H182 4751   4.897  -0.981   3.260 -1.8620 -0.4703  3.7371
   12CHTO  C106 4752   5.102  -1.032   3.302  0.3910 -0.4309  0.3637
   12CHTO   O69 4753   5.153  -1.010   3.168  0.4271  0.2794  0.5378
   12CHTO  H169 4754   5.238  -1.050   3.168  0.7938  1.0185 -0.5555
   12CHTO   O63 4755   4.760  -1.114   3.611 -0.0880 -0.0783  0.1187
   12CHTO   C96 4756   4.625  -1.181   3.672  0.2063 -0.1396  0.0223
   12CHTO  H183 4757   4.570  -1.235   3.596  0.1314 -0.3474  0.2251
   12CHTO   C98 4758   4.528  -1.078   3.736 -0.5049 -0.1299 -0.3786
   12CHTO  H185 4759   4.500  -1.002   3.662  0.6044 -0.1961 -0.8662
   12CHTO   O67 4760   4.407  -1.150   3.775 -0.0862 -0.4653 -0.2155
   12CHTO  H167 4761   4.363  -1.194   3.705  1.6648 -1.3515 -0.7996
   12CHTO  C102 4762   4.586  -1.021   3.867 -0.0641  0.3844  0.3277
   12CHTO  H189 4763   4.501  -0.973   3.918 -0.1813 -1.4791  1.9645
   12CHTO   N18 4764   4.685  -0.907   3.857  0.0251 -0.7203 -0.0493
   12CHTO  H176 4765   4.757  -0.943   3.785  2.0515  0.7073  1.1880
   12CHTO  H177 4766   4.737  -0.893   3.951  2.6373 -2.2639 -1.1895
   12CHTO  C105 4767   4.642  -1.134   3.961  0.2073 -0.3748  0.5669
   12CHTO  H192 4768   4.750  -1.122   3.975 -0.4899  4.1989  2.8040
   12CHTO   O65 4769   4.615  -1.267   3.914  0.1367  0.2300 -0.4871
   12CHTO  C100 4770   4.674  -1.291   3.787 -0.4713  0.0051 -0.7077
   12CHTO  H187 4771   4.784  -1.290   3.784 -0.4448  0.2868  0.2906
   12CHTO  C107 4772   4.636  -1.434   3.748 -0.1124 -0.1308 -0.2602
   12CHTO   O70 4773   4.680  -1.528   3.844  0.3139  0.1391 -0.4768
   12CHTO  H170 4774   4.774  -1.539   3.848  0.2930 -0.4384 -1.4385
   12CHTO   O57 4775   4.583  -1.120   4.084  0.3302  0.1376 -0.4873
   12CHTO   C85 4776   4.595  -1.023   4.179 -0.4035  0.0579 -0.3049
   12CHTO  H157 4777   4.624  -0.926   4.134  1.2479 -0.1442  0.2897
   12CHTO   C83 4778   4.724  -1.063   4.267 -0.5062 -0.3797 -0.3952
   12CHTO  H155 4779   4.813  -1.041   4.208  0.9789 -1.8349  1.2424
   12CHTO   O56 4780   4.730  -1.206   4.274 -0.1958  0.6400 -0.8225
   12CHTO  H135 4781   4.794  -1.249   4.221 -1.2016 -1.2561 -0.5620
   12CHTO   C81 4782   4.735  -0.991   4.406  0.9880 -0.6267  0.4817
   12CHTO  H153 4783   4.747  -0.885   4.385  2.0622 -0.4634  1.9193
   12CHTO   N14 4784   4.853  -1.026   4.481 -0.2875  0.7825 -0.0972
   12CHTO  H141 4785   4.880  -0.944   4.545 -2.3164  1.0127  0.4861
   12CHTO  H142 4786   4.938  -1.067   4.430  0.4467 -0.4219  2.0125
   12CHTO   C79 4787   4.598  -1.013   4.490  0.1592  0.5440  0.4164
   12CHTO  H151 4788   4.608  -0.951   4.579  0.9114 -2.4307  2.4702
   12CHTO   O52 4789   4.488  -0.966   4.413  0.1942  0.3643  0.6070
   12CHTO   C86 4790   4.464  -1.017   4.273  0.3581 -0.4624 -0.1830
   12CHTO  H158 4791   4.429  -1.118   4.303  2.9234 -0.8229  1.7901
   12CHTO   C90 4792   4.349  -0.931   4.210  0.1819  0.3073 -0.7860
   12CHTO   O60 4793   4.305  -0.979   4.082 -0.1652 -0.3440 -0.3814
   12CHTO  H138 4794   4.292  -0.900   4.034 -0.9678 -0.9304 -1.1273
   12CHTO   O50 4795   4.569  -1.149   4.530 -0.6648 -0.0687 -0.2169
   12CHTO   C73 4796   4.464  -1.211   4.609 -0.0289  0.3268  0.3937
   12CHTO  H145 4797   4.368  -1.169   4.577  0.0551  0.7864  0.7425
   12CHTO   C74 4798   4.488  -1.175   4.755  0.1346 -0.2522  0.0589
   12CHTO  H146 4799   4.497  -1.066   4.760 -2.7031 -0.0042  1.4702
   12CHTO   O54 4800   4.366  -1.202   4.822  0.3387 -0.1567  0.3148
   12CHTO  H133 4801   4.330  -1.117   4.837 -1.5897 -0.8474 -0.2272
   12CHTO   C75 4802   4.621  -1.245   4.811  1.4209 -0.2559 -0.3514
   12CHTO  H147 4803   4.699  -1.225   4.736  1.6078  3.6561  0.7746
   12CHTO   N13 4804   4.665  -1.191   4.941 -0.0119 -0.5074  0.3213
   12CHTO  H139 4805   4.618  -1.098   4.967  0.1359  0.2670 -2.1352
   12CHTO  H140 4806   4.770  -1.177   4.923 -0.5620  1.1250 -1.7584
   12CHTO   C76 4807   4.592  -1.408   4.806  0.2735 -0.0078  0.3824
   12CHTO  H148 4808   4.504  -1.430   4.866  0.0723 -0.9514 -0.2386
   12CHTO   O49 4809   4.571  -1.443   4.665  0.7412  0.0323 -0.0247
   12CHTO   C77 4810   4.462  -1.375   4.597  0.4388  0.1472  0.0057
   12CHTO  H149 4811   4.363  -1.405   4.629 -0.4379  3.8327  0.9974
   12CHTO   C88 4812   4.462  -1.430   4.449 -0.3480 -0.1172  0.1430
   12CHTO   O58 4813   4.572  -1.414   4.379 -0.3924  0.1958  0.2395
   12CHTO  H136 4814   4.554  -1.462   4.301 -1.0322  0.2789  0.3392
   12CHTO   O51 4815   4.715  -1.503   4.833 -0.5833  0.8470 -0.1782
   12CHTO   C78 4816   4.867  -1.468   4.771  0.7147 -0.5479  0.4889
   12CHTO  H150 4817   4.909  -1.367   4.791  0.9666 -0.8407  1.4646
   12CHTO   C80 4818   4.879  -1.500   4.624  0.0064  1.2306 -0.3085
   12CHTO  H152 4819   4.817  -1.590   4.605  1.8660  0.0326 -0.8835
   12CHTO   O55 4820   4.819  -1.389   4.554 -0.2649  0.0525 -1.1054
   12CHTO  H134 4821   4.835  -1.387   4.462 -2.7204  0.7651 -1.5447
   12CHTO   C84 4822   5.021  -1.534   4.569  1.0586 -0.1210  0.0171
   12CHTO  H156 4823   5.077  -1.441   4.559  2.2814 -0.1796  5.0660
   12CHTO   N15 4824   5.030  -1.591   4.430  0.3293 -0.0414 -0.3007
   12CHTO  H143 4825   4.949  -1.655   4.401  0.4987  0.1666 -1.2331
   12CHTO  H144 4826   5.042  -1.518   4.352  1.0880 -0.3880 -0.5016
   12CHTO   C87 4827   5.092  -1.629   4.675  0.8929 -1.4375 -0.1144
   12CHTO  H159 4828   5.042  -1.725   4.670 -2.0390  0.0432 -0.3985
   12CHTO   O53 4829   5.086  -1.577   4.806 -0.0639  0.4206  0.9376
   12CHTO   C82 4830   4.953  -1.557   4.857  0.0623  0.7409 -1.1288
   12CHTO  H154 4831   4.912  -1.657   4.869 -3.2419  2.2047  0.3932
   12CHTO   C89 4832   4.973  -1.503   4.997 -0.4113 -0.1553 -0.6239
   12CHTO   O59 4833   4.856  -1.503   5.076  0.0066 -0.6039 -0.5285
   12CHTO  H137 4834   4.875  -1.464   5.159  1.4147 -3.0770  0.3353
   12CHTO   O45 4835   5.233  -1.627   4.645 -0.4774 -0.0748 -0.1374
   12CHTO   C67 4836   5.298  -1.752   4.637 -0.3210 -0.8634  0.5991
   12CHTO  H124 4837   5.241  -1.828   4.690 -1.8445  1.0265  1.7062
   12CHTO   C65 4838   5.309  -1.784   4.480  0.0246  0.3872  0.3793
   12CHTO  H122 4839   5.206  -1.761   4.451 -0.2175 -0.6362  0.3844
   12CHTO   O44 4840   5.346  -1.920   4.457  0.4317 -0.1143  0.0096
   12CHTO  H102 4841   5.283  -1.968   4.405  0.6846  0.3575 -0.7381
   12CHTO   C63 4842   5.402  -1.674   4.416  0.4065 -0.1372  0.2996
   12CHTO  H120 4843   5.356  -1.577   4.432  0.3494 -0.1710  0.3436
   12CHTO   N11 4844   5.403  -1.677   4.262 -0.0259  0.6777  0.1650
   12CHTO  H108 4845   5.421  -1.773   4.219  1.1765  0.7097  0.5946
   12CHTO  H109 4846   5.313  -1.629   4.229  0.3085  2.5252  1.8687
   12CHTO   C61 4847   5.542  -1.673   4.484 -0.1241  0.1104  0.3376
   12CHTO  H118 4848   5.586  -1.578   4.450 -1.3451  0.4786 -0.2470
   12CHTO   O40 4849   5.538  -1.669   4.631 -0.2377 -0.9771  0.0607
   12CHTO   C68 4850   5.441  -1.747   4.711 -0.2826 -0.1923  0.0623
   12CHTO  H125 4851   5.438  -1.705   4.814  0.5703 -0.3801  0.1681
   12CHTO   C72 4852   5.500  -1.884   4.723  0.1296  0.2064  0.3525
   12CHTO   O48 4853   5.443  -1.973   4.817  0.2135  0.3740 -0.2971
   12CHTO  H105 4854   5.366  -2.013   4.783  0.0781  1.3175 -1.1528
   12CHTO   O38 4855   5.623  -1.787   4.451 -0.2170 -0.2445  0.3614
   12CHTO   C55 4856   5.765  -1.767   4.439 -0.9065 -0.2135  0.4535
   12CHTO  H112 4857   5.807  -1.698   4.514 -0.6596  0.5119 -0.3520
   12CHTO   C56 4858   5.800  -1.722   4.288 -0.3939 -0.1212  0.2192
   12CHTO  H113 4859   5.745  -1.787   4.218 -0.8216  1.6725 -1.1793
   12CHTO   O42 4860   5.738  -1.592   4.261  0.2616  0.0507 -0.5274
   12CHTO  H100 4861   5.654  -1.598   4.220 -0.9967  1.3152  1.7562
   12CHTO   C57 4862   5.963  -1.713   4.274 -0.6193 -0.7188  0.5125
   12CHTO  H114 4863   6.003  -1.628   4.330 -1.7306 -1.4165  2.4165
   12CHTO   N10 4864   6.000  -1.682   4.132 -0.1529  0.0757 -0.7577
   12CHTO  H106 4865   6.009  -1.762   4.060 -1.3882  0.6073 -1.5241
   12CHTO  H107 4866   5.928  -1.611   4.094  0.7705  0.1115 -2.5050
   12CHTO   C58 4867   6.036  -1.842   4.319 -0.1103  0.2157 -0.0225
   12CHTO  H115 4868   6.016  -1.923   4.246  1.6606 -2.6984  2.5684
   12CHTO   O37 4869   5.983  -1.876   4.448 -0.3303  0.3530  0.3247
   12CHTO   C59 4870   5.844  -1.903   4.458  1.1080  0.8374  0.1575
   12CHTO  H116 4871   5.809  -1.983   4.393 -1.2945  1.2874  0.8597
   12CHTO   C70 4872   5.826  -1.966   4.590  0.1338 -0.0311 -0.3707
   12CHTO   O46 4873   5.867  -1.895   4.699 -0.2682 -0.0419 -0.5577
   12CHTO  H103 4874   5.950  -1.930   4.722 -0.7725 -0.1515  1.1196
   12CHTO   O39 4875   6.185  -1.815   4.333 -0.1158  0.3176  0.3590
   12CHTO   C60 4876   6.275  -1.905   4.270  0.5419  0.5681 -0.4183
   12CHTO  H117 4877   6.221  -1.999   4.284 -1.2552  1.3696 -1.7750
   12CHTO   C62 4878   6.302  -1.884   4.119  0.1471  0.0995  0.3190
   12CHTO  H119 4879   6.201  -1.892   4.073  0.5913  1.2757 -0.8927
   12CHTO   O43 4880   6.367  -1.757   4.097  0.1151  0.3418  0.3106
   12CHTO  H101 4881   6.364  -1.712   4.179  1.2453 -2.7591  2.1260
   12CHTO   C66 4882   6.394  -2.005   4.057 -0.8978  0.0137  0.8782
   12CHTO  H123 4883   6.338  -2.098   4.060  0.3237 -0.7087  1.5380
   12CHTO   N12 4884   6.401  -1.987   3.908  0.4239 -0.8160 -0.1771
   12CHTO  H110 4885   6.391  -1.885   3.875 -0.3738 -0.9175 -0.2726
   12CHTO  H111 4886   6.493  -2.027   3.869  0.1179 -1.3168 -0.4010
   12CHTO   C69 4887   6.531  -2.007   4.131  0.0449 -0.1408 -0.1970
   12CHTO  H126 4888   6.595  -1.918   4.115  1.6400 -1.0803  0.7528
   12CHTO   O41 4889   6.502  -2.018   4.277  0.3526  0.4918  0.2674
   12CHTO   C64 4890   6.406  -1.912   4.347  0.3130  0.2568  0.1022
   12CHTO  H121 4891   6.453  -1.813   4.331  0.8799 -0.1451 -0.8330
   12CHTO   C71 4892   6.397  -1.945   4.500 -0.0730  0.2316 -0.3681
   12CHTO   O47 4893   6.325  -1.843   4.573 -0.4863 -0.9505 -0.4625
   12CHTO  H104 4894   6.274  -1.785   4.520 -0.3924 -0.4364  0.0074
   12CHTO   O34 4895   6.612  -2.134   4.089  0.1691 -0.0764  0.0829
   12CHTO   C49 4896   6.695  -2.244   4.185 -0.1595 -0.2829  0.1167
   12CHTO   H91 4897   6.741  -2.182   4.262 -1.3306 -0.9288  1.3447
   12CHTO   C47 4898   6.816  -2.296   4.100 -0.2097 -0.2569 -0.4640
   12CHTO   H89 4899   6.882  -2.353   4.168  0.9629  0.9762 -0.5350
   12CHTO   O33 4900   6.900  -2.196   4.047 -0.2408 -0.4008 -0.8508
   12CHTO   H70 4901   6.850  -2.122   4.021 -0.1051  0.4202  1.1401
   12CHTO   C45 4902   6.759  -2.391   3.982  0.1279 -0.0289 -0.2324
   12CHTO   H87 4903   6.733  -2.329   3.894  0.1925 -2.3287 -1.9223
   12CHTO    N8 4904   6.863  -2.491   3.944 -0.1201  0.7161  0.3125
   12CHTO   H75 4905   6.813  -2.545   3.865 -1.9484 -0.0829  1.9825
   12CHTO   H76 4906   6.891  -2.553   4.028  0.7248  1.7878  0.8336
   12CHTO   C43 4907   6.604  -2.440   4.015 -0.2635 -0.1001  0.1130
   12CHTO   H85 4908   6.544  -2.352   3.992 -0.0507 -0.1723 -0.7166
   12CHTO   O29 4909   6.595  -2.477   4.153 -0.0350  0.0169  0.2561
   12CHTO   C50 4910   6.609  -2.362   4.242 -0.8537  0.6549 -0.0715
   12CHTO   H92 4911   6.509  -2.318   4.259 -0.4212  2.6730 -2.5524
   12CHTO   C54 4912   6.654  -2.416   4.381  0.1495 -0.6412 -0.6500
   12CHTO   O36 4913   6.654  -2.299   4.474 -0.0084  0.2447 -0.0423
   12CHTO   H72 4914   6.728  -2.308   4.531 -2.3308  0.7576  3.2328
   12CHTO   O27 4915   6.554  -2.548   3.940  0.3062  0.4288  0.5618
   12CHTO   C37 4916   6.444  -2.584   3.860 -0.1270 -0.6033 -0.2523
   12CHTO   H79 4917   6.462  -2.679   3.809 -0.0853  0.0874 -1.5436
   12CHTO   C38 4918   6.318  -2.598   3.953  1.3895  0.0909 -0.3728
   12CHTO   H80 4919   6.330  -2.530   4.038 -1.6123  2.0800 -1.4620
   12CHTO   O31 4920   6.326  -2.737   3.992  0.2299 -0.1643 -0.2456
   12CHTO   H68 4921   6.253  -2.769   4.041  0.5982 -1.4632 -0.5429
   12CHTO   C39 4922   6.175  -2.580   3.891  0.4038 -0.2274  0.4830
   12CHTO   H81 4923   6.159  -2.664   3.823  0.5527 -0.5916  0.8973
   12CHTO    N7 4924   6.074  -2.566   4.000  0.9313 -0.0013 -0.4523
   12CHTO   H73 4925   6.032  -2.467   4.001  0.8647  0.0134 -2.4381
   12CHTO   H74 4926   5.994  -2.636   3.983  0.6838 -0.0543  0.8676
   12CHTO   C40 4927   6.186  -2.450   3.798 -0.6050 -0.8206  0.2119
   12CHTO   H82 4928   6.207  -2.363   3.861 -1.8942  0.2629 -0.8428
   12CHTO   O26 4929   6.288  -2.473   3.698  0.0583  0.4563 -0.1580
   12CHTO   C41 4930   6.423  -2.474   3.753  0.6070 -0.2330  0.0202
   12CHTO   H83 4931   6.434  -2.378   3.807  0.0986 -0.6741  0.9230
   12CHTO   C52 4932   6.517  -2.480   3.637 -0.1669 -0.0458  0.2151
   12CHTO   O35 4933   6.524  -2.384   3.578 -0.8254 -0.3966 -0.0262
   12CHTO   H71 4934   6.591  -2.389   3.512 -0.2269 -1.4786  0.6557
   12CHTO   O28 4935   6.062  -2.403   3.741 -0.2939 -0.2050  0.1389
   12CHTO   C42 4936   6.046  -2.265   3.688 -0.1420  0.4607  0.1829
   12CHTO   H84 4937   5.946  -2.271   3.643 -0.6576  2.1021  1.0808
   12CHTO   C44 4938   6.135  -2.211   3.566 -0.0530 -0.0334  0.3409
   12CHTO   H86 4939   6.239  -2.196   3.597  0.4764  0.2446 -1.5137
   12CHTO   O32 4940   6.138  -2.320   3.466 -0.7199 -0.4473 -0.1350
   12CHTO   H69 4941   6.225  -2.324   3.430 -1.0370 -3.5648 -0.6882
   12CHTO   C48 4942   6.071  -2.072   3.521  0.4639  0.1427 -0.2312
   12CHTO   H90 4943   5.980  -2.106   3.472  0.5095 -1.6196  0.8621
   12CHTO    N9 4944   6.165  -2.016   3.410  0.3049 -0.2174  0.4609
   12CHTO   H77 4945   6.105  -1.962   3.339  0.6260  1.8295  1.7063
   12CHTO   H78 4946   6.241  -1.951   3.450  1.5295 -0.2097 -1.7954
   12CHTO   C51 4947   6.053  -1.973   3.634 -0.1726  0.3206 -0.1806
   12CHTO   H93 4948   6.154  -1.943   3.659 -0.2168 -1.3142  2.1380
   12CHTO   O30 4949   5.984  -2.031   3.750 -0.5891 -0.0419  0.7751
   12CHTO   C46 4950   6.040  -2.157   3.809  0.3683 -0.1210 -0.1684
   12CHTO   H88 4951   6.136  -2.126   3.851 -0.5436  0.8815  1.2067
   12CHTO   C53 4952   5.945  -2.201   3.927  0.2848  0.4240  0.6473
   12CHTO   O72 4953   5.935  -2.112   4.035 -0.2282  0.5173 -0.0360
   12CHTO  H199 4954   5.885  -2.161   4.098 -1.3339  0.7605 -0.7134
   12CHTO   O22 4955   5.976  -1.855   3.596 -0.0871 -0.4097  0.2855
   12CHTO   C31 4956   5.823  -1.845   3.600 -0.0900  0.5792  0.6170
   12CHTO   H59 4957   5.787  -1.948   3.617 -2.4401  1.9334  4.5405
   12CHTO   C29 4958   5.766  -1.766   3.725 -0.2678  0.3364  0.2162
   12CHTO   H57 4959   5.827  -1.675   3.735 -1.5710  1.2327  0.0594
   12CHTO   O21 4960   5.797  -1.839   3.848  0.2918 -0.0927  0.2621
   12CHTO   H37 4961   5.751  -1.801   3.920  0.1318  1.0067 -0.4068
   12CHTO   C27 4962   5.612  -1.731   3.723  0.3217 -0.4859 -0.9050
   12CHTO   H55 4963   5.549  -1.820   3.732  0.2245 -0.6236 -2.7066
   12CHTO    N5 4964   5.571  -1.640   3.827 -0.2708 -0.7431 -0.1694
   12CHTO   H43 4965   5.469  -1.654   3.859 -0.2736 -1.3722 -0.4475
   12CHTO   H44 4966   5.641  -1.628   3.908  1.1073 -0.1768 -1.4174
   12CHTO   C25 4967   5.577  -1.683   3.578  0.3748 -0.0015  0.3236
   12CHTO   H53 4968   5.620  -1.582   3.572 -1.3776  0.9525  3.0127
   12CHTO   O17 4969   5.619  -1.781   3.473 -0.1652 -0.1043 -0.5996
   12CHTO   C32 4970   5.762  -1.792   3.465 -0.2511  0.0915 -0.3557
   12CHTO   H60 4971   5.809  -1.698   3.436 -0.3997  0.1637 -0.3596
   12CHTO   C36 4972   5.786  -1.884   3.347  0.4571 -0.5762  0.1311
   12CHTO   O25 4973   5.707  -1.863   3.225 -0.5676 -0.7659 -0.2844
   12CHTO   H40 4974   5.620  -1.861   3.260  0.1419  0.2156  1.4791
   12CHTO   O15 4975   5.421  -1.669   3.561  0.3620  0.4354  0.4057
   12CHTO   C19 4976   5.312  -1.653   3.464  0.9792  0.5075 -0.6421
   12CHTO   H47 4977   5.348  -1.577   3.394  0.3587  2.5147  1.1541
   12CHTO   C20 4978   5.276  -1.785   3.388 -0.1363 -0.1428  0.2232
   12CHTO   H48 4979   5.240  -1.863   3.457 -0.3973 -0.5252 -0.3431
   12CHTO   O19 4980   5.394  -1.839   3.320  0.2199  0.3892  0.0546
   12CHTO   H35 4981   5.473  -1.812   3.364  0.8042 -0.7102 -0.3208
   12CHTO   C21 4982   5.156  -1.761   3.287  0.6407  0.1148  0.0689
   12CHTO   H49 4983   5.195  -1.690   3.214 -0.3646  1.5501  0.9099
   12CHTO    N4 4984   5.113  -1.876   3.206  0.4124 -0.3282 -0.2253
   12CHTO   H41 4985   5.026  -1.927   3.246  1.3553 -1.5563  0.2868
   12CHTO   H42 4986   5.174  -1.950   3.156  0.8915 -0.3509  0.3799
   12CHTO   C22 4987   5.041  -1.691   3.365  0.3608  0.0676 -0.2726
   12CHTO   H50 4988   5.003  -1.759   3.440 -0.4399  0.8328  0.0222
   12CHTO   O14 4989   5.084  -1.574   3.440  0.2073  0.1032 -0.0057
   12CHTO   C23 4990   5.187  -1.602   3.534 -0.1824  0.6196 -0.1137
   12CHTO   H51 4991   5.151  -1.677   3.606  2.4220  0.5800  1.2122
   12CHTO   C34 4992   5.208  -1.471   3.614  0.2178  0.1289  0.4420
   12CHTO   O23 4993   5.094  -1.442   3.697 -0.1591  0.5606  0.1641
   12CHTO   H38 4994   5.121  -1.392   3.771 -2.0867 -1.5528  2.3865
   12CHTO   O16 4995   4.939  -1.644   3.276 -0.4015 -0.2863 -0.0560
   12CHTO   C24 4996   4.778  -1.658   3.304 -0.4296 -0.4908 -0.2422
   12CHTO   H52 4997   4.725  -1.564   3.286 -1.5738 -1.0717  0.0812
   12CHTO   C26 4998   4.741  -1.702   3.450 -0.6371  0.1832  0.3428
   12CHTO   H54 4999   4.803  -1.792   3.469 -0.8289 -0.3360 -1.3456
   12CHTO   O20 5000   4.782  -1.606   3.551  0.0327  0.5899  0.2596
   12CHTO   H36 5001   4.848  -1.646   3.605  1.0199  2.0781  0.1936
   12CHTO   C30 5002   4.590  -1.732   3.464  0.4411 -0.4291  0.4269
   12CHTO   H58 5003   4.526  -1.646   3.440 -1.2384 -1.7010  0.2611
   12CHTO    N6 5004   4.545  -1.772   3.599 -0.2354 -0.2842 -0.1702
   12CHTO   H45 5005   4.441  -1.801   3.590 -0.6384  0.9921  0.2956
   12CHTO   H46 5006   4.551  -1.696   3.675  0.7827 -3.6879  3.3272
   12CHTO   C33 5007   4.551  -1.840   3.358 -0.3223  0.2735  0.0787
   12CHTO   H61 5008   4.603  -1.934   3.378 -1.7256 -0.9848 -1.9690
   12CHTO   O18 5009   4.584  -1.797   3.227 -0.2190 -0.0642  0.3162
   12CHTO   C28 5010   4.721  -1.761   3.196  0.4218 -0.0644 -0.2730
   12CHTO   H56 5011   4.794  -1.842   3.197 -0.7162 -1.1011  0.5794
   12CHTO   C35 5012   4.706  -1.670   3.068 -0.8202  0.2998  0.2506
   12CHTO   O24 5013   4.673  -1.745   2.948 -0.5531 -0.6496 -0.2253
   12CHTO   H39 5014   4.667  -1.677   2.883  1.0977  0.6246  0.9236
   12CHTO    O9 5015   4.403  -1.872   3.364 -0.1517 -0.8951 -0.5395
   12CHTO   C13 5016   4.352  -1.980   3.276  0.6528  0.5086 -0.5394
   12CHTO   H26 5017   4.438  -2.010   3.213 -0.0302  2.4822 -2.4575
   12CHTO   C11 5018   4.217  -1.949   3.183 -0.1025 -0.9989 -0.1918
   12CHTO   H24 5019   4.248  -1.865   3.119 -1.1473 -1.2731 -1.0612
   12CHTO    O8 5020   4.114  -1.898   3.268  0.3317 -0.2293 -0.3787
   12CHTO    H3 5021   4.085  -1.965   3.327  1.5191 -0.8822 -0.5297
   12CHTO    C9 5022   4.185  -2.068   3.084  0.4650  0.1415 -0.6296
   12CHTO   H22 5023   4.278  -2.078   3.026  0.9745 -2.3455  0.5087
   12CHTO    N2 5024   4.076  -2.034   2.992  0.6324 -0.1945  0.6045
   12CHTO   H10 5025   3.982  -2.035   3.044 -0.7014  0.0104 -1.7160
   12CHTO   H11 5026   4.067  -2.104   2.910  1.1263 -2.7641  2.6565
   12CHTO    C7 5027   4.163  -2.197   3.172  0.5608  0.4908  0.6241
   12CHTO   H20 5028   4.165  -2.277   3.095  1.3279  1.0084  0.0948
   12CHTO    O4 5029   4.275  -2.211   3.260  0.2697  0.2778 -0.5598
   12CHTO   C14 5030   4.321  -2.111   3.359  0.3803 -0.4311 -0.9503
   12CHTO   H27 5031   4.419  -2.142   3.403 -1.3493 -1.3802  2.4237
   12CHTO   C18 5032   4.220  -2.104   3.482  0.4676 -0.2973  0.0068
   12CHTO   O13 5033   4.250  -1.999   3.570  0.0464 -0.3070  0.0363
   12CHTO    H7 5034   4.176  -1.967   3.617  0.6161 -0.3091  0.9627
   12CHTO    O2 5035   4.017  -2.207   3.256  0.0524  0.4154 -0.4183
   12CHTO    C1 5036   3.941  -2.327   3.221  0.3212 -0.1317 -0.0389
   12CHTO   H14 5037   3.992  -2.382   3.139 -0.2155 -0.6891  0.0017
   12CHTO    C2 5038   3.795  -2.295   3.166  0.0264  0.2206  0.5106
   12CHTO   H15 5039   3.736  -2.249   3.246  1.0662  2.7664 -0.1469
   12CHTO    O6 5040   3.792  -2.219   3.044  0.1458  0.3732  0.4570
   12CHTO    H1 5041   3.702  -2.198   3.029 -0.2846 -1.2494  0.6504
   12CHTO    C3 5042   3.715  -2.436   3.148  0.1926  0.2377  0.3364
   12CHTO   H16 5043   3.768  -2.485   3.065 -1.9386 -0.0909 -0.8722
   12CHTO    N1 5044   3.574  -2.418   3.108 -0.4189  0.6359  0.2959
   12CHTO    H8 5045   3.530  -2.337   3.164  2.4246  1.3124  1.6605
   12CHTO    H9 5046   3.518  -2.508   3.126 -0.0136  0.2550 -0.3231
   12CHTO    C4 5047   3.732  -2.531   3.271  0.3904 -0.1672 -0.8620
   12CHTO   H17 5048   3.656  -2.505   3.345 -0.2190 -0.4522 -1.3880
   12CHTO    O1 5049   3.860  -2.533   3.333  0.2364  0.1003 -0.0333
   12CHTO    C5 5050   3.930  -2.408   3.351  0.2289  0.6574  0.4217
   12CHTO   H18 5051   3.867  -2.352   3.419  1.3161  0.9830  1.1636
   12CHTO   C16 5052   4.060  -2.438   3.425 -0.2970 -0.3395  0.3274
   12CHTO   O11 5053   4.049  -2.525   3.539  0.6829  0.2301  0.4861
   12CHTO    H5 5054   3.964  -2.521   3.578  0.4444  0.6190 -0.0702
   12CHTO    O3 5055   3.710  -2.668   3.224 -0.5258  0.2257 -0.2965
   12CHTO    C6 5056   3.680  -2.762   3.335  0.2626  0.4247 -1.0546
   12CHTO   H19 5057   3.692  -2.716   3.433 -1.2196  1.4543 -1.3341
   12CHTO    C8 5058   3.530  -2.810   3.305 -0.0455 -0.4002 -0.4850
   12CHTO   H21 5059   3.505  -2.823   3.200  1.2921 -2.5311 -0.5683
   12CHTO    O7 5060   3.461  -2.704   3.374  0.1104 -0.1786 -0.0013
   12CHTO    H2 5061   3.382  -2.676   3.333 -0.8456 -0.8715  1.3232
   12CHTO   C12 5062   3.496  -2.947   3.368  0.6745 -0.2559  0.0932
   12CHTO   H25 5063   3.485  -2.927   3.477  1.3676 -1.1340  0.3352
   12CHTO    N3 5064   3.366  -2.993   3.309  0.2118 -0.0714  0.0499
   12CHTO   H12 5065   3.373  -3.042   3.213 -0.3561 -1.9359  0.9227
   12CHTO   H13 5066   3.325  -3.062   3.382  1.1855 -0.5585  0.1557
   12CHTO   C15 5067   3.609  -3.052   3.359  0.8586 -0.0257  0.4260
   12CHTO   H28 5068   3.620  -3.096   3.260  0.0693 -2.7020  1.4944
   12CHTO   O10 5069   3.591  -3.166   3.463  0.0922  0.2357  0.2305
   12CHTO    H4 5070   3.592  -3.122   3.547 -0.0573  0.8052 -0.0606
   12CHTO    O5 5071   3.745  -3.011   3.390 -0.3916 -0.5571  0.4705
   12CHTO   C10 5072   3.781  -2.879   3.326  0.0643  0.1449 -0.3558
   12CHTO   H23 5073   3.794  -2.904   3.220  2.5170 -0.2914  0.0177
   12CHTO   C17 5074   3.925  -2.837   3.367 -0.1587 -0.3164 -0.1214
   12CHTO   O12 5075   3.936  -2.837   3.511 -0.2053  0.4511 -0.2245
   12CHTO    H6 5076   4.030  -2.841   3.515 -0.0512 -1.5768 -3.6879
   13CHTO  H203 5077   6.914   3.195   2.679 -1.3796  1.1952  2.0968
   13CHTO   O82 5078   6.959   3.269   2.643 -0.5920 -0.5193 -0.6183
   13CHTO  C123 5079   6.909   3.391   2.693  0.0760  0.8691  0.3080
   13CHTO  H227 5080   6.970   3.475   2.658  1.8127 -0.0631  1.0284
   13CHTO   O77 5081   6.775   3.390   2.634 -0.1185  0.0814 -0.6003
   13CHTO  C118 5082   6.700   3.512   2.661  0.5454 -0.2129 -0.0017
   13CHTO  H222 5083   6.764   3.592   2.622 -0.5712  1.2779  1.1811
   13CHTO  C125 5084   6.560   3.514   2.581 -0.5768 -0.3370  0.4230
   13CHTO   O84 5085   6.567   3.561   2.447 -0.3156  0.0056 -0.0239
   13CHTO  H205 5086   6.481   3.558   2.412 -0.6965 -1.8002  0.9995
   13CHTO  C114 5087   6.676   3.533   2.811  0.0220 -0.1468  0.4169
   13CHTO  H218 5088   6.609   3.453   2.843 -0.0518 -0.0928  0.3982
   13CHTO  C116 5089   6.813   3.532   2.885 -0.3648 -0.1560 -0.3441
   13CHTO  H220 5090   6.870   3.617   2.840 -0.4342  0.3714  0.5615
   13CHTO   O79 5091   6.808   3.560   3.032  0.0263 -0.1735  0.4294
   13CHTO  H201 5092   6.789   3.477   3.072  1.3054  0.1001  1.6376
   13CHTO  C120 5093   6.890   3.399   2.853 -0.6069  0.1224 -0.3129
   13CHTO  H224 5094   6.833   3.313   2.892 -0.0000 -0.4457 -0.6798
   13CHTO   N21 5095   7.023   3.403   2.925 -0.2923  0.3740  0.1389
   13CHTO  H211 5096   7.081   3.483   2.880 -0.5768  0.2880 -0.3803
   13CHTO  H212 5097   7.003   3.428   3.028 -0.6351  0.7579 -0.0238
   13CHTO   O75 5098   6.615   3.665   2.824  0.3187  0.6890 -0.4413
   13CHTO  C112 5099   6.481   3.668   2.917  0.5932 -0.3245  0.6546
   13CHTO  H216 5100   6.483   3.583   2.988 -0.7764  1.8635  3.3947
   13CHTO   O73 5101   6.367   3.666   2.831 -0.2660 -0.3823  0.5745
   13CHTO  C113 5102   6.240   3.645   2.889  0.2215 -0.1441 -0.0320
   13CHTO  H217 5103   6.251   3.565   2.965 -3.6953  0.7259  1.5735
   13CHTO  C124 5104   6.138   3.604   2.786 -0.0414 -0.7032  0.1474
   13CHTO   O83 5105   6.027   3.535   2.846  0.5795 -0.5760  0.5957
   13CHTO  H204 5106   5.962   3.504   2.786  0.2175  0.5517  0.3912
   13CHTO  C109 5107   6.213   3.776   2.969 -0.6745 -0.0639  0.1112
   13CHTO  H213 5108   6.228   3.862   2.901  0.9182  0.2361  0.8130
   13CHTO  C110 5109   6.321   3.796   3.078  0.1650  0.2475  0.7064
   13CHTO  H214 5110   6.322   3.711   3.147 -1.2781 -0.9858 -0.7716
   13CHTO   O78 5111   6.297   3.922   3.150 -0.7920  0.7773 -0.0605
   13CHTO  H200 5112   6.349   3.914   3.228 -0.8958 -0.8194 -0.1231
   13CHTO  C111 5113   6.461   3.795   3.003 -0.3011  0.1499 -0.5399
   13CHTO  H215 5114   6.461   3.889   2.945 -2.1369 -0.0492 -0.9079
   13CHTO   N19 5115   6.572   3.813   3.107  0.1178 -0.0656  0.6523
   13CHTO  H207 5116   6.595   3.713   3.141  1.1445 -0.1969 -0.4110
   13CHTO  H208 5117   6.656   3.857   3.054  2.9124 -1.8772  3.4091
   13CHTO   O74 5118   6.077   3.783   3.021 -0.0415  0.1542  0.4309
   13CHTO  C115 5119   5.990   3.932   2.970 -0.3946 -0.3395 -0.1598
   13CHTO  H219 5120   6.024   4.023   3.019 -0.8606  0.9343 -2.1309
   13CHTO   O76 5121   6.007   3.966   2.799 -0.5653  0.0504 -0.3364
   13CHTO  C122 5122   5.943   4.083   2.759  0.3913 -0.0638 -0.5480
   13CHTO  H226 5123   5.941   4.102   2.652 -3.6729  0.8383 -0.3955
   13CHTO  C126 5124   5.996   4.211   2.818 -0.4956 -0.2630 -0.1337
   13CHTO   O85 5125   6.139   4.216   2.797 -0.4144  0.4502 -0.4788
   13CHTO  H206 5126   6.154   4.301   2.762 -1.0837  0.1067 -1.6216
   13CHTO  C121 5127   5.792   4.082   2.810  0.1013 -0.6290 -0.2095
   13CHTO  H225 5128   5.756   4.184   2.790  0.6561 -0.4507 -0.3047
   13CHTO   O81 5129   5.723   3.988   2.729 -0.3063  0.4452 -0.1027
   13CHTO  H202 5130   5.757   3.902   2.744  0.3371  0.8613  0.8795
   13CHTO  C119 5131   5.770   4.052   2.964 -0.2494  0.2744 -1.1068
   13CHTO  H223 5132   5.818   4.134   3.018 -0.0106 -0.8564  0.4254
   13CHTO  C117 5133   5.841   3.922   3.004 -0.2277  0.2225 -0.2554
   13CHTO  H221 5134   5.809   3.835   2.948  0.9988 -0.6443  0.3878
   13CHTO   N20 5135   5.834   3.882   3.151  0.5715  0.3745  0.3832
   13CHTO  H209 5136   5.800   3.963   3.214  0.0024 -0.8891  1.7316
   13CHTO  H210 5137   5.923   3.832   3.186  1.6462  0.7170 -1.8034
   13CHTO   O80 5138   5.622   4.069   3.003  1.3491  0.4716  0.1115
   13CHTO  C103 5139   5.568   4.214   3.067 -0.3643 -0.6449 -0.1168
   13CHTO  H190 5140   5.613   4.233   3.165 -0.8701 -2.0695  0.4083
   13CHTO  C101 5141   5.577   4.339   2.974  0.2814  0.1228 -0.5637
   13CHTO  H188 5142   5.555   4.301   2.874  0.8452  1.2629 -1.1351
   13CHTO   O68 5143   5.720   4.391   2.975 -0.3386 -0.1152  0.0388
   13CHTO  H168 5144   5.765   4.369   3.054 -0.2106 -0.3599 -0.1030
   13CHTO   C99 5145   5.472   4.458   3.011 -0.2187  0.3723  0.0212
   13CHTO  H186 5146   5.499   4.501   3.109  2.4447 -3.0440  0.8606
   13CHTO   N17 5147   5.474   4.567   2.907  0.2443  0.5483  0.5999
   13CHTO  H174 5148   5.574   4.608   2.908 -0.2229  1.7376  2.6932
   13CHTO  H175 5149   5.402   4.640   2.941 -0.0667 -0.2138  1.6297
   13CHTO   C97 5150   5.333   4.392   3.025 -0.8009  0.4423 -1.0067
   13CHTO  H184 5151   5.302   4.344   2.930  1.3676 -0.5626 -1.2363
   13CHTO   O64 5152   5.342   4.296   3.131 -0.2417 -0.3350 -0.0723
   13CHTO  C104 5153   5.417   4.184   3.096 -0.6377 -0.7135  0.0326
   13CHTO  H191 5154   5.373   4.127   3.015 -0.3731 -2.8923  1.3707
   13CHTO  C108 5155   5.414   4.089   3.217  0.1293 -0.7895 -0.1864
   13CHTO   O71 5156   5.281   4.043   3.254  0.1731 -0.3224 -0.4269
   13CHTO  H171 5157   5.248   3.986   3.187 -1.5717 -1.0176  0.9841
   13CHTO   O62 5158   5.240   4.488   3.078  0.5504  0.1432 -0.0720
   13CHTO   C91 5159   5.100   4.464   3.051  0.3246  0.3275 -0.0785
   13CHTO  H178 5160   5.080   4.458   2.944 -1.4482 -0.7690  0.2894
   13CHTO   C92 5161   5.023   4.595   3.093 -0.5010 -0.2318 -0.0060
   13CHTO  H179 5162   5.053   4.624   3.195 -1.3315 -0.5648  0.3356
   13CHTO   O66 5163   5.064   4.699   3.001 -0.2158 -0.2640 -0.6703
   13CHTO  H166 5164   5.157   4.692   2.993 -0.0920 -0.4135  0.7529
   13CHTO   C93 5165   4.861   4.586   3.093 -0.3359 -0.0653 -0.4300
   13CHTO  H180 5166   4.820   4.598   2.992 -1.5696 -1.2392 -0.0736
   13CHTO   N16 5167   4.794   4.706   3.158 -0.2670  0.1676  0.1169
   13CHTO  H172 5168   4.723   4.667   3.228 -0.2840  0.2140  0.1245
   13CHTO  H173 5169   4.866   4.768   3.209 -0.6354  1.9184 -1.4247
   13CHTO   C94 5170   4.811   4.450   3.158 -0.3646 -0.4327 -0.5456
   13CHTO  H181 5171   4.757   4.467   3.251 -2.9536 -1.4037 -1.8207
   13CHTO   O61 5172   4.921   4.368   3.204  0.2321 -0.0572  0.1794
   13CHTO   C95 5173   5.037   4.334   3.122  0.3769 -0.7978  0.3621
   13CHTO  H182 5174   5.108   4.285   3.189  1.9950  1.9108  0.6949
   13CHTO  C106 5175   4.996   4.232   3.017  0.5643 -0.2227  0.1725
   13CHTO   O69 5176   5.098   4.202   2.922  0.2537 -0.4373 -0.2259
   13CHTO  H169 5177   5.158   4.138   2.956  2.4809  1.6533 -0.0781
   13CHTO   O63 5178   4.714   4.367   3.037 -0.4750 -0.3189 -0.7473
   13CHTO   C96 5179   4.565   4.397   3.077  0.0180 -0.7893 -0.4060
   13CHTO  H183 5180   4.556   4.478   3.150 -2.4348 -1.1570 -0.2491
   13CHTO   C98 5181   4.489   4.267   3.129 -0.2622  0.1392 -0.1895
   13CHTO  H185 5182   4.508   4.187   3.056 -0.9978 -0.0394 -0.1946
   13CHTO   O67 5183   4.555   4.238   3.249 -0.3884 -0.6280 -0.2048
   13CHTO  H167 5184   4.539   4.307   3.310  1.2937  0.1499 -0.6002
   13CHTO  C102 5185   4.337   4.297   3.153  0.3571 -0.4902 -0.0880
   13CHTO  H189 5186   4.336   4.372   3.234  0.3400 -2.1387  1.4852
   13CHTO   N18 5187   4.245   4.181   3.200  0.2041 -0.2814 -0.3789
   13CHTO  H176 5188   4.200   4.214   3.293 -2.0474 -0.2560 -1.4449
   13CHTO  H177 5189   4.168   4.161   3.128  0.5700  0.4048 -0.9663
   13CHTO  C105 5190   4.274   4.369   3.027 -0.6174  0.3168 -0.2002
   13CHTO  H192 5191   4.242   4.295   2.954  0.7317 -1.6348  1.1302
   13CHTO   O65 5192   4.358   4.468   2.963 -0.3802  0.6293 -0.6087
   13CHTO  C100 5193   4.499   4.449   2.950 -0.1892  0.0848 -0.0779
   13CHTO  H187 5194   4.517   4.370   2.875 -0.2239  1.0315 -1.0784
   13CHTO  C107 5195   4.546   4.582   2.896  0.2328  0.1678  0.7661
   13CHTO   O70 5196   4.502   4.617   2.764 -0.0908 -0.0363 -1.0728
   13CHTO  H170 5197   4.581   4.639   2.719 -0.6327  2.0160 -1.1164
   13CHTO   O57 5198   4.135   4.448   3.092  0.2979  0.4281  0.2884
   13CHTO   C85 5199   4.095   4.573   3.031  0.3973 -0.5010 -0.2742
   13CHTO  H157 5200   4.141   4.592   2.931  1.4577  1.4147  0.5654
   13CHTO   C83 5201   4.151   4.688   3.126 -0.3956 -0.0691 -1.0267
   13CHTO  H155 5202   4.260   4.687   3.117 -0.4250  0.6833 -1.5318
   13CHTO   O56 5203   4.119   4.668   3.264 -0.1960  0.1565 -0.3762
   13CHTO  H135 5204   4.176   4.606   3.305 -1.4072 -1.9353 -1.7199
   13CHTO   C81 5205   4.096   4.820   3.067  0.0491 -0.3524 -0.3023
   13CHTO  H153 5206   4.138   4.831   2.967  1.6638  0.8533  0.5099
   13CHTO   N14 5207   4.148   4.934   3.146  0.0288  0.2846 -0.2774
   13CHTO  H141 5208   4.094   4.945   3.237 -1.9163  0.4250 -1.4084
   13CHTO  H142 5209   4.248   4.904   3.170 -0.4265 -1.3484 -0.4129
   13CHTO   C79 5210   3.936   4.826   3.046 -0.4118  0.5505  0.3155
   13CHTO  H151 5211   3.918   4.911   2.980 -1.4496 -0.5427 -0.8332
   13CHTO   O52 5212   3.897   4.709   2.971  0.2579 -0.0158 -0.1272
   13CHTO   C86 5213   3.942   4.583   3.028  0.9106 -0.1015  0.1689
   13CHTO  H158 5214   3.905   4.592   3.132 -0.8997 -0.0397 -0.4611
   13CHTO   C90 5215   3.875   4.458   2.959 -0.6547  0.2898  0.4421
   13CHTO   O60 5216   3.901   4.331   3.025 -0.0746 -0.3243 -0.0949
   13CHTO  H138 5217   3.992   4.337   3.047 -0.4935  4.5740  1.0298
   13CHTO   O50 5218   3.847   4.829   3.156 -0.4063  0.6885 -0.8041
   13CHTO   C73 5219   3.706   4.860   3.145  0.5760  0.9401 -0.6942
   13CHTO  H145 5220   3.659   4.828   3.051 -0.7258  1.7422 -0.3327
   13CHTO   C74 5221   3.695   5.015   3.159 -0.4077 -0.2986 -0.0130
   13CHTO  H146 5222   3.763   5.068   3.090  1.7189 -0.4179  1.9283
   13CHTO   O54 5223   3.564   5.051   3.115 -0.2862  0.5282  0.9560
   13CHTO  H133 5224   3.557   5.145   3.119  0.0942  0.5869  0.3365
   13CHTO   C75 5225   3.719   5.064   3.309  0.0953 -0.0829 -0.2466
   13CHTO  H147 5226   3.825   5.047   3.331  0.3115  0.2021 -1.0571
   13CHTO   N13 5227   3.697   5.208   3.328  0.2964 -0.0147  0.0368
   13CHTO  H139 5228   3.702   5.236   3.433 -1.7873 -2.6255  0.8910
   13CHTO  H140 5229   3.774   5.260   3.273 -1.0167  1.6097 -0.2812
   13CHTO   C76 5230   3.638   4.976   3.419  0.0937 -0.2368 -0.0611
   13CHTO  H148 5231   3.532   4.995   3.405 -0.1753  0.4484  2.4769
   13CHTO   O49 5232   3.667   4.838   3.392 -0.0750  0.0176  0.4341
   13CHTO   C77 5233   3.627   4.791   3.266 -0.1221 -0.4903 -0.3209
   13CHTO  H149 5234   3.519   4.803   3.252  0.2604  1.1407 -2.1668
   13CHTO   C88 5235   3.648   4.638   3.255 -0.3679  0.1167 -0.3458
   13CHTO   O58 5236   3.588   4.576   3.139 -0.2671  0.0694 -0.0669
   13CHTO  H136 5237   3.650   4.564   3.069  0.3655 -3.1845  0.9508
   13CHTO   O51 5238   3.684   5.005   3.565  0.1634 -0.0433 -0.2575
   13CHTO   C78 5239   3.825   4.927   3.631 -0.5168  0.3613  0.2371
   13CHTO  H150 5240   3.851   4.971   3.729 -2.0193 -0.1791  0.8929
   13CHTO   C80 5241   3.945   4.941   3.536  0.2275  0.2409  0.6401
   13CHTO  H152 5242   3.926   4.890   3.439  0.0869  2.0495 -0.3109
   13CHTO   O55 5243   3.959   5.080   3.514 -0.0672 -0.1761  0.4504
   13CHTO  H134 5244   3.985   5.097   3.426 -3.8750  0.0382 -0.7193
   13CHTO   C84 5245   4.066   4.868   3.611  0.2994  0.2134  0.0585
   13CHTO  H156 5246   4.082   4.906   3.712 -0.3311 -0.1108  0.2854
   13CHTO   N15 5247   4.193   4.881   3.536  0.0158  0.6324  0.7603
   13CHTO  H143 5248   4.184   4.917   3.436 -0.4724  0.4505  0.7420
   13CHTO  H144 5249   4.259   4.797   3.533 -2.3444 -1.2705 -4.5228
   13CHTO   C87 5250   4.025   4.718   3.634 -0.2954 -0.4500  0.9692
   13CHTO  H159 5251   4.011   4.669   3.538 -1.0747  1.1367  0.2520
   13CHTO   O53 5252   3.897   4.708   3.712 -0.3751  0.3665  0.2967
   13CHTO   C82 5253   3.789   4.783   3.660  0.7906  0.6099 -0.3531
   13CHTO  H154 5254   3.745   4.731   3.575 -0.9229 -0.2877  1.0345
   13CHTO   C89 5255   3.674   4.783   3.772  1.0132 -0.0421 -0.0434
   13CHTO   O59 5256   3.648   4.658   3.834 -0.0396  0.6799 -0.2661
   13CHTO  H137 5257   3.572   4.670   3.888  0.3154  0.7838  0.2232
   13CHTO   O45 5258   4.145   4.637   3.711  0.0580 -0.3175 -0.0608
   13CHTO   C67 5259   4.160   4.503   3.670  0.7633 -0.2604  0.4001
   13CHTO  H124 5260   4.069   4.456   3.632  1.5976 -0.4608 -1.3987
   13CHTO   C65 5261   4.268   4.496   3.557  0.6021 -0.1271 -0.2709
   13CHTO  H122 5262   4.230   4.570   3.486 -1.9769  0.0610  1.2226
   13CHTO   O44 5263   4.261   4.372   3.490  0.0345  0.2324 -0.3349
   13CHTO  H102 5264   4.180   4.335   3.462  0.3437 -1.4467  0.9064
   13CHTO   C63 5265   4.409   4.540   3.612 -0.3256 -0.4175 -0.6451
   13CHTO  H120 5266   4.395   4.639   3.654  1.2132  0.0268 -1.1614
   13CHTO   N11 5267   4.509   4.557   3.509 -0.4284 -0.2569  0.0665
   13CHTO  H108 5268   4.582   4.624   3.551 -0.0017  0.0087 -1.0721
   13CHTO  H109 5269   4.466   4.590   3.417 -0.7149 -0.3423  0.1719
   13CHTO   C61 5270   4.447   4.448   3.729 -0.6256 -0.0591  0.0847
   13CHTO  H118 5271   4.531   4.505   3.773  0.5248 -1.2816 -0.5145
   13CHTO   O40 5272   4.340   4.442   3.832 -0.1692 -0.1438  0.5235
   13CHTO   C68 5273   4.202   4.411   3.791 -0.0109 -0.6247  0.4621
   13CHTO  H125 5274   4.133   4.434   3.875 -0.5395  1.8054 -0.6111
   13CHTO   C72 5275   4.196   4.256   3.764  0.0989 -0.1108  0.0139
   13CHTO   O48 5276   4.062   4.210   3.723  0.2062 -0.0096  0.7573
   13CHTO  H105 5277   4.054   4.123   3.688 -0.5133  1.0046 -1.7812
   13CHTO   O38 5278   4.500   4.317   3.699  0.7005 -0.4327 -0.2175
   13CHTO   C55 5279   4.607   4.266   3.776  0.1153  0.3550  0.0152
   13CHTO  H112 5280   4.618   4.170   3.724 -0.8143 -0.6669  1.6606
   13CHTO   C56 5281   4.574   4.245   3.938  0.5635 -0.1599 -0.8643
   13CHTO  H113 5282   4.526   4.335   3.979  0.7609  0.3053 -1.6386
   13CHTO   O42 5283   4.473   4.147   3.941 -0.4426  0.3943  0.2705
   13CHTO  H100 5284   4.409   4.158   3.873 -0.8064 -0.5299  0.4591
   13CHTO   C57 5285   4.698   4.204   4.019  0.4165 -0.1153  1.1348
   13CHTO  H114 5286   4.731   4.106   3.986  1.6980  0.9000 -0.6308
   13CHTO   N10 5287   4.673   4.183   4.164  0.0667 -0.3965  0.1917
   13CHTO  H106 5288   4.638   4.081   4.177 -0.1262 -0.4265 -0.5520
   13CHTO  H107 5289   4.765   4.191   4.221  0.3471  1.2099 -0.4832
   13CHTO   C58 5290   4.806   4.312   3.990  0.0711  0.4345  0.4234
   13CHTO  H115 5291   4.764   4.411   4.020 -1.2418 -0.4200  1.4378
   13CHTO   O37 5292   4.841   4.310   3.860 -0.3995 -0.0476  0.5761
   13CHTO   C59 5293   4.742   4.353   3.761 -0.2476 -0.7150  0.0072
   13CHTO  H116 5294   4.731   4.461   3.769 -1.5875 -0.8519  0.1296
   13CHTO   C70 5295   4.797   4.312   3.625 -0.2014  0.3055  0.1218
   13CHTO   O46 5296   4.912   4.397   3.593 -0.2721  0.1057 -0.2552
   13CHTO  H103 5297   4.886   4.483   3.566 -0.7012  0.5955  1.5914
   13CHTO   O39 5298   4.950   4.295   4.069  0.2876  0.5515  0.1271
   13CHTO   C60 5299   5.032   4.413   4.058  0.2452  0.1565  0.3134
   13CHTO  H117 5300   5.036   4.453   3.957  0.0134  1.0122  0.6439
   13CHTO   C62 5301   4.971   4.529   4.142 -0.2447 -0.4259 -0.7777
   13CHTO  H119 5302   4.869   4.559   4.110 -1.2799 -1.8274  1.0993
   13CHTO   O43 5303   4.952   4.479   4.276 -0.1740  0.1286 -0.9201
   13CHTO  H101 5304   4.902   4.399   4.278 -0.6622  0.4445 -0.0058
   13CHTO   C66 5305   5.069   4.659   4.144  0.1800  0.5063  0.2348
   13CHTO  H123 5306   5.078   4.694   4.041  0.4513  0.6201  0.2960
   13CHTO   N12 5307   5.014   4.767   4.230  0.6072  0.6411 -0.1312
   13CHTO  H110 5308   4.908   4.773   4.209  0.9710 -2.6236 -3.2704
   13CHTO  H111 5309   5.033   4.745   4.334  1.0976  0.7244 -0.2039
   13CHTO   C69 5310   5.215   4.624   4.189  0.1506 -0.0952 -0.5058
   13CHTO  H126 5311   5.216   4.589   4.294  0.1530  2.1056  0.2617
   13CHTO   O41 5312   5.267   4.506   4.099  0.4839 -0.0263 -0.4010
   13CHTO   C64 5313   5.180   4.377   4.098  0.5566  0.3393  0.5675
   13CHTO  H121 5314   5.177   4.315   4.191  0.3496  0.4827  0.6580
   13CHTO   C71 5315   5.236   4.298   3.978  0.8315  0.5016 -0.3437
   13CHTO   O47 5316   5.363   4.252   4.018 -0.4795 -0.1791 -0.0954
   13CHTO  H104 5317   5.356   4.182   4.080 -0.8571  0.7195  0.8802
   13CHTO   O34 5318   5.327   4.750   4.182  0.2104  0.2197 -0.4075
   13CHTO   C49 5319   5.395   4.847   4.090 -0.0997  0.1185 -0.3112
   13CHTO   H91 5320   5.322   4.888   4.020  1.7273 -1.5936 -3.2943
   13CHTO   C47 5321   5.495   4.757   4.015  0.7083  0.1061 -0.4128
   13CHTO   H89 5322   5.553   4.820   3.944  1.9167 -2.2054 -1.5412
   13CHTO   O33 5323   5.425   4.659   3.945  0.3680 -0.1328  0.0935
   13CHTO   H70 5324   5.372   4.703   3.882  2.0843  0.9686 -0.6017
   13CHTO   C45 5325   5.602   4.697   4.120  1.0701 -0.4050 -0.2272
   13CHTO   H87 5326   5.541   4.647   4.196  0.2465 -0.1836 -0.7433
   13CHTO    N8 5327   5.690   4.600   4.057 -0.1397  0.2026  0.7264
   13CHTO   H75 5328   5.681   4.511   4.116 -1.8231  0.2315  0.5270
   13CHTO   H76 5329   5.792   4.633   4.067 -1.0537  3.0260  1.2627
   13CHTO   C43 5330   5.669   4.819   4.184 -0.3706 -0.5177 -0.6555
   13CHTO   H85 5331   5.736   4.774   4.256 -1.2243 -0.1819  0.3528
   13CHTO   O29 5332   5.579   4.922   4.246  0.2492 -0.2089 -0.1162
   13CHTO   C50 5333   5.465   4.961   4.167  0.4328 -0.1259 -0.1397
   13CHTO   H92 5334   5.396   5.008   4.238  0.9521 -2.1932  1.7933
   13CHTO   C54 5335   5.515   5.074   4.066  0.5504  0.4216 -1.4560
   13CHTO   O36 5336   5.495   5.205   4.120 -1.0180  0.1078  0.4181
   13CHTO   H72 5337   5.538   5.272   4.070  0.0047 -0.1829  0.9014
   13CHTO   O27 5338   5.750   4.885   4.088 -0.4622 -0.2023  0.6561
   13CHTO   C37 5339   5.855   4.958   4.021  1.0200  0.1160 -0.0699
   13CHTO   H79 5340   5.948   4.900   4.024  1.9581  1.5586 -0.8737
   13CHTO   C38 5341   5.818   4.964   3.869  0.1869 -0.3358  0.9077
   13CHTO   H80 5342   5.714   4.997   3.858  0.6847  1.1696  0.6704
   13CHTO   O31 5343   5.829   4.830   3.808 -0.1220 -0.2881  0.1227
   13CHTO   H68 5344   5.776   4.768   3.854 -0.1108  1.0871  2.0611
   13CHTO   C39 5345   5.905   5.077   3.790  0.5391 -0.3790  0.2529
   13CHTO   H81 5346   6.004   5.031   3.782  0.4596 -0.4180 -0.5284
   13CHTO    N7 5347   5.861   5.098   3.647  0.4149 -0.1188  0.7267
   13CHTO   H73 5348   5.774   5.036   3.630  0.5565 -1.1617  3.6252
   13CHTO   H74 5349   5.945   5.066   3.587 -0.1531 -0.9805  0.3740
   13CHTO   C40 5350   5.913   5.206   3.873  0.4236  0.5069  0.0818
   13CHTO   H82 5351   5.824   5.267   3.887  0.9711  1.0429  1.3360
   13CHTO   O26 5352   5.966   5.166   4.001  0.4654 -0.2351 -0.3977
   13CHTO   C41 5353   5.869   5.091   4.084 -0.1996 -0.1991 -0.4362
   13CHTO   H83 5354   5.776   5.149   4.085  2.3492  4.0985  1.2290
   13CHTO   C52 5355   5.923   5.081   4.231 -1.1662  0.4568 -0.3505
   13CHTO   O35 5356   5.965   5.206   4.282 -0.2469 -0.4658 -0.0603
   13CHTO   H71 5357   6.034   5.196   4.344 -0.6136 -0.7939  0.2948
   13CHTO   O28 5358   6.016   5.297   3.825 -0.3045 -0.3205  0.0413
   13CHTO   C42 5359   6.005   5.442   3.811  0.5261  0.3359  0.2344
   13CHTO   H84 5360   6.107   5.464   3.780  0.1165  0.1491 -1.3288
   13CHTO   C44 5361   5.980   5.531   3.935 -0.6327  0.5134 -0.2037
   13CHTO   H86 5362   5.886   5.502   3.982 -1.5691  0.8463 -1.8554
   13CHTO   O32 5363   6.083   5.497   4.032  0.3907  0.6918 -0.1332
   13CHTO   H69 5364   6.074   5.408   4.060 -0.1847  0.6831 -0.3307
   13CHTO   C48 5365   5.979   5.686   3.902 -0.1169  0.3542  0.6692
   13CHTO   H90 5366   6.070   5.725   3.856 -0.0548 -1.7081 -1.0459
   13CHTO    N9 5367   5.949   5.763   4.026  0.0501 -0.0162  0.0158
   13CHTO   H77 5368   5.843   5.747   4.045 -0.0631 -0.3148 -0.8393
   13CHTO   H78 5369   5.961   5.869   4.009  0.8610 -0.0024  0.6323
   13CHTO   C51 5370   5.868   5.720   3.785  0.0899 -0.5943  0.0928
   13CHTO   H93 5371   5.770   5.695   3.827 -0.0010  1.1783  0.9550
   13CHTO   O30 5372   5.905   5.637   3.676  0.0772 -0.1943  0.3477
   13CHTO   C46 5373   5.908   5.486   3.700  0.1039  0.2026  0.1493
   13CHTO   H88 5374   5.807   5.451   3.723 -0.2417  2.3537  2.0886
   13CHTO   C53 5375   5.958   5.427   3.569  0.6870  0.3286  0.1783
   13CHTO   O72 5376   5.866   5.416   3.461 -0.6837 -0.2825  0.5608
   13CHTO  H199 5377   5.905   5.418   3.375 -0.1943  1.8354  0.8073
   13CHTO   O22 5378   5.861   5.853   3.735  0.5292 -0.5183 -0.0567
   13CHTO   C31 5379   5.728   5.920   3.705 -0.4305  0.4239 -0.9833
   13CHTO   H59 5380   5.755   6.009   3.644  1.3246  0.3250 -0.3975
   13CHTO   C29 5381   5.643   5.826   3.619  1.0699  0.3207  0.6315
   13CHTO   H57 5382   5.628   5.746   3.693 -1.3753  1.2989  1.2326
   13CHTO   O21 5383   5.713   5.776   3.503 -0.4202  0.1807 -0.0975
   13CHTO   H37 5384   5.799   5.755   3.536 -0.3171  2.5446  1.2861
   13CHTO   C27 5385   5.499   5.895   3.584  0.6968 -0.4427 -0.6597
   13CHTO   H55 5386   5.529   5.982   3.524 -2.3162  0.2407 -1.2614
   13CHTO    N5 5387   5.412   5.804   3.506  0.7582  0.0101 -0.2706
   13CHTO   H43 5388   5.446   5.801   3.404  0.7568  1.9351 -0.3466
   13CHTO   H44 5389   5.402   5.705   3.547 -0.2351 -0.0689 -0.6833
   13CHTO   C25 5390   5.442   5.945   3.730  0.0395  0.2320  0.2012
   13CHTO   H53 5391   5.442   5.858   3.797 -2.0501  0.1027  0.0717
   13CHTO   O17 5392   5.537   6.038   3.796 -0.1810  0.0209 -0.1499
   13CHTO   C32 5393   5.666   5.976   3.828  0.2610  0.0669  0.6153
   13CHTO   H60 5394   5.637   5.893   3.893  1.3527 -1.0601 -0.3096
   13CHTO   C36 5395   5.753   6.085   3.886  0.4951 -0.1116 -0.2587
   13CHTO   O25 5396   5.740   6.118   4.027 -0.4782  0.1382  0.0485
   13CHTO   H40 5397   5.722   6.210   4.035  1.7649  0.6867 -0.9423
   13CHTO   O15 5398   5.336   6.000   3.725 -0.2610  0.1536 -0.7251
   13CHTO   C19 5399   5.225   6.087   3.693  0.4924 -0.1585  0.4789
   13CHTO   H47 5400   5.175   6.111   3.788 -0.9658 -0.1306 -0.2920
   13CHTO   C20 5401   5.255   6.231   3.622  0.1680  0.4587 -0.1932
   13CHTO   H48 5402   5.303   6.218   3.524  0.9145  2.1050 -0.0638
   13CHTO   O19 5403   5.342   6.294   3.715  0.4011  0.0479 -0.3969
   13CHTO   H35 5404   5.385   6.361   3.666  0.0785  0.6571  0.1531
   13CHTO   C21 5405   5.115   6.314   3.605 -0.7808  0.2661  0.4156
   13CHTO   H49 5406   5.070   6.321   3.704 -0.4653 -3.2783  0.8697
   13CHTO    N4 5407   5.146   6.446   3.551  0.2460 -0.1929  0.4248
   13CHTO   H41 5408   5.174   6.515   3.629 -0.7955 -1.3410  1.8316
   13CHTO   H42 5409   5.058   6.483   3.500  0.5620 -0.0101  0.0082
   13CHTO   C22 5410   5.023   6.227   3.515  0.3550 -0.2127  0.3722
   13CHTO   H50 5411   5.072   6.206   3.419  1.2388  0.4421  0.6732
   13CHTO   O14 5412   4.997   6.096   3.580 -0.0510 -0.4047  0.0049
   13CHTO   C23 5413   5.110   6.018   3.609 -0.1408 -1.1923 -0.5003
   13CHTO   H51 5414   5.143   5.982   3.510 -1.0012  0.6116 -1.4742
   13CHTO   C34 5415   5.054   5.889   3.672  0.9450 -0.0767 -0.5667
   13CHTO   O23 5416   4.992   5.801   3.578 -0.3140  0.4320 -0.3148
   13CHTO   H38 5417   4.947   5.853   3.515 -0.0682  1.9308  0.7156
   13CHTO   O16 5418   4.891   6.285   3.502  0.6289 -0.2259 -0.5878
   13CHTO   C24 5419   4.831   6.294   3.358 -0.1663 -0.0104  0.1426
   13CHTO   H52 5420   4.907   6.280   3.281 -0.1944 -2.5774  0.5316
   13CHTO   C26 5421   4.774   6.437   3.351 -0.2322 -0.1645 -0.6830
   13CHTO   H54 5422   4.706   6.453   3.437  0.1728 -2.5079  0.0838
   13CHTO   O20 5423   4.883   6.525   3.358  0.2738  0.1140  0.1806
   13CHTO   H36 5424   4.914   6.536   3.270 -0.9196 -1.0876 -0.4068
   13CHTO   C30 5425   4.672   6.454   3.226  0.3475 -0.4098 -0.3177
   13CHTO   H58 5426   4.731   6.466   3.134 -1.2440  1.9615 -1.0647
   13CHTO    N6 5427   4.594   6.583   3.232  0.2886  0.1414 -0.3343
   13CHTO   H45 5428   4.509   6.584   3.165  0.3419 -1.4780 -0.4398
   13CHTO   H46 5429   4.561   6.600   3.333 -0.9419  0.0982 -0.7153
   13CHTO   C33 5430   4.583   6.329   3.206 -0.6694  0.1697  0.1640
   13CHTO   H61 5431   4.513   6.325   3.291 -0.1351  1.5130  0.6916
   13CHTO   O18 5432   4.664   6.210   3.213  0.3114  0.1983  0.0757
   13CHTO   C28 5433   4.721   6.189   3.337  0.3932 -0.1523  0.2333
   13CHTO   H56 5434   4.653   6.196   3.421  2.1550 -0.8183  1.7509
   13CHTO   C35 5435   4.779   6.043   3.327  0.4791  0.2274 -0.0674
   13CHTO   O24 5436   4.682   5.935   3.322  0.1123 -0.1855 -0.1119
   13CHTO   H39 5437   4.620   5.947   3.392 -0.3252  2.0411 -0.8211
   13CHTO    O9 5438   4.502   6.333   3.093  0.4757  0.2560  0.4103
   13CHTO   C13 5439   4.354   6.246   3.127  0.3596 -0.0728  0.4626
   13CHTO   H26 5440   4.322   6.269   3.230  1.4422 -0.0236  0.7999
   13CHTO   C11 5441   4.370   6.088   3.102  0.1151  0.3333 -0.8122
   13CHTO   H24 5442   4.432   6.049   3.184  0.2553  1.7314 -0.2257
   13CHTO    O8 5443   4.440   6.073   2.976  0.0179 -0.0434 -0.0999
   13CHTO    H3 5444   4.464   5.983   2.976  0.3193  0.0262  0.5279
   13CHTO    C9 5445   4.231   6.025   3.103 -0.1981  0.4544 -0.0422
   13CHTO   H22 5446   4.187   6.069   3.193  0.7469  0.5142  0.3912
   13CHTO    N2 5447   4.224   5.878   3.122  0.2415 -0.0782 -0.3727
   13CHTO   H10 5448   4.295   5.850   3.199 -1.6920 -0.2937  1.3751
   13CHTO   H11 5449   4.230   5.814   3.035 -1.2679 -0.3745 -0.2741
   13CHTO    C7 5450   4.149   6.086   2.983 -0.5726  0.7119  0.2630
   13CHTO   H20 5451   4.048   6.094   3.030 -0.7173  3.2120 -0.4091
   13CHTO    O4 5452   4.194   6.215   2.935 -0.0191  0.1746  0.4345
   13CHTO   C14 5453   4.239   6.308   3.036  0.2989 -0.4616  0.2206
   13CHTO   H27 5454   4.160   6.342   3.106  0.9253  1.2838  0.1046
   13CHTO   C18 5455   4.279   6.429   2.949  0.1579 -0.0692  0.0729
   13CHTO   O13 5456   4.312   6.538   3.028 -0.6825  0.2198  0.2208
   13CHTO    H7 5457   4.288   6.608   2.970  0.2285  0.3089 -0.0441
   13CHTO    O2 5458   4.133   5.980   2.847 -0.1967 -0.1430 -0.0184
   13CHTO    C1 5459   4.005   5.956   2.805  0.1126  0.3780  0.0338
   13CHTO   H14 5460   3.951   6.052   2.820  0.2603  0.5316 -0.4227
   13CHTO    C2 5461   3.931   5.843   2.886 -0.0874  0.0413 -0.2341
   13CHTO   H15 5462   4.000   5.760   2.863  0.2967  0.5294 -0.8643
   13CHTO    O6 5463   3.920   5.871   3.028  0.1932  0.0392  0.0175
   13CHTO    H1 5464   4.003   5.861   3.071  1.1203  1.6595 -1.3459
   13CHTO    C3 5465   3.788   5.800   2.817  0.7974  0.0142 -0.2341
   13CHTO   H16 5466   3.716   5.881   2.839 -0.4271 -0.7169 -1.4959
   13CHTO    N1 5467   3.729   5.668   2.878 -0.5964 -0.4033 -0.7761
   13CHTO    H8 5468   3.632   5.681   2.924 -0.1648 -0.6263  0.2277
   13CHTO    H9 5469   3.729   5.588   2.805 -0.1883 -2.5292  1.4707
   13CHTO    C4 5470   3.800   5.796   2.663 -0.0184  0.7348 -0.4182
   13CHTO   H17 5471   3.861   5.709   2.637  0.4626  0.8074  0.4507
   13CHTO    O1 5472   3.863   5.915   2.609  0.2082  0.3211 -0.1115
   13CHTO    C5 5473   3.996   5.930   2.655 -0.5129 -0.2401  0.6351
   13CHTO   H18 5474   4.064   5.846   2.638 -0.3030  0.3042 -1.3430
   13CHTO   C16 5475   4.046   6.055   2.573  0.1619 -0.5213 -0.1289
   13CHTO   O11 5476   4.078   6.022   2.436 -0.4285 -0.1579 -0.3547
   13CHTO    H5 5477   4.134   6.082   2.392  1.5592 -1.0785  0.8107
   13CHTO    O3 5478   3.674   5.806   2.604  0.6083 -0.0597 -0.1856
   13CHTO    C6 5479   3.652   5.758   2.467 -0.0030 -0.5758 -0.1732
   13CHTO   H19 5480   3.678   5.830   2.389 -2.3562 -0.4705 -0.8829
   13CHTO    C8 5481   3.712   5.617   2.432  0.0411  0.4664 -0.0221
   13CHTO   H21 5482   3.702   5.553   2.520 -0.7977 -0.2512 -0.6282
   13CHTO    O7 5483   3.853   5.629   2.404 -0.4880 -0.4721  0.0902
   13CHTO    H2 5484   3.901   5.659   2.479 -0.4258  0.3112 -0.2597
   13CHTO   C12 5485   3.637   5.548   2.312  0.2801 -0.0375  0.0547
   13CHTO   H25 5486   3.665   5.604   2.221  0.9489 -0.6856 -0.1434
   13CHTO    N3 5487   3.685   5.405   2.291  0.0280  0.2654 -0.1240
   13CHTO   H12 5488   3.763   5.399   2.217  1.0170 -0.2670  0.9413
   13CHTO   H13 5489   3.599   5.346   2.263 -0.7294  0.8615  0.8749
   13CHTO   C15 5490   3.482   5.554   2.327 -0.4782 -0.0824 -0.4701
   13CHTO   H28 5491   3.443   5.503   2.415  0.4689 -0.1363 -0.0753
   13CHTO   O10 5492   3.401   5.510   2.203  0.7739 -0.7536  0.5212
   13CHTO    H4 5493   3.403   5.416   2.204 -1.6042 -0.8915 -1.1134
   13CHTO    O5 5494   3.450   5.691   2.341 -0.4580  0.3815  0.1230
   13CHTO   C10 5495   3.498   5.747   2.461 -0.0807 -0.3257  0.1215
   13CHTO   H23 5496   3.463   5.684   2.543  2.8644 -0.4545  1.3542
   13CHTO   C17 5497   3.436   5.884   2.471 -0.2169 -0.5913 -0.0298
   13CHTO   O12 5498   3.295   5.871   2.513 -0.3252  0.3997  0.3549
   13CHTO    H6 5499   3.234   5.848   2.446 -0.0694  1.0888 -0.1255
   14CHTO  H203 5500   5.779   4.252   0.632 -0.3467  1.1460  1.1460
   14CHTO   O82 5501   5.698   4.240   0.587  0.3272  0.0829  0.1774
   14CHTO  C123 5502   5.595   4.209   0.683  0.4815  0.3325  0.4176
   14CHTO  H227 5503   5.607   4.276   0.770 -0.1530  2.7597 -1.3068
   14CHTO   O77 5504   5.472   4.233   0.615 -0.3599 -0.0826 -0.4111
   14CHTO  C118 5505   5.351   4.223   0.699  0.4485 -0.0349  0.1045
   14CHTO  H222 5506   5.351   4.288   0.788 -0.9712 -0.2577  0.2894
   14CHTO  C125 5507   5.237   4.260   0.608  0.4185 -1.0458 -0.2498
   14CHTO   O84 5508   5.213   4.398   0.585 -0.2676 -0.1596 -0.4302
   14CHTO  H205 5509   5.237   4.456   0.655 -1.0878  0.6215 -0.7806
   14CHTO  C114 5510   5.336   4.074   0.735  0.0020  0.0205  0.3082
   14CHTO  H218 5511   5.326   4.011   0.647 -0.8839  1.3425 -0.5378
   14CHTO  C116 5512   5.465   4.017   0.809 -0.2680  0.3979  0.5088
   14CHTO  H220 5513   5.467   4.059   0.912  1.9651 -1.3436  1.1911
   14CHTO   O79 5514   5.454   3.883   0.830 -0.2494  0.0807  0.5420
   14CHTO  H201 5515   5.465   3.828   0.756  3.1990  1.1143  0.1818
   14CHTO  C120 5516   5.599   4.056   0.729 -0.5540  0.6386 -0.4338
   14CHTO  H224 5517   5.610   3.995   0.637  0.2552  1.3102 -0.7953
   14CHTO   N21 5518   5.715   4.028   0.822 -0.1457  0.3278 -0.4391
   14CHTO  H211 5519   5.805   4.030   0.762  0.1610 -3.5169 -0.1777
   14CHTO  H212 5520   5.724   4.099   0.903  0.7473  2.8958 -2.6709
   14CHTO   O75 5521   5.215   4.068   0.817 -0.2439  0.0996  0.2715
   14CHTO  C112 5522   5.107   3.952   0.764  0.5041  0.5927 -0.1731
   14CHTO  H216 5523   5.151   3.851   0.765 -1.2665 -0.2073 -0.4174
   14CHTO   O73 5524   5.056   3.983   0.635 -0.1368  0.2767 -0.0118
   14CHTO  C113 5525   4.956   3.890   0.586  0.0065 -0.7785 -0.4143
   14CHTO  H217 5526   4.991   3.784   0.592  0.0976 -0.8238 -1.5801
   14CHTO  C124 5527   4.927   3.932   0.435  0.1786 -0.5860 -0.0220
   14CHTO   O83 5528   5.020   3.880   0.343  0.1596 -0.0844  0.0008
   14CHTO  H204 5529   4.988   3.879   0.255  0.1714 -1.5513  0.0065
   14CHTO  C109 5530   4.832   3.900   0.678 -0.1484 -0.0647  0.3159
   14CHTO  H213 5531   4.796   4.003   0.672 -1.1613 -0.4455 -0.2230
   14CHTO  C110 5532   4.880   3.852   0.823 -0.4957  0.2663 -0.2416
   14CHTO  H214 5533   4.925   3.754   0.815  1.2409  0.9570  0.8423
   14CHTO   O78 5534   4.770   3.860   0.918 -0.1043 -0.2411 -0.7863
   14CHTO  H200 5535   4.793   3.820   0.999  1.9968 -0.0813 -1.2545
   14CHTO  C111 5536   4.993   3.945   0.870 -0.4102 -0.1645  0.0889
   14CHTO  H215 5537   4.957   4.049   0.874  1.0109  0.4746 -2.2468
   14CHTO   N19 5538   5.045   3.917   1.005  0.3477  0.2291 -0.3627
   14CHTO  H207 5539   5.115   3.994   1.033 -0.3982  1.3392 -1.4990
   14CHTO  H208 5540   4.963   3.913   1.074 -0.6082 -0.0366 -1.4850
   14CHTO   O74 5541   4.728   3.808   0.635 -0.1849  0.2408 -0.1211
   14CHTO  C115 5542   4.597   3.881   0.567  0.4556  0.1960 -0.7531
   14CHTO  H219 5543   4.598   3.989   0.580 -1.7558  0.0170  1.2594
   14CHTO   O76 5544   4.592   3.865   0.405 -0.0850  0.2516 -0.5940
   14CHTO  C122 5545   4.558   3.738   0.357  0.1627  0.5124  0.2475
   14CHTO  H226 5546   4.643   3.673   0.381  0.3055  0.1838 -1.0894
   14CHTO  C126 5547   4.552   3.745   0.206 -0.1509  0.5651 -0.3313
   14CHTO   O85 5548   4.681   3.766   0.161 -0.5767 -0.5496  0.2191
   14CHTO  H206 5549   4.686   3.803   0.075 -0.0038 -0.4466  0.2921
   14CHTO  C121 5550   4.415   3.687   0.415 -0.5375 -0.7756  0.4494
   14CHTO  H225 5551   4.347   3.682   0.328  1.5258  0.7166 -1.3184
   14CHTO   O81 5552   4.427   3.557   0.480 -0.2783 -0.1154  0.8975
   14CHTO  H202 5553   4.350   3.528   0.524 -1.1449 -1.5577 -1.4738
   14CHTO  C119 5554   4.359   3.789   0.514  0.4225 -0.1158  1.0742
   14CHTO  H223 5555   4.341   3.874   0.448  0.7134 -0.1206  0.9888
   14CHTO  C117 5556   4.460   3.829   0.630 -0.1280  0.1403  0.2662
   14CHTO  H221 5557   4.484   3.743   0.694  0.7883 -1.1723 -1.7744
   14CHTO   N20 5558   4.392   3.933   0.719 -0.2487 -0.3068 -0.5785
   14CHTO  H209 5559   4.457   3.988   0.785  0.3491  1.0425 -2.2575
   14CHTO  H210 5560   4.354   4.015   0.660 -0.5821  0.8230  1.1554
   14CHTO   O80 5561   4.206   3.743   0.556  0.6328  0.4261  0.2423
   14CHTO  C103 5562   4.088   3.742   0.438 -0.6610 -0.1324 -0.0418
   14CHTO  H190 5563   4.122   3.798   0.351 -3.3961  1.1510 -0.3406
   14CHTO  C101 5564   4.023   3.603   0.391 -0.4724  0.3511  0.3025
   14CHTO  H188 5565   3.980   3.549   0.475 -2.6769  0.4918 -0.6994
   14CHTO   O68 5566   4.144   3.509   0.345 -0.2769 -0.1572  0.1713
   14CHTO  H168 5567   4.137   3.422   0.381  0.5899 -0.6864 -0.8963
   14CHTO   C99 5568   3.904   3.632   0.286  0.5861 -0.0481  0.0099
   14CHTO  H186 5569   3.944   3.690   0.201 -1.8726  0.6773 -0.6636
   14CHTO   N17 5570   3.847   3.502   0.231  0.0957  0.1885 -0.1771
   14CHTO  H174 5571   3.853   3.421   0.303  2.0264  0.7204  0.2781
   14CHTO  H175 5572   3.747   3.507   0.191  0.0879  0.7961 -0.0836
   14CHTO   C97 5573   3.796   3.721   0.348  0.0794 -0.1920  0.7712
   14CHTO  H184 5574   3.736   3.662   0.419  1.6436 -3.2399 -0.3866
   14CHTO   O64 5575   3.857   3.836   0.410 -0.2210  0.2062 -0.2322
   14CHTO  C104 5576   3.967   3.832   0.500  0.6350  0.8954  0.1159
   14CHTO  H191 5577   3.933   3.794   0.597  1.2654  1.1446  0.4350
   14CHTO  C108 5578   3.999   3.981   0.519  0.4728  0.2025 -0.2210
   14CHTO   O71 5579   4.087   4.009   0.632 -0.0448 -0.1552  0.2316
   14CHTO  H171 5580   4.073   4.096   0.665  0.2834  0.0390 -0.1344
   14CHTO   O62 5581   3.708   3.777   0.242 -0.2065 -0.0531 -0.0396
   14CHTO   C91 5582   3.589   3.856   0.273  0.0827 -0.3390 -0.0840
   14CHTO  H178 5583   3.578   3.865   0.381 -1.6527  1.1575 -0.3706
   14CHTO   C92 5584   3.467   3.786   0.211  0.4845  0.3227  0.0668
   14CHTO  H179 5585   3.469   3.676   0.222  1.3913  0.3580  0.2717
   14CHTO   O66 5586   3.354   3.831   0.293  0.4604 -0.4408  0.1166
   14CHTO  H166 5587   3.327   3.919   0.274  0.2137 -0.1555  1.7061
   14CHTO   C93 5588   3.438   3.818   0.063 -0.6199 -0.3607  0.8212
   14CHTO  H180 5589   3.332   3.798   0.042 -1.1231  0.2488  2.7031
   14CHTO   N16 5590   3.505   3.720  -0.025 -0.1552  0.7873  0.3200
   14CHTO  H172 5591   3.547   3.779  -0.106  1.7822 -0.8492  0.0814
   14CHTO  H173 5592   3.445   3.637  -0.058 -1.4141  1.8616 -0.1371
   14CHTO   C94 5593   3.476   3.963   0.021  0.1389  0.2332  0.1964
   14CHTO  H181 5594   3.565   3.965  -0.041  0.6528  1.0493  0.9495
   14CHTO   O61 5595   3.502   4.044   0.139 -0.6682 -0.3203 -0.0811
   14CHTO   C95 5596   3.603   4.005   0.229  0.4266  0.5953  0.1875
   14CHTO  H182 5597   3.698   4.017   0.178 -0.8018  2.1269 -1.8399
   14CHTO  C106 5598   3.607   4.095   0.362  1.0245  0.0232  0.2281
   14CHTO   O69 5599   3.622   4.234   0.323  0.3016 -0.1182 -0.2459
   14CHTO  H169 5600   3.655   4.283   0.396  0.4091 -0.0613 -0.3337
   14CHTO   O63 5601   3.376   4.017  -0.065 -0.1668  0.3288  0.0737
   14CHTO   C96 5602   3.381   4.180  -0.092 -0.0891 -0.3082 -0.0128
   14CHTO  H183 5603   3.429   4.219  -0.002  1.9640  1.2691 -1.7258
   14CHTO   C98 5604   3.244   4.244  -0.114  0.1460 -0.0551 -0.5248
   14CHTO  H185 5605   3.204   4.201  -0.207 -1.7070  1.2975 -0.3865
   14CHTO   O67 5606   3.155   4.201  -0.005 -0.3147 -0.2351 -0.0286
   14CHTO  H167 5607   3.097   4.271   0.018 -0.7406  0.1162 -2.1038
   14CHTO  C102 5608   3.254   4.407  -0.136  0.0205 -1.0284 -0.3920
   14CHTO  H189 5609   3.293   4.442  -0.039 -2.3900  1.8204 -0.3771
   14CHTO   N18 5610   3.121   4.481  -0.153  0.5961  0.1543  0.2032
   14CHTO  H176 5611   3.141   4.577  -0.199  0.5493 -1.0893 -2.5336
   14CHTO  H177 5612   3.062   4.416  -0.216  0.1539  2.1572 -1.5039
   14CHTO  C105 5613   3.354   4.439  -0.249 -0.3522 -0.7240 -0.1134
   14CHTO  H192 5614   3.304   4.483  -0.336  0.8768  0.8473 -0.0471
   14CHTO   O65 5615   3.420   4.324  -0.304  0.4857 -0.6440 -0.2164
   14CHTO  C100 5616   3.470   4.217  -0.218  0.1861 -0.1889 -0.1908
   14CHTO  H187 5617   3.462   4.135  -0.291 -1.2756  0.9379 -1.3592
   14CHTO  C107 5618   3.619   4.249  -0.183  0.0517 -0.8957 -0.4128
   14CHTO   O70 5619   3.689   4.126  -0.149  0.3528 -0.4770 -0.5285
   14CHTO  H170 5620   3.780   4.147  -0.159  0.3112  0.6713  1.2279
   14CHTO   O57 5621   3.453   4.531  -0.198 -0.4374 -0.0091 -0.2617
   14CHTO   C85 5622   3.476   4.660  -0.260 -0.6360 -0.0437  0.3761
   14CHTO  H157 5623   3.381   4.674  -0.316 -2.0405  0.0734  2.6756
   14CHTO   C83 5624   3.588   4.652  -0.372  0.4157  0.1183  0.0235
   14CHTO  H155 5625   3.557   4.578  -0.446 -0.3660  0.5593 -0.0951
   14CHTO   O56 5626   3.710   4.596  -0.317 -0.0777 -0.3489 -0.6139
   14CHTO  H135 5627   3.693   4.508  -0.288 -1.5998  0.7912  2.1629
   14CHTO   C81 5628   3.602   4.793  -0.432  0.8853 -0.6383  0.4206
   14CHTO  H153 5629   3.506   4.817  -0.478 -0.6855 -0.3667  3.7130
   14CHTO   N14 5630   3.689   4.797  -0.552  0.2484 -0.6063  0.3346
   14CHTO  H141 5631   3.725   4.698  -0.572 -3.0844 -2.2691  2.1114
   14CHTO  H142 5632   3.769   4.867  -0.547 -0.8425  0.7264 -0.6299
   14CHTO   C79 5633   3.641   4.903  -0.331  0.2343 -0.0477  0.1434
   14CHTO  H151 5634   3.633   4.997  -0.385  0.7528 -1.3722 -2.3080
   14CHTO   O52 5635   3.533   4.903  -0.228 -0.7102 -0.0182 -0.2207
   14CHTO   C86 5636   3.506   4.779  -0.159  0.1474  0.0696 -0.5667
   14CHTO  H158 5637   3.588   4.762  -0.086  0.3778  0.3852 -0.7525
   14CHTO   C90 5638   3.382   4.810  -0.075 -0.4915 -0.5962 -0.1123
   14CHTO   O60 5639   3.354   4.704   0.018  0.0732  0.6242  0.0848
   14CHTO  H138 5640   3.415   4.713   0.089 -0.0006 -1.2924  0.4162
   14CHTO   O50 5641   3.766   4.887  -0.272 -0.3934 -0.3769 -0.0866
   14CHTO   C73 5642   3.847   4.941  -0.168  0.3736  0.1909 -0.7392
   14CHTO  H145 5643   3.822   4.899  -0.069  1.1241  1.6575  0.0858
   14CHTO   C74 5644   3.819   5.086  -0.152  0.2061 -0.2802  0.2193
   14CHTO  H146 5645   3.713   5.096  -0.127  0.1991 -0.4417  0.2491
   14CHTO   O54 5646   3.895   5.135  -0.043 -0.1186  0.3559  0.5894
   14CHTO  H133 5647   3.885   5.228  -0.028  0.1606  0.7347 -1.4040
   14CHTO   C75 5648   3.858   5.161  -0.286 -0.1757 -0.4649  0.6542
   14CHTO  H147 5649   3.799   5.121  -0.369  0.8055 -0.1431 -0.2042
   14CHTO   N13 5650   3.834   5.310  -0.280 -0.0340  0.3110 -0.1728
   14CHTO  H139 5651   3.730   5.327  -0.257  0.1679 -0.9530  1.7924
   14CHTO  H140 5652   3.871   5.353  -0.372  1.3742  1.4808  0.9042
   14CHTO   C76 5653   4.010   5.127  -0.321 -0.1841 -0.2467  1.4796
   14CHTO  H148 5654   4.060   5.184  -0.243 -1.7340  1.7934  1.0540
   14CHTO   O49 5655   4.040   4.980  -0.317 -0.5344 -0.7375  0.1355
   14CHTO   C77 5656   3.991   4.915  -0.200  0.7166 -0.4319  0.0484
   14CHTO  H149 5657   4.053   4.931  -0.111  1.0564  0.0028 -0.2632
   14CHTO   C88 5658   4.019   4.769  -0.221  0.1560 -0.3693 -0.2457
   14CHTO   O58 5659   4.167   4.754  -0.241 -0.1504 -0.4541  0.2463
   14CHTO  H136 5660   4.192   4.740  -0.331 -3.2747 -1.5743 -0.5097
   14CHTO   O51 5661   4.030   5.173  -0.480  0.1398  0.6088 -0.0054
   14CHTO   C78 5662   4.189   5.208  -0.531 -0.3302  0.0234 -0.1157
   14CHTO  H150 5663   4.255   5.222  -0.443 -0.4037  2.1953 -0.3816
   14CHTO   C80 5664   4.185   5.343  -0.604  0.0058 -0.9849 -0.1237
   14CHTO  H152 5665   4.122   5.332  -0.695 -1.8910  0.3389  0.9877
   14CHTO   O55 5666   4.130   5.448  -0.515  0.3080  0.4016 -0.1081
   14CHTO  H134 5667   4.128   5.412  -0.429 -1.3639  0.3310 -0.1512
   14CHTO   C84 5668   4.327   5.376  -0.649  0.5216 -0.5020 -0.1221
   14CHTO  H156 5669   4.382   5.385  -0.555 -1.2912  0.6069  0.8510
   14CHTO   N15 5670   4.343   5.503  -0.718  0.4695 -0.3597  0.1569
   14CHTO  H143 5671   4.323   5.492  -0.823 -1.0196  0.1386  0.3696
   14CHTO  H144 5672   4.439   5.545  -0.698  0.2959 -0.3123  0.9384
   14CHTO   C87 5673   4.385   5.263  -0.740 -0.4048 -0.0280  0.7669
   14CHTO  H159 5674   4.319   5.258  -0.827  2.2387  1.1636 -1.3780
   14CHTO   O53 5675   4.379   5.132  -0.667 -0.1380  0.0714  0.1714
   14CHTO   C82 5676   4.247   5.096  -0.623  0.1526  0.3236 -0.1656
   14CHTO  H154 5677   4.187   5.087  -0.714  1.5427  2.0337 -1.2762
   14CHTO   C89 5678   4.249   4.957  -0.560  0.3112  0.1926 -0.3182
   14CHTO   O59 5679   4.307   4.862  -0.653  0.2101 -0.5123  0.2775
   14CHTO  H137 5680   4.347   4.906  -0.726 -0.1853  1.0586  0.9922
   14CHTO   O45 5681   4.555   5.280  -0.783 -0.3539 -0.2670  0.0259
   14CHTO   C67 5682   4.646   5.312  -0.679  0.3877  0.3212  0.1602
   14CHTO  H124 5683   4.622   5.411  -0.639  1.5186 -0.2374  2.2622
   14CHTO   C65 5684   4.654   5.209  -0.564 -0.1034 -0.3835 -0.0813
   14CHTO  H122 5685   4.553   5.210  -0.524  0.5719  1.9481  1.6753
   14CHTO   O44 5686   4.744   5.253  -0.460 -0.0464  0.0736 -0.0518
   14CHTO  H102 5687   4.755   5.171  -0.416 -2.7860  0.0651  0.7283
   14CHTO   C63 5688   4.690   5.077  -0.625  0.0916 -0.2953 -0.6555
   14CHTO  H120 5689   4.631   5.059  -0.715  0.4819  2.9176 -1.5899
   14CHTO   N11 5690   4.680   4.949  -0.546  0.4925 -0.0968 -0.0953
   14CHTO  H108 5691   4.765   4.889  -0.569 -1.0682 -2.5765  0.3684
   14CHTO  H109 5692   4.672   4.975  -0.443  2.6374  1.2676 -0.2504
   14CHTO   C61 5693   4.829   5.083  -0.702 -0.4700  0.3667  0.7395
   14CHTO  H118 5694   4.832   5.005  -0.780  1.3411 -1.2551  2.4086
   14CHTO   O40 5695   4.847   5.212  -0.784 -0.0441 -0.0870  0.1100
   14CHTO   C68 5696   4.781   5.337  -0.750 -0.8315  0.5420  0.3717
   14CHTO  H125 5697   4.764   5.390  -0.846  2.0860 -2.1762 -1.7442
   14CHTO   C72 5698   4.883   5.420  -0.670 -0.0088 -0.3676 -0.2272
   14CHTO   O48 5699   4.987   5.456  -0.754 -0.1308 -0.0048  0.0264
   14CHTO  H105 5700   5.038   5.378  -0.768  0.8459  0.7877 -0.9320
   14CHTO   O38 5701   4.945   5.064  -0.611 -0.1990  0.2290  0.0705
   14CHTO   C55 5702   5.062   4.999  -0.665 -0.3093 -0.6379 -0.3423
   14CHTO  H112 5703   5.083   5.027  -0.769 -2.5457 -1.5861 -1.0880
   14CHTO   C56 5704   5.054   4.844  -0.658  0.3160 -0.3987  0.3539
   14CHTO  H113 5705   5.049   4.806  -0.555 -3.4697 -1.4682 -0.1595
   14CHTO   O42 5706   4.930   4.792  -0.711  0.3324 -0.2190  0.5731
   14CHTO  H100 5707   4.888   4.734  -0.652 -0.0816 -0.2648  0.2377
   14CHTO   C57 5708   5.180   4.777  -0.729  0.2150  0.1891  0.1574
   14CHTO  H114 5709   5.174   4.808  -0.833  1.1888  0.5243  0.1974
   14CHTO   N10 5710   5.175   4.629  -0.725  0.0551  0.1032 -0.4388
   14CHTO  H106 5711   5.223   4.596  -0.634  1.6770 -1.2247 -1.7445
   14CHTO  H107 5712   5.232   4.589  -0.808  2.2202  1.8319  0.1555
   14CHTO   C58 5713   5.309   4.832  -0.667  0.5454 -0.1885  0.5128
   14CHTO  H115 5714   5.313   4.789  -0.565 -2.5932  0.5452  1.0035
   14CHTO   O37 5715   5.303   4.979  -0.654 -0.9133 -0.4750  0.5733
   14CHTO   C59 5716   5.192   5.034  -0.586  0.4988 -0.3450 -0.4578
   14CHTO  H116 5717   5.175   5.004  -0.482 -0.4174 -1.0722 -0.8052
   14CHTO   C70 5718   5.194   5.187  -0.587  0.2219  0.0590  0.2087
   14CHTO   O46 5719   5.313   5.241  -0.536  0.1377  0.5034 -0.3774
   14CHTO  H103 5720   5.330   5.333  -0.544 -1.2640  0.8734  0.8091
   14CHTO   O39 5721   5.429   4.786  -0.745  0.1965 -0.7917 -0.2555
   14CHTO   C60 5722   5.547   4.748  -0.668  0.3065 -0.2019  0.2784
   14CHTO  H117 5723   5.556   4.807  -0.576  1.5637 -3.7197  2.4868
   14CHTO   C62 5724   5.547   4.600  -0.622 -0.0695  0.3061 -0.7250
   14CHTO  H119 5725   5.455   4.590  -0.561  0.4137 -1.8838 -0.3061
   14CHTO   O43 5726   5.528   4.515  -0.734  0.2105  0.1601  0.1978
   14CHTO  H101 5727   5.594   4.529  -0.800 -1.0412  1.2493 -0.8748
   14CHTO   C66 5728   5.683   4.571  -0.537  0.6221  0.5835 -0.4061
   14CHTO  H123 5729   5.675   4.625  -0.443  3.3811 -0.0801  0.2629
   14CHTO   N12 5730   5.694   4.432  -0.487 -0.4504  0.6627  0.3150
   14CHTO  H110 5731   5.680   4.428  -0.380  0.4904  0.2960  0.4287
   14CHTO  H111 5732   5.796   4.401  -0.505 -0.2595  1.7005 -0.4315
   14CHTO   C69 5733   5.805   4.607  -0.623 -0.0325 -0.6088  0.3699
   14CHTO  H126 5734   5.805   4.542  -0.712  0.2624 -1.8456  1.2541
   14CHTO   O41 5735   5.804   4.755  -0.674  0.4080 -0.3898  0.4874
   14CHTO   C64 5736   5.671   4.788  -0.750  0.3111 -0.3333 -0.1921
   14CHTO  H121 5737   5.669   4.748  -0.854 -2.7440  0.2744 -0.4337
   14CHTO   C71 5738   5.667   4.935  -0.781  0.0786  0.0011 -0.1033
   14CHTO   O47 5739   5.776   4.955  -0.875  1.0494  0.4907  0.0890
   14CHTO  H104 5740   5.750   4.968  -0.964  0.0410  0.1116  0.3205
   14CHTO   O34 5741   5.951   4.583  -0.555  0.3025 -0.1466  0.0020
   14CHTO   C49 5742   6.091   4.563  -0.503 -0.4873 -0.1402 -0.5543
   14CHTO   H91 5743   6.136   4.496  -0.576 -0.9886 -0.4248 -0.6018
   14CHTO   C47 5744   6.092   4.489  -0.373 -0.1081 -0.3880  0.5328
   14CHTO   H89 5745   6.199   4.464  -0.357 -0.2393 -1.8768 -0.7785
   14CHTO   O33 5746   6.017   4.368  -0.383 -0.0460  0.5044 -0.2446
   14CHTO   H70 5747   5.926   4.388  -0.393 -1.2925 -3.5483  1.9280
   14CHTO   C45 5748   6.049   4.584  -0.249 -0.3932  0.2093 -0.2046
   14CHTO   H87 5749   5.943   4.564  -0.226  0.1140  0.4501  2.5149
   14CHTO    N8 5750   6.127   4.556  -0.129 -0.4376  0.5279  0.0097
   14CHTO   H75 5751   6.175   4.460  -0.139 -0.3337  0.6541 -0.6850
   14CHTO   H76 5752   6.207   4.628  -0.119 -1.2105  1.6106 -1.4073
   14CHTO   C43 5753   6.049   4.742  -0.289 -1.5472 -0.2803  0.1320
   14CHTO   H85 5754   5.963   4.747  -0.356 -1.7106 -0.4894  0.3253
   14CHTO   O29 5755   6.176   4.749  -0.366 -0.3251  0.0248 -0.1477
   14CHTO   C50 5756   6.175   4.691  -0.499 -0.1515 -0.3674  0.1235
   14CHTO   H92 5757   6.127   4.760  -0.571 -1.7436 -3.1800 -1.5942
   14CHTO   C54 5758   6.318   4.673  -0.555 -0.2167 -0.6063 -0.6304
   14CHTO   O36 5759   6.418   4.623  -0.468 -0.5187  1.2671 -0.4006
   14CHTO   H72 5760   6.383   4.547  -0.425  0.9418 -0.4838 -2.1525
   14CHTO   O27 5761   6.025   4.837  -0.184  0.3792 -0.4293 -0.5626
   14CHTO   C37 5762   5.909   4.918  -0.158  0.5545  0.3888 -0.5273
   14CHTO   H79 5763   5.943   5.007  -0.103 -1.1471  1.5325 -1.2738
   14CHTO   C38 5764   5.845   4.970  -0.297  0.3147 -0.4425  0.1431
   14CHTO   H80 5765   5.827   4.884  -0.363 -0.1305 -0.3001  0.0798
   14CHTO   O31 5766   5.941   5.062  -0.350  0.1114 -0.1534  0.2726
   14CHTO   H68 5767   6.017   5.016  -0.381  0.6441 -0.7495  2.3921
   14CHTO   C39 5768   5.706   5.038  -0.285 -0.1408 -1.0849  0.2208
   14CHTO   H81 5769   5.717   5.136  -0.239 -3.1964 -0.3392 -0.5152
   14CHTO    N7 5770   5.637   5.072  -0.418  0.2909  0.5550  0.7352
   14CHTO   H73 5771   5.697   5.138  -0.481 -0.6756  0.9186  0.1872
   14CHTO   H74 5772   5.549   5.133  -0.404 -0.0881  0.4802 -1.2184
   14CHTO   C40 5773   5.620   4.943  -0.200  0.2554 -0.0157 -0.2014
   14CHTO   H82 5774   5.599   4.847  -0.246  0.4997 -0.9605  1.6199
   14CHTO   O26 5775   5.677   4.929  -0.066 -0.2369 -0.0784 -0.5423
   14CHTO   C41 5776   5.806   4.845  -0.068  0.1403  0.3930 -0.1764
   14CHTO   H83 5777   5.783   4.741  -0.099 -2.6857  1.4356 -1.7929
   14CHTO   C52 5778   5.868   4.821   0.079 -0.2356 -0.0638 -1.7092
   14CHTO   O35 5779   5.750   4.754   0.177  0.6721  0.2047  0.5450
   14CHTO   H71 5780   5.683   4.819   0.171  0.0111 -0.3754  1.4938
   14CHTO   O28 5781   5.496   5.015  -0.171 -0.3832  0.8397  0.2597
   14CHTO   C42 5782   5.379   4.946  -0.133 -0.6199  0.7129  0.3158
   14CHTO   H84 5783   5.416   4.876  -0.058  0.7743  2.3150  1.1744
   14CHTO   C44 5784   5.296   4.867  -0.242  0.6896  0.4501  0.7752
   14CHTO   H86 5785   5.285   4.931  -0.330  2.3467 -0.8939 -0.4442
   14CHTO   O32 5786   5.370   4.746  -0.286  0.7823  0.0059 -0.3538
   14CHTO   H69 5787   5.417   4.761  -0.366  0.2142  1.6823 -0.3850
   14CHTO   C48 5788   5.158   4.824  -0.182  0.3569 -0.0648 -0.2141
   14CHTO   H90 5789   5.189   4.766  -0.095  0.3591  0.3056  0.0309
   14CHTO    N9 5790   5.073   4.727  -0.260  0.9567  0.2961 -0.1901
   14CHTO   H77 5791   4.976   4.756  -0.298  1.1194 -1.0456 -1.6502
   14CHTO   H78 5792   5.060   4.643  -0.193  0.6745  0.9464  0.5827
   14CHTO   C51 5793   5.077   4.953  -0.136  0.7098 -0.4464 -0.1403
   14CHTO   H93 5794   5.081   5.023  -0.219  2.5249  0.7732  0.9668
   14CHTO   O30 5795   5.163   4.991  -0.031  0.2965  0.4555 -0.0453
   14CHTO   C46 5796   5.280   5.045  -0.056  1.0771 -0.3844  0.1987
   14CHTO   H88 5797   5.262   5.134  -0.116  0.8978  1.1722  2.5060
   14CHTO   C53 5798   5.345   5.088   0.084  0.1670  0.6652  0.2927
   14CHTO   O72 5799   5.359   4.986   0.184  0.1621  0.1921 -1.0377
   14CHTO  H199 5800   5.387   5.021   0.267  1.2514 -0.2936 -1.1854
   14CHTO   O22 5801   4.949   4.931  -0.073  0.6000 -0.4925  0.2142
   14CHTO   C31 5802   4.845   5.034  -0.094  0.3993 -0.1571 -0.4258
   14CHTO   H59 5803   4.870   5.084  -0.190  0.6559 -0.2343 -0.4017
   14CHTO   C29 5804   4.703   4.979  -0.108  0.0918 -0.5406 -0.3086
   14CHTO   H57 5805   4.671   4.943  -0.009  0.7084  0.3984  0.2417
   14CHTO   O21 5806   4.709   4.863  -0.193 -0.2887  0.0928 -0.0845
   14CHTO   H37 5807   4.762   4.877  -0.269 -1.3307  0.9057 -0.6710
   14CHTO   C27 5808   4.602   5.088  -0.164  0.4330 -0.1355  0.2081
   14CHTO   H55 5809   4.624   5.114  -0.269 -0.1671 -2.1259 -0.4513
   14CHTO    N5 5810   4.463   5.035  -0.160  0.3516 -0.8574 -0.4681
   14CHTO   H43 5811   4.397   5.118  -0.179  2.5448  1.1855  0.6206
   14CHTO   H44 5812   4.436   4.987  -0.067 -0.7928 -0.2546 -0.4864
   14CHTO   C25 5813   4.609   5.226  -0.088 -0.4641 -0.9323  0.1725
   14CHTO   H53 5814   4.553   5.227   0.007  0.2428 -0.1906  0.5816
   14CHTO   O17 5815   4.745   5.258  -0.035 -0.0343  0.4476 -0.5768
   14CHTO   C32 5816   4.826   5.150   0.015  0.2020  0.1031  0.5227
   14CHTO   H60 5817   4.780   5.109   0.105  0.5522  0.7147  0.9892
   14CHTO   C36 5818   4.962   5.211   0.062 -0.5066 -0.5485 -0.2519
   14CHTO   O25 5819   5.033   5.290  -0.034 -0.2623 -0.2151 -0.1141
   14CHTO   H40 5820   4.975   5.359  -0.061 -2.1486 -0.8028  2.2450
   14CHTO   O15 5821   4.562   5.332  -0.170 -0.0748  0.1905 -1.0962
   14CHTO   C19 5822   4.559   5.468  -0.229 -0.5763  0.1797  0.0368
   14CHTO   H47 5823   4.584   5.437  -0.332 -1.4129 -0.7875  0.1213
   14CHTO   C20 5824   4.426   5.545  -0.230  0.2631 -0.1758 -0.5090
   14CHTO   H48 5825   4.401   5.576  -0.127  1.3990 -0.6458 -0.0848
   14CHTO   O19 5826   4.321   5.458  -0.289  0.2954  0.5787 -0.5883
   14CHTO   H35 5827   4.252   5.512  -0.324 -0.6000 -0.6355 -0.7256
   14CHTO   C21 5828   4.444   5.674  -0.325 -0.6624 -0.2766  0.0664
   14CHTO   H49 5829   4.469   5.636  -0.424  5.3542 -1.5690  1.8813
   14CHTO    N4 5830   4.316   5.747  -0.344 -0.2904  0.3122 -0.0756
   14CHTO   H41 5831   4.241   5.680  -0.383 -0.6132 -0.3770  1.6772
   14CHTO   H42 5832   4.321   5.836  -0.404  0.3408  0.0527 -0.4151
   14CHTO   C22 5833   4.561   5.757  -0.265 -1.2005  0.4898 -0.4663
   14CHTO   H50 5834   4.537   5.796  -0.166 -2.0267  1.5747 -1.0905
   14CHTO   O14 5835   4.686   5.679  -0.259 -0.6193  0.1832 -0.2000
   14CHTO   C23 5836   4.675   5.563  -0.174 -0.1047 -0.1296 -0.1979
   14CHTO   H51 5837   4.653   5.603  -0.073 -0.3535 -1.0122  0.0980
   14CHTO   C34 5838   4.820   5.510  -0.172 -0.1994  0.1778 -0.0964
   14CHTO   O23 5839   4.863   5.475  -0.303  0.4283 -0.5034  0.0340
   14CHTO   H38 5840   4.822   5.397  -0.335 -1.3528  0.5252 -0.2721
   14CHTO   O16 5841   4.601   5.865  -0.354 -0.2035  0.0213 -0.2161
   14CHTO   C24 5842   4.700   5.986  -0.291 -0.2345  0.3154 -0.1542
   14CHTO   H52 5843   4.770   6.024  -0.366  1.7237 -1.4300  0.7049
   14CHTO   C26 5844   4.781   5.935  -0.165 -0.0679  0.4582  0.1394
   14CHTO   H54 5845   4.708   5.884  -0.099 -2.2649  3.0015 -0.2771
   14CHTO   O20 5846   4.878   5.837  -0.207  0.4542  0.2509  0.5114
   14CHTO   H36 5847   4.924   5.873  -0.280 -0.0347  0.4521  0.2975
   14CHTO   C30 5848   4.843   6.060  -0.083  0.3487  0.5823  1.0347
   14CHTO   H58 5849   4.925   6.110  -0.136  0.2984 -1.0539 -0.6203
   14CHTO    N6 5850   4.911   6.011   0.043  0.1776  0.3411 -0.3497
   14CHTO   H45 5851   4.842   5.999   0.125  0.0067  2.4601 -0.1337
   14CHTO   H46 5852   4.960   5.918   0.018 -1.5670 -0.8689  0.6584
   14CHTO   C33 5853   4.732   6.163  -0.057 -0.4560  0.2339  0.0946
   14CHTO   H61 5854   4.652   6.110  -0.004 -0.6370 -0.7426 -1.1199
   14CHTO   O18 5855   4.679   6.206  -0.185 -0.3870  0.0811  0.1815
   14CHTO   C28 5856   4.604   6.103  -0.252  0.4178 -0.4923  0.0699
   14CHTO   H56 5857   4.513   6.072  -0.201 -0.2227  1.9666  0.4749
   14CHTO   C35 5858   4.562   6.174  -0.381 -0.2020  0.1002 -0.5765
   14CHTO   O24 5859   4.460   6.105  -0.457 -0.0295  0.1074  0.1716
   14CHTO   H39 5860   4.483   6.126  -0.546  1.3234  0.3465  0.5695
   14CHTO    O9 5861   4.777   6.277   0.026 -0.1890  0.0616 -0.0915
   14CHTO   C13 5862   4.862   6.387  -0.055 -0.8037 -0.0139 -0.5453
   14CHTO   H26 5863   4.880   6.357  -0.161  1.8584 -0.2277 -0.0850
   14CHTO   C11 5864   5.003   6.396   0.028  0.1277  0.4497  0.6564
   14CHTO   H24 5865   5.078   6.323  -0.005 -2.0802 -1.0455 -1.1885
   14CHTO    O8 5866   4.973   6.377   0.166  0.2236 -0.2407 -0.2246
   14CHTO    H3 5867   5.051   6.341   0.203  0.3325 -2.4577 -2.4799
   14CHTO    C9 5868   5.071   6.530   0.001  0.2760 -0.2412 -0.5936
   14CHTO   H22 5869   5.073   6.546  -0.108 -0.4163  0.2379 -0.5430
   14CHTO    N2 5870   5.209   6.534   0.046 -0.6099 -0.0960 -0.5533
   14CHTO   H10 5871   5.243   6.636   0.034 -2.1540  0.5120  0.1554
   14CHTO   H11 5872   5.283   6.466   0.007  0.4191  1.5039 -1.4615
   14CHTO    C7 5873   4.972   6.644   0.051  0.0382 -0.2812  0.5756
   14CHTO   H20 5874   4.973   6.724  -0.026  1.3918 -0.1434  0.7279
   14CHTO    O4 5875   4.834   6.603   0.059  1.0251  0.2791 -0.8658
   14CHTO   C14 5876   4.797   6.536  -0.058  0.0503 -0.2795  0.1121
   14CHTO   H27 5877   4.828   6.597  -0.145 -0.9688 -3.2559 -2.4412
   14CHTO   C18 5878   4.641   6.548  -0.049 -0.0084 -0.3796 -0.4541
   14CHTO   O13 5879   4.570   6.448  -0.123 -0.5296 -0.0712 -0.0303
   14CHTO    H7 5880   4.500   6.486  -0.173  0.1040 -1.7712 -2.2905
   14CHTO    O2 5881   5.013   6.705   0.190  0.0253 -0.0811 -0.0156
   14CHTO    C1 5882   5.048   6.844   0.183  0.3171  1.3867 -0.1221
   14CHTO   H14 5883   5.071   6.875   0.079  1.0758 -1.1299 -0.7464
   14CHTO    C2 5884   5.174   6.873   0.272 -0.3323  0.4939 -0.0932
   14CHTO   H15 5885   5.149   6.845   0.375 -0.4351 -1.6812 -0.6885
   14CHTO    O6 5886   5.283   6.793   0.226 -0.2861  0.3822  0.0612
   14CHTO    H1 5887   5.325   6.832   0.152 -0.2836 -0.2986 -0.3016
   14CHTO    C3 5888   5.204   7.030   0.275  0.5768  0.5625 -0.1164
   14CHTO   H16 5889   5.241   7.056   0.175  0.6977  0.7432 -0.0243
   14CHTO    N1 5890   5.314   7.075   0.363  0.1191  0.6974 -0.7803
   14CHTO    H8 5891   5.409   7.081   0.312  0.5045  1.9283  0.0555
   14CHTO    H9 5892   5.330   7.003   0.442  1.0066  1.7747  0.0317
   14CHTO    C4 5893   5.077   7.122   0.306  0.0039 -0.8034  0.2496
   14CHTO   H17 5894   5.054   7.118   0.413  0.6523  3.2293  0.6360
   14CHTO    O1 5895   4.966   7.077   0.230  0.3753 -0.2113  0.5412
   14CHTO    C5 5896   4.932   6.939   0.240 -0.0143 -0.2146 -0.2816
   14CHTO   H18 5897   4.922   6.917   0.347 -0.8114 -2.2840 -0.7488
   14CHTO   C16 5898   4.797   6.916   0.178  0.6667 -0.5647 -0.2982
   14CHTO   O11 5899   4.690   6.969   0.264 -0.0843  0.6039  0.1226
   14CHTO    H5 5900   4.657   6.901   0.321 -1.6116  0.3450 -1.0422
   14CHTO    O3 5901   5.096   7.259   0.259  0.6668  0.6430  0.2102
   14CHTO    C6 5902   5.066   7.373   0.345  0.6355 -0.1390  0.1824
   14CHTO   H19 5903   5.088   7.351   0.449 -2.8759 -1.4770  0.6922
   14CHTO    C8 5904   5.164   7.492   0.301 -0.6584 -0.0397 -0.6698
   14CHTO   H21 5905   5.188   7.473   0.196  1.6255 -0.1987 -0.1461
   14CHTO    O7 5906   5.292   7.475   0.372 -0.0724  0.5761  0.5038
   14CHTO    H2 5907   5.347   7.422   0.318 -1.3931  0.4452 -0.7517
   14CHTO   C12 5908   5.115   7.637   0.322  0.2698 -0.4256  0.0438
   14CHTO   H25 5909   5.137   7.670   0.425  1.3685  2.0590 -0.9230
   14CHTO    N3 5910   5.188   7.731   0.235 -0.4305 -0.2283 -0.2719
   14CHTO   H12 5911   5.292   7.729   0.265 -0.5236  0.4445  0.0996
   14CHTO   H13 5912   5.176   7.706   0.131 -0.3885  0.9876 -0.5710
   14CHTO   C15 5913   4.955   7.637   0.300 -0.3558  0.0593 -0.2594
   14CHTO   H28 5914   4.925   7.620   0.197 -2.4665 -1.3411  0.5337
   14CHTO   O10 5915   4.894   7.754   0.346  0.2420 -0.5743 -0.0365
   14CHTO    H4 5916   4.886   7.817   0.278 -4.1804 -0.5898  0.3094
   14CHTO    O5 5917   4.902   7.535   0.386 -0.0258  0.3179 -0.2420
   14CHTO   C10 5918   4.916   7.402   0.338 -0.1806 -0.0899  0.4924
   14CHTO   H23 5919   4.868   7.396   0.240  2.0721 -0.2134 -0.6345
   14CHTO   C17 5920   4.836   7.310   0.432 -0.0576 -0.0820  0.3067
   14CHTO   O12 5921   4.694   7.338   0.452 -0.5743 -0.1675  0.2093
   14CHTO    H6 5922   4.654   7.270   0.503  1.1667 -0.1187  1.6882
   15CHTO  H203 5923   5.565   4.078   2.535 -2.5090 -0.8893 -0.9798
   15CHTO   O82 5924   5.587   4.051   2.447 -0.1395  0.1433 -0.7407
   15CHTO  C123 5925   5.465   4.022   2.378 -0.1245 -0.5332  0.7133
   15CHTO  H227 5926   5.446   4.105   2.308 -0.7318 -0.2948  1.1530
   15CHTO   O77 5927   5.493   3.894   2.311 -0.7392  0.0205  0.5332
   15CHTO  C118 5928   5.398   3.828   2.221 -0.4253 -0.1020  0.4165
   15CHTO  H222 5929   5.367   3.884   2.132 -1.2293 -2.2064 -0.6457
   15CHTO  C125 5930   5.455   3.691   2.176  0.1793 -0.2663 -0.3704
   15CHTO   O84 5931   5.580   3.709   2.103  0.0486 -0.1323 -0.0226
   15CHTO  H205 5932   5.607   3.626   2.068 -1.2193 -0.4465 -0.2582
   15CHTO  C114 5933   5.267   3.808   2.297  0.5544  0.7880 -0.1684
   15CHTO  H218 5934   5.290   3.736   2.375 -0.2709 -1.2214 -1.7395
   15CHTO  C116 5935   5.215   3.931   2.367  0.3813 -0.2793 -0.1232
   15CHTO  H220 5936   5.183   4.004   2.290 -1.8428  0.5606  1.5342
   15CHTO   O79 5937   5.089   3.906   2.432 -0.6384  0.2709 -1.0921
   15CHTO  H201 5938   5.023   3.869   2.376 -1.1210 -1.4550  0.5711
   15CHTO  C120 5939   5.329   3.990   2.465 -0.0852 -0.1359 -0.3350
   15CHTO  H224 5940   5.345   3.912   2.543 -2.2944 -1.8501 -1.5746
   15CHTO   N21 5941   5.283   4.105   2.546 -0.1998  0.1156  0.3876
   15CHTO  H211 5942   5.327   4.105   2.645  2.0228 -0.3021 -0.5774
   15CHTO  H212 5943   5.308   4.199   2.499  0.0919 -0.5746 -0.8486
   15CHTO   O75 5944   5.174   3.748   2.205 -0.1858 -0.2539  0.6003
   15CHTO  C112 5945   5.100   3.619   2.258 -0.6384 -0.1095 -0.1522
   15CHTO  H216 5946   5.053   3.642   2.354 -0.4529 -0.6860  0.0840
   15CHTO   O73 5947   5.206   3.522   2.269  0.6371 -0.2671  0.2887
   15CHTO  C113 5948   5.161   3.392   2.311  0.2839  0.2122  0.1935
   15CHTO  H217 5949   5.109   3.400   2.409 -0.5121  0.3314 -0.2354
   15CHTO  C124 5950   5.281   3.302   2.330  0.0999  0.8642  0.1238
   15CHTO   O83 5951   5.339   3.331   2.452 -0.0896  0.0526  0.4579
   15CHTO  H204 5952   5.363   3.246   2.483  0.3791 -1.0186 -2.6517
   15CHTO  C109 5953   5.056   3.336   2.208 -0.2002 -0.2264  0.0123
   15CHTO  H213 5954   5.115   3.313   2.118  0.4175 -1.0165  0.6089
   15CHTO  C110 5955   4.944   3.438   2.179 -0.1618  0.5047  0.2932
   15CHTO  H214 5956   4.867   3.431   2.255 -0.6240 -0.4028 -0.2602
   15CHTO   O78 5957   4.873   3.391   2.064 -0.1799  0.2142  0.7709
   15CHTO  H200 5958   4.855   3.299   2.062  1.4202 -0.0843 -1.9630
   15CHTO  C111 5959   4.992   3.579   2.151 -0.6684  0.6239 -0.7087
   15CHTO  H215 5960   5.041   3.585   2.053 -0.8854  0.8487 -0.8020
   15CHTO   N19 5961   4.882   3.685   2.150  0.1099 -1.3881 -0.5153
   15CHTO  H207 5962   4.856   3.727   2.054 -0.6429  0.9347  0.6685
   15CHTO  H208 5963   4.791   3.650   2.197 -0.1641  1.0419  0.8342
   15CHTO   O74 5964   4.995   3.210   2.263 -0.1232  0.2745 -0.1697
   15CHTO  C115 5965   5.030   3.086   2.183 -0.2067  0.6172  0.1409
   15CHTO  H219 5966   5.128   3.094   2.137 -1.6276  0.2339 -3.0653
   15CHTO   O76 5967   5.047   2.965   2.268 -0.4896  0.6374 -0.1016
   15CHTO  C122 5968   4.925   2.910   2.318 -0.1597  0.7522 -0.1257
   15CHTO  H226 5969   4.880   2.985   2.384  0.2030  1.4827 -0.6982
   15CHTO  C126 5970   4.960   2.798   2.415 -0.0691  0.0638  0.3861
   15CHTO   O85 5971   5.075   2.821   2.496  0.2012  0.3774  0.3702
   15CHTO  H206 5972   5.091   2.741   2.542 -0.6562  0.3332  0.6113
   15CHTO  C121 5973   4.827   2.864   2.202  0.0264 -0.0169 -0.0449
   15CHTO  H225 5974   4.808   2.754   2.200 -1.0780  0.1014  2.3832
   15CHTO   O81 5975   4.702   2.922   2.223  0.7761  0.6068 -0.2923
   15CHTO  H202 5976   4.672   2.901   2.310  1.9322 -0.3462 -0.1172
   15CHTO  C119 5977   4.883   2.905   2.062  0.3962 -0.2144  0.5266
   15CHTO  H223 5978   4.979   2.853   2.066  1.4473  1.5041 -1.5752
   15CHTO  C117 5979   4.917   3.058   2.073  0.1081  0.1240  0.3351
   15CHTO  H221 5980   4.843   3.134   2.098  2.0866  2.0522  0.4697
   15CHTO   N20 5981   4.976   3.114   1.940 -0.2945 -0.0232 -0.6984
   15CHTO  H209 5982   5.027   3.208   1.953 -3.9781  1.7516  1.8593
   15CHTO  H210 5983   5.028   3.036   1.888 -0.8668 -0.5183 -0.5386
   15CHTO   O80 5984   4.818   2.860   1.953  0.4403 -0.0872 -0.1272
   15CHTO  C103 5985   4.799   2.698   1.915  0.1722  0.3045 -0.2214
   15CHTO  H190 5986   4.852   2.638   1.989 -2.4491  0.3556  1.7671
   15CHTO  C101 5987   4.652   2.649   1.900 -0.1047 -0.0486  0.2935
   15CHTO  H188 5988   4.595   2.710   1.830  0.4641 -0.5031 -0.5793
   15CHTO   O68 5989   4.595   2.658   2.044 -0.2534 -0.2440  0.0375
   15CHTO  H168 5990   4.504   2.637   2.040 -0.0440 -1.1736  0.0321
   15CHTO   C99 5991   4.653   2.500   1.836 -0.4575  0.3382 -0.3176
   15CHTO  H186 5992   4.704   2.433   1.908 -0.2059 -0.0435 -0.8469
   15CHTO   N17 5993   4.519   2.437   1.820 -0.1839  0.2659  0.1587
   15CHTO  H174 5994   4.496   2.382   1.910  0.8592  1.6985  1.3225
   15CHTO  H175 5995   4.501   2.378   1.731  1.8655 -0.6253  0.3120
   15CHTO   C97 5996   4.742   2.490   1.714 -0.6130  0.4665  0.0231
   15CHTO  H184 5997   4.697   2.541   1.627 -0.5929 -1.6696 -1.2602
   15CHTO   O64 5998   4.872   2.534   1.744  0.1063 -0.3271 -0.3412
   15CHTO  C104 5999   4.874   2.680   1.779 -0.2871  0.3867  0.7861
   15CHTO  H191 6000   4.827   2.747   1.707 -1.5903 -0.1782  1.0954
   15CHTO  C108 6001   5.015   2.725   1.802  0.7384 -0.3388  0.0374
   15CHTO   O71 6002   5.084   2.720   1.674 -0.1958  0.6703  0.0989
   15CHTO  H171 6003   5.105   2.805   1.640  0.0297 -0.0232 -1.5211
   15CHTO   O62 6004   4.753   2.356   1.665  0.2076 -0.0386 -0.0102
   15CHTO   C91 6005   4.802   2.336   1.529 -0.1984  0.4424 -0.5637
   15CHTO  H178 6006   4.785   2.432   1.479 -3.1320 -0.0921 -0.6570
   15CHTO   C92 6007   4.707   2.238   1.463  0.4566  0.5830 -0.2544
   15CHTO  H179 6008   4.603   2.265   1.484  0.1336 -0.7234 -0.1106
   15CHTO   O66 6009   4.722   2.256   1.319  0.1532  0.2454  0.2775
   15CHTO  H166 6010   4.756   2.185   1.269 -1.6480  0.7717 -1.7879
   15CHTO   C93 6011   4.734   2.087   1.499  0.1972 -0.5753  0.4026
   15CHTO  H180 6012   4.690   2.035   1.413  2.2382  0.8403 -1.5516
   15CHTO   N16 6013   4.661   2.045   1.620  0.8951  1.1828 -0.5839
   15CHTO  H172 6014   4.555   2.026   1.613  1.4122 -2.4370  0.4513
   15CHTO  H173 6015   4.718   1.957   1.645  0.0985  1.2348  1.5077
   15CHTO   C94 6016   4.892   2.061   1.503  0.4845  0.8072 -0.0020
   15CHTO  H181 6017   4.930   2.053   1.604 -0.1903  0.7152  0.2500
   15CHTO   O61 6018   4.975   2.164   1.440  0.5907  0.5255 -0.0678
   15CHTO   C95 6019   4.962   2.297   1.499  0.2629 -0.1044  0.3145
   15CHTO  H182 6020   5.026   2.298   1.587  0.9427  1.5196 -0.1983
   15CHTO  C106 6021   5.028   2.390   1.392 -0.4637  0.0263 -0.8725
   15CHTO   O69 6022   5.002   2.524   1.433 -0.1310 -0.0668  0.1918
   15CHTO  H169 6023   4.908   2.533   1.428 -0.1373 -0.6827 -1.1777
   15CHTO   O63 6024   4.915   1.907   1.429 -0.0612 -0.2026 -0.5337
   15CHTO   C96 6025   5.021   1.812   1.502  0.1014  0.1743  0.3474
   15CHTO  H183 6026   5.058   1.862   1.591  1.1357  1.1057 -0.5864
   15CHTO   C98 6027   5.147   1.795   1.409  0.1425  0.1059 -0.8341
   15CHTO  H185 6028   5.113   1.765   1.309  0.0180 -0.1061 -0.7281
   15CHTO   O67 6029   5.217   1.921   1.400  0.0640 -0.1544  0.2663
   15CHTO  H167 6030   5.174   1.981   1.341  0.5222 -0.9393 -0.8875
   15CHTO  C102 6031   5.243   1.681   1.466 -0.9664  0.6769 -0.0406
   15CHTO  H189 6032   5.289   1.723   1.557 -0.4398 -0.5419  0.2746
   15CHTO   N18 6033   5.358   1.645   1.379 -0.0111 -0.1360 -0.1683
   15CHTO  H176 6034   5.328   1.614   1.280  0.1196 -1.3958  0.1811
   15CHTO  H177 6035   5.428   1.728   1.379 -0.9275  0.6544  0.0165
   15CHTO  C105 6036   5.165   1.561   1.519 -0.1580  0.5442 -0.4164
   15CHTO  H192 6037   5.120   1.503   1.438  1.5978  1.8456 -2.3635
   15CHTO   O65 6038   5.054   1.594   1.605 -0.3513  0.0106 -0.2003
   15CHTO  C100 6039   4.954   1.673   1.541  0.0668 -0.7927 -0.3230
   15CHTO  H187 6040   4.917   1.627   1.449  0.5374  0.5458 -1.2092
   15CHTO  C107 6041   4.837   1.702   1.649  0.1351 -0.1985  0.0545
   15CHTO   O70 6042   4.718   1.742   1.587  0.6627 -0.3229 -0.1135
   15CHTO  H170 6043   4.662   1.666   1.582 -0.8298  0.6904  0.7495
   15CHTO   O57 6044   5.255   1.475   1.598 -0.3669  0.1539 -0.1964
   15CHTO   C85 6045   5.221   1.383   1.702 -0.3559 -0.0798 -0.5522
   15CHTO  H157 6046   5.140   1.427   1.765 -0.0757 -1.2652  0.6487
   15CHTO   C83 6047   5.338   1.367   1.807 -0.7862  0.5078 -0.8674
   15CHTO  H155 6048   5.341   1.458   1.866 -1.4248 -0.2002  0.2820
   15CHTO   O56 6049   5.460   1.342   1.737 -0.0105 -0.0674  0.3558
   15CHTO  H135 6050   5.474   1.395   1.661  2.2129  1.2072  1.6138
   15CHTO   C81 6051   5.300   1.259   1.908  0.5496  0.5045  1.0750
   15CHTO  H153 6052   5.206   1.283   1.957 -0.5576 -1.9313  0.2368
   15CHTO   N14 6053   5.397   1.246   2.021  0.7007  0.3345 -0.3876
   15CHTO  H141 6054   5.413   1.343   2.063 -0.8197  0.1203  0.7280
   15CHTO  H142 6055   5.356   1.180   2.095  1.4510 -1.8087 -1.8225
   15CHTO   C79 6056   5.281   1.125   1.837  0.1591  0.1838  0.0949
   15CHTO  H151 6057   5.251   1.053   1.913 -0.7230 -1.3126 -1.6056
   15CHTO   O52 6058   5.163   1.140   1.759 -0.0763  0.2296 -0.1850
   15CHTO   C86 6059   5.183   1.243   1.651 -0.4346 -0.0743 -0.7134
   15CHTO  H158 6060   5.264   1.201   1.588 -1.6256 -3.0446 -0.3648
   15CHTO   C90 6061   5.050   1.242   1.564  0.6925  0.6933 -0.5951
   15CHTO   O60 6062   5.020   1.107   1.515  0.1949  0.0355  0.7474
   15CHTO  H138 6063   5.087   1.077   1.456  1.3222 -0.2250  2.1159
   15CHTO   O50 6064   5.394   1.067   1.754  0.3692 -0.0436 -0.9130
   15CHTO   C73 6065   5.413   0.931   1.714  0.0450 -0.2667 -0.1896
   15CHTO  H145 6066   5.333   0.903   1.643 -0.6423  0.3881  0.3245
   15CHTO   C74 6067   5.410   0.838   1.845  0.5659 -0.4220  0.3264
   15CHTO  H146 6068   5.318   0.862   1.900 -1.4982  0.5858 -3.3569
   15CHTO   O54 6069   5.403   0.704   1.792  0.3127  0.1439 -0.1213
   15CHTO  H133 6070   5.320   0.679   1.757 -0.4604  1.1968  0.9280
   15CHTO   C75 6071   5.535   0.868   1.932 -0.1439  0.1830  0.4201
   15CHTO  H147 6072   5.517   0.964   1.982 -0.2456  0.2277  0.2983
   15CHTO   N13 6073   5.552   0.778   2.051 -0.4056 -0.3125 -0.0483
   15CHTO  H139 6074   5.493   0.809   2.136 -0.6892 -0.5012 -0.1749
   15CHTO  H140 6075   5.529   0.677   2.022 -0.6673 -0.6075  1.1673
   15CHTO   C76 6076   5.674   0.877   1.850 -0.1050 -0.4030 -0.6395
   15CHTO  H148 6077   5.711   0.776   1.829  0.3096 -0.4544  0.3049
   15CHTO   O49 6078   5.665   0.947   1.722  0.2481  0.2732  0.2445
   15CHTO   C77 6079   5.548   0.910   1.643  0.0584  0.1051 -0.0315
   15CHTO  H149 6080   5.551   0.805   1.617  0.8267  0.5895 -1.9420
   15CHTO   C88 6081   5.550   0.981   1.513  0.0986  0.3596 -0.0676
   15CHTO   O58 6082   5.597   1.108   1.528 -0.0996  0.2417  0.3360
   15CHTO  H136 6083   5.582   1.162   1.453 -0.5019 -1.1158 -0.5666
   15CHTO   O51 6084   5.770   0.956   1.951 -0.0703  0.2983 -0.1072
   15CHTO   C78 6085   5.920   0.922   1.898  0.7290  0.0434  0.0509
   15CHTO  H150 6086   5.911   0.865   1.803  0.0483  1.5069 -0.7855
   15CHTO   C80 6087   6.009   0.840   2.002  0.5844  0.1581 -0.7085
   15CHTO  H152 6088   6.019   0.910   2.088 -0.3348  2.0168 -2.0934
   15CHTO   O55 6089   5.932   0.726   2.045  0.2925 -0.1767 -0.0590
   15CHTO  H134 6090   5.869   0.694   1.983 -0.0911  0.5209 -0.0394
   15CHTO   C84 6091   6.148   0.811   1.940 -0.6415 -0.9237  0.4009
   15CHTO  H156 6092   6.139   0.749   1.850 -2.9323 -0.1223  0.0376
   15CHTO   N15 6093   6.234   0.737   2.034 -0.1316  0.2889 -0.8030
   15CHTO  H143 6094   6.297   0.664   1.987  0.0791  1.1448 -1.8835
   15CHTO  H144 6095   6.297   0.792   2.101 -0.9177 -1.7398  1.6339
   15CHTO   C87 6096   6.202   0.945   1.895  0.4263  0.6867 -0.4216
   15CHTO  H159 6097   6.222   1.016   1.976 -1.7332  2.8168 -1.6775
   15CHTO   O53 6098   6.106   1.008   1.794  0.0919  0.2404  0.4553
   15CHTO   C82 6099   5.993   1.050   1.866 -0.2323 -0.0686  0.5763
   15CHTO  H154 6100   6.021   1.103   1.957 -0.0070 -1.5512  1.3862
   15CHTO   C89 6101   5.897   1.141   1.777 -0.1712 -0.3039 -0.5053
   15CHTO   O59 6102   5.953   1.265   1.727 -0.5995 -0.1957  0.5321
   15CHTO  H137 6103   6.046   1.264   1.718 -0.8963 -2.6320 -3.1026
   15CHTO   O45 6104   6.362   0.929   1.802 -0.0213  0.6669  0.1900
   15CHTO   C67 6105   6.435   1.052   1.814  0.5506  0.3341 -0.4467
   15CHTO  H124 6106   6.367   1.130   1.848  2.4013  0.6059  2.7916
   15CHTO   C65 6107   6.544   1.043   1.921 -0.4041 -0.3005  0.4195
   15CHTO  H122 6108   6.584   0.942   1.914 -0.2825 -0.3000  1.0984
   15CHTO   O44 6109   6.482   1.059   2.043  0.0347  0.3919 -0.4230
   15CHTO  H102 6110   6.451   0.988   2.096 -0.3723  0.7903 -0.1240
   15CHTO   C63 6111   6.665   1.140   1.878 -0.2469 -0.0339 -0.0587
   15CHTO  H120 6112   6.724   1.082   1.807  0.4110  1.9779 -1.1841
   15CHTO   N11 6113   6.771   1.172   1.990  0.1817  0.2268  0.4534
   15CHTO  H108 6114   6.748   1.126   2.084  1.0763  2.1380  1.6416
   15CHTO  H109 6115   6.794   1.276   1.985 -1.8802  0.6232 -1.1164
   15CHTO   C61 6116   6.613   1.270   1.800 -0.6668 -0.3676 -0.1487
   15CHTO  H118 6117   6.701   1.327   1.766 -0.7390 -1.4404 -2.2259
   15CHTO   O40 6118   6.537   1.235   1.687  0.5145  0.1917 -0.2496
   15CHTO   C68 6119   6.489   1.098   1.673 -0.7253 -0.0006 -0.0244
   15CHTO  H125 6120   6.574   1.041   1.630 -0.1879  0.8922 -0.1527
   15CHTO   C72 6121   6.380   1.108   1.561 -0.5109  0.2707  0.3661
   15CHTO   O48 6122   6.276   1.210   1.582  0.0564 -0.2372  0.1076
   15CHTO  H105 6123   6.208   1.179   1.638 -0.4467 -1.1449 -0.9650
   15CHTO   O38 6124   6.533   1.347   1.890 -0.5510  0.2862  0.0596
   15CHTO   C55 6125   6.442   1.448   1.833  0.9437  0.4153  0.0013
   15CHTO  H112 6126   6.389   1.417   1.742  0.4107  1.7745 -0.1554
   15CHTO   C56 6127   6.524   1.579   1.806  0.5350  0.6637 -0.0212
   15CHTO  H113 6128   6.591   1.593   1.892  1.4613  1.5633 -0.8699
   15CHTO   O42 6129   6.609   1.554   1.693  0.3336 -0.1946 -1.0429
   15CHTO  H100 6130   6.694   1.592   1.694  1.1594 -1.9714 -1.0869
   15CHTO   C57 6131   6.430   1.706   1.778 -0.3109  0.0402  0.7870
   15CHTO  H114 6132   6.392   1.690   1.677 -0.1560  2.1164  0.3716
   15CHTO   N10 6133   6.501   1.832   1.763 -0.3327 -0.1442 -0.1774
   15CHTO  H106 6134   6.504   1.887   1.856  0.4174  1.7120 -1.2699
   15CHTO  H107 6135   6.470   1.900   1.686  1.4546 -0.5068 -1.2610
   15CHTO   C58 6136   6.311   1.718   1.878 -0.3230 -0.8410 -0.0440
   15CHTO  H115 6137   6.356   1.747   1.975  2.2236 -1.8815 -0.8724
   15CHTO   O37 6138   6.246   1.586   1.885  0.4620  0.4457 -0.5687
   15CHTO   C59 6139   6.330   1.479   1.940 -0.2501  0.8795  0.4645
   15CHTO  H116 6140   6.381   1.513   2.030  0.5980  2.5874 -0.6184
   15CHTO   C70 6141   6.252   1.357   1.974  0.4700 -0.2781 -0.2493
   15CHTO   O46 6142   6.134   1.370   2.062  0.1326  0.0757 -0.3241
   15CHTO  H103 6143   6.057   1.400   2.018 -0.5564 -0.5977  0.3816
   15CHTO   O39 6144   6.188   1.830   1.837 -0.0878 -0.5946  1.1462
   15CHTO   C60 6145   6.121   1.825   1.707 -0.1048 -0.3705  0.1346
   15CHTO  H117 6146   6.195   1.823   1.627  1.1684  2.7675  1.1263
   15CHTO   C62 6147   6.033   1.706   1.684  0.0511  0.2639 -0.2270
   15CHTO  H119 6148   6.095   1.616   1.699  2.1331  1.4225 -1.6721
   15CHTO   O43 6149   5.926   1.708   1.775 -0.3474  0.2268  0.4601
   15CHTO  H101 6150   5.881   1.627   1.762  1.1659 -0.4573 -0.6372
   15CHTO   C66 6151   5.986   1.709   1.527 -0.1037  0.1519 -0.1591
   15CHTO  H123 6152   6.076   1.706   1.466  1.1695  0.1493  1.6771
   15CHTO   N12 6153   5.918   1.581   1.485  0.0860  0.2707 -0.1962
   15CHTO  H110 6154   5.822   1.559   1.530  0.8814  1.3916  2.1364
   15CHTO  H111 6155   5.987   1.498   1.493 -0.4290 -0.0756  0.8526
   15CHTO   C69 6156   5.908   1.835   1.498  0.6367 -0.6578 -1.0193
   15CHTO  H126 6157   5.813   1.832   1.555  0.5884 -0.9535 -1.1177
   15CHTO   O41 6158   6.003   1.960   1.561 -0.1206  0.0145 -0.2629
   15CHTO   C64 6159   6.035   1.955   1.686 -0.7299 -1.1791 -0.1329
   15CHTO  H121 6160   5.941   1.956   1.745  0.9335 -4.1646  2.7488
   15CHTO   C71 6161   6.112   2.082   1.720 -0.1839 -1.0061  0.8465
   15CHTO   O47 6162   6.163   2.078   1.859  0.1560 -0.3620  0.0511
   15CHTO  H104 6163   6.095   2.116   1.911 -0.9090  2.7545 -3.3699
   15CHTO   O34 6164   5.886   1.855   1.370 -0.0817  0.4974  0.0984
   15CHTO   C49 6165   5.817   1.937   1.267 -0.2717  0.1213 -0.9464
   15CHTO   H91 6166   5.835   1.894   1.168  0.1798 -0.4356 -0.6259
   15CHTO   C47 6167   5.873   2.079   1.271 -0.5973  0.2433 -0.3777
   15CHTO   H89 6168   5.857   2.125   1.171 -0.7095 -0.1970 -0.5635
   15CHTO   O33 6169   6.011   2.072   1.290  0.0433 -0.0496 -0.1150
   15CHTO   H70 6170   6.046   2.156   1.266 -0.1932  0.2587  0.5992
   15CHTO   C45 6171   5.817   2.163   1.397  0.1218 -0.7713  0.7305
   15CHTO   H87 6172   5.852   2.110   1.487 -0.6264  0.8336  1.9923
   15CHTO    N8 6173   5.875   2.305   1.401  0.6753  0.0155  0.0808
   15CHTO   H75 6174   5.983   2.315   1.402  0.6634  1.0175 -3.2392
   15CHTO   H76 6175   5.835   2.385   1.340 -0.1263 -0.4072  0.0467
   15CHTO   C43 6176   5.658   2.163   1.400  0.1214 -0.9057  0.5199
   15CHTO   H85 6177   5.627   2.222   1.487 -0.6475  4.6887 -3.2740
   15CHTO   O29 6178   5.608   2.028   1.389 -0.3066  0.3588 -0.3010
   15CHTO   C50 6179   5.665   1.933   1.288  0.5733 -0.1483  0.1273
   15CHTO   H92 6180   5.650   1.830   1.325  0.2212 -0.3193 -0.4774
   15CHTO   C54 6181   5.585   1.941   1.151  0.6139  0.0578  0.4141
   15CHTO   O36 6182   5.442   1.957   1.163 -0.6234 -0.3416 -0.4041
   15CHTO   H72 6183   5.403   1.947   1.079  0.8550  0.0457 -1.1644
   15CHTO   O27 6184   5.607   2.241   1.296 -0.1684 -0.4027  0.8020
   15CHTO   C37 6185   5.509   2.321   1.225  0.0209 -0.3504  0.0904
   15CHTO   H79 6186   5.426   2.256   1.190 -1.9853  2.0455  0.2592
   15CHTO   C38 6187   5.451   2.429   1.313 -0.4007  0.0770 -0.1763
   15CHTO   H80 6188   5.537   2.487   1.349  0.4408 -1.1192 -0.2299
   15CHTO   O31 6189   5.380   2.358   1.421 -0.5471 -0.7799  0.6952
   15CHTO   H68 6190   5.294   2.330   1.398 -0.1569 -0.5490 -1.1200
   15CHTO   C39 6191   5.356   2.537   1.243  0.4536  0.1747 -0.2716
   15CHTO   H81 6192   5.264   2.486   1.214 -0.5760  0.5729  2.1820
   15CHTO    N7 6193   5.319   2.645   1.340 -0.2005  0.2717 -0.3179
   15CHTO   H73 6194   5.373   2.738   1.332  1.6654 -0.8821 -1.3363
   15CHTO   H74 6195   5.212   2.658   1.333  0.0684  1.9026 -1.7570
   15CHTO   C40 6196   5.432   2.588   1.117 -0.4128  0.8642  0.4060
   15CHTO   H82 6197   5.517   2.648   1.150  0.1506 -0.6276  1.7581
   15CHTO   O26 6198   5.475   2.482   1.026 -0.1041  0.4834  0.0851
   15CHTO   C41 6199   5.565   2.393   1.095 -0.6718  0.0361 -0.4375
   15CHTO   H83 6200   5.656   2.450   1.119 -0.0542  1.1871 -5.0282
   15CHTO   C52 6201   5.613   2.300   0.980 -0.1783  0.1223  0.8708
   15CHTO   O35 6202   5.692   2.217   1.021 -0.4450 -0.7925 -0.4330
   15CHTO   H71 6203   5.709   2.150   0.958  0.5373 -1.6120  0.6785
   15CHTO   O28 6204   5.341   2.665   1.031 -0.3224 -0.0363 -0.0224
   15CHTO   C42 6205   5.380   2.778   0.945  0.2150  0.1465  0.0654
   15CHTO   H84 6206   5.294   2.801   0.883  0.2935 -1.8862 -0.8446
   15CHTO   C44 6207   5.494   2.749   0.844  0.4476  0.5221  0.0403
   15CHTO   H86 6208   5.582   2.706   0.892 -0.5802  1.2419  2.6424
   15CHTO   O32 6209   5.446   2.635   0.762 -0.3603 -0.1011  0.1366
   15CHTO   H69 6210   5.512   2.572   0.737 -1.6672 -2.1795  1.8156
   15CHTO   C48 6211   5.551   2.875   0.768 -0.0824 -0.7383  0.2974
   15CHTO   H90 6212   5.482   2.903   0.688 -0.7659 -0.4550  0.9860
   15CHTO    N9 6213   5.677   2.823   0.694  0.7117 -0.5904  0.2261
   15CHTO   H77 6214   5.762   2.826   0.760 -1.5229 -1.7560  3.2445
   15CHTO   H78 6215   5.688   2.856   0.592 -0.1318  1.2632  0.7282
   15CHTO   C51 6216   5.573   3.000   0.859  0.4877 -0.4121  0.0048
   15CHTO   H93 6217   5.655   2.967   0.922  0.3062  0.8875  0.9454
   15CHTO   O30 6218   5.451   3.017   0.931 -0.3266 -0.0485  0.0281
   15CHTO   C46 6219   5.422   2.911   1.028 -0.0372  0.6234 -0.4308
   15CHTO   H88 6220   5.512   2.884   1.084 -0.0904  0.5946 -0.3595
   15CHTO   C53 6221   5.304   2.948   1.125  0.0444 -0.1541 -0.3898
   15CHTO   O72 6222   5.341   3.061   1.201  0.1073  0.7244 -0.3310
   15CHTO  H199 6223   5.309   3.145   1.174 -0.8231  0.1269 -1.0867
   15CHTO   O22 6224   5.617   3.119   0.788 -0.0624  0.0004 -0.2103
   15CHTO   C31 6225   5.614   3.253   0.857 -0.2399  0.1300 -0.0678
   15CHTO   H59 6226   5.653   3.321   0.778  1.4839 -0.5287  0.1873
   15CHTO   C29 6227   5.473   3.303   0.892  0.3793 -0.5182  0.3521
   15CHTO   H57 6228   5.434   3.251   0.981  0.2802  1.0138  1.2251
   15CHTO   O21 6229   5.387   3.286   0.776 -0.0268  0.2555  0.5454
   15CHTO   H37 6230   5.296   3.288   0.798 -0.3165 -0.9636 -0.4647
   15CHTO   C27 6231   5.481   3.449   0.931 -0.7325  0.1458 -0.2984
   15CHTO   H55 6232   5.528   3.504   0.848 -0.6643  0.8413  0.1938
   15CHTO    N5 6233   5.349   3.512   0.958  0.2886 -0.8642  0.1504
   15CHTO   H43 6234   5.330   3.609   0.915 -0.7351 -0.8573  0.5944
   15CHTO   H44 6235   5.268   3.454   0.917 -0.7784  0.0507  0.9281
   15CHTO   C25 6236   5.587   3.473   1.044 -0.1246  0.4862  0.3115
   15CHTO   H53 6237   5.545   3.445   1.142 -1.2739  0.1558 -0.2696
   15CHTO   O17 6238   5.715   3.411   1.014 -0.8595 -0.1002  0.2681
   15CHTO   C32 6239   5.712   3.268   0.983 -0.2762  0.3444  0.4536
   15CHTO   H60 6240   5.664   3.219   1.068 -2.3917 -0.1637 -0.9837
   15CHTO   C36 6241   5.856   3.219   0.958 -0.5253  0.0460  0.7206
   15CHTO   O25 6242   5.936   3.221   1.069  0.7407  0.1832 -0.3201
   15CHTO   H40 6243   5.896   3.163   1.131  3.4831  1.0108  2.3294
   15CHTO   O15 6244   5.617   3.625   1.053  0.3053  0.4110  0.1312
   15CHTO   C19 6245   5.658   3.723   1.150  0.3894  0.1801 -0.7436
   15CHTO   H47 6246   5.702   3.801   1.087  0.3725  0.2676 -0.6482
   15CHTO   C20 6247   5.536   3.778   1.240  0.0656  0.7405 -0.1475
   15CHTO   H48 6248   5.484   3.693   1.287  1.7216  1.3605  2.9336
   15CHTO   O19 6249   5.444   3.834   1.147  0.3342  0.3141 -0.0502
   15CHTO   H35 6250   5.466   3.920   1.117 -1.2277  0.4730 -0.7709
   15CHTO   C21 6251   5.583   3.878   1.353  0.2145 -0.3772 -0.1874
   15CHTO   H49 6252   5.627   3.965   1.304 -0.3780  1.0310  1.7303
   15CHTO    N4 6253   5.474   3.930   1.434 -0.1266 -0.0634  0.0381
   15CHTO   H41 6254   5.497   3.911   1.538 -0.2994 -1.5826 -0.1842
   15CHTO   H42 6255   5.462   4.037   1.423  0.7279  0.0224 -0.0692
   15CHTO   C22 6256   5.702   3.815   1.424 -0.1479 -0.1300  0.1497
   15CHTO   H50 6257   5.671   3.725   1.477  0.0038  0.1264  0.6751
   15CHTO   O14 6258   5.802   3.785   1.328 -0.0630  0.0959  0.2651
   15CHTO   C23 6259   5.769   3.676   1.244 -0.1348  0.1708  0.1964
   15CHTO   H51 6260   5.737   3.591   1.305  1.0436 -1.3836 -1.2865
   15CHTO   C34 6261   5.896   3.635   1.167  0.2454 -0.0862  0.6004
   15CHTO   O23 6262   6.003   3.606   1.263  0.1869 -0.2973 -0.2547
   15CHTO   H38 6263   5.993   3.516   1.288 -0.3615  0.0466  0.7874
   15CHTO   O16 6264   5.756   3.902   1.516 -0.4195  0.2715 -0.0360
   15CHTO   C24 6265   5.875   3.833   1.609 -0.4481 -0.2414  0.0769
   15CHTO   H52 6266   5.936   3.764   1.550  0.4363  1.6079 -1.2200
   15CHTO   C26 6267   5.819   3.752   1.732  0.2687 -0.0161  0.1846
   15CHTO   H54 6268   5.751   3.823   1.783  0.0648 -0.9734  1.2575
   15CHTO   O20 6269   5.742   3.644   1.678 -0.3807  0.0072  0.5644
   15CHTO   H36 6270   5.762   3.623   1.589 -0.1990  1.7985  0.1789
   15CHTO   C30 6271   5.930   3.700   1.825  0.3537  0.7194 -0.8212
   15CHTO   H58 6272   5.992   3.628   1.770 -1.9150 -1.6634 -0.2939
   15CHTO    N6 6273   5.883   3.624   1.945 -0.3491  0.0194 -0.6701
   15CHTO   H45 6274   5.924   3.678   2.029 -1.9836 -0.3857  0.4096
   15CHTO   H46 6275   5.919   3.522   1.942  0.9440  0.4799 -1.3635
   15CHTO   C33 6276   6.026   3.817   1.860  0.6320  0.1824 -0.7839
   15CHTO   H61 6277   5.967   3.897   1.907  1.2253 -0.4968  1.1411
   15CHTO   O18 6278   6.075   3.863   1.735  0.5393  0.5251 -0.2764
   15CHTO   C28 6279   5.976   3.937   1.657  0.0045  0.3220  0.2419
   15CHTO   H56 6280   5.929   4.016   1.715  0.6396  1.1605 -0.3702
   15CHTO   C35 6281   6.044   4.009   1.538 -0.2609 -0.6271  0.2327
   15CHTO   O24 6282   6.108   3.925   1.442 -0.2009 -0.1105 -0.2808
   15CHTO   H39 6283   6.047   3.860   1.413 -1.1710  0.8337 -0.3781
   15CHTO    O9 6284   6.129   3.785   1.947  0.2198  0.1807  0.7312
   15CHTO   C13 6285   6.105   3.826   2.100 -0.4284  0.2036 -0.0686
   15CHTO   H26 6286   5.995   3.823   2.115 -0.3046 -0.5174  0.7182
   15CHTO   C11 6287   6.163   3.969   2.127  0.2038 -0.3835 -0.0091
   15CHTO   H24 6288   6.117   4.045   2.063  1.7810  0.4070 -0.2216
   15CHTO    O8 6289   6.302   3.963   2.087 -0.2705 -0.1536 -0.1238
   15CHTO    H3 6290   6.358   4.027   2.125 -0.1471 -0.2865 -0.0830
   15CHTO    C9 6291   6.137   4.003   2.277  0.1113 -0.4227  0.0262
   15CHTO   H22 6292   6.030   3.985   2.296  0.0947 -2.7260 -2.0786
   15CHTO    N2 6293   6.163   4.143   2.312  0.3200  0.0740  0.5003
   15CHTO   H10 6294   6.078   4.208   2.302 -0.1579 -0.8307 -1.8911
   15CHTO   H11 6295   6.245   4.183   2.253 -0.7912  1.7168  0.0392
   15CHTO    C7 6296   6.229   3.916   2.360  0.2469  0.1407 -0.1480
   15CHTO   H20 6297   6.208   3.944   2.466 -0.2376 -0.3646 -0.1091
   15CHTO    O4 6298   6.201   3.776   2.337  0.1488  0.7216 -0.0793
   15CHTO   C14 6299   6.173   3.725   2.205 -0.4377 -0.3700  0.0869
   15CHTO   H27 6300   6.105   3.639   2.223 -2.6050  1.2749  0.0084
   15CHTO   C18 6301   6.305   3.664   2.142  0.3480 -0.5458  0.1998
   15CHTO   O13 6302   6.356   3.548   2.209  0.2954  0.0242  0.1737
   15CHTO    H7 6303   6.428   3.521   2.155 -1.7328 -1.5237 -1.8739
   15CHTO    O2 6304   6.410   3.961   2.341  0.1353 -0.2989 -0.5815
   15CHTO    C1 6305   6.501   3.905   2.438  0.1305  0.1642  0.1699
   15CHTO   H14 6306   6.464   3.802   2.459 -0.2614  0.3884  0.5941
   15CHTO    C2 6307   6.510   3.989   2.574 -0.2592  0.0411  0.0754
   15CHTO   H15 6308   6.522   4.091   2.535  0.0358  0.0519  0.1930
   15CHTO    O6 6309   6.387   3.974   2.657  0.2887  0.2539  0.0794
   15CHTO    H1 6310   6.384   4.028   2.733  0.3744 -0.0145  0.2759
   15CHTO    C3 6311   6.637   3.959   2.673 -0.4270  0.7834  0.1301
   15CHTO   H16 6312   6.605   3.866   2.721  0.7783  0.6533  0.6936
   15CHTO    N1 6313   6.654   4.064   2.781  0.6007  0.1492  0.2403
   15CHTO    H8 6314   6.659   4.165   2.742  1.1190 -0.5120 -1.4239
   15CHTO    H9 6315   6.574   4.057   2.853 -1.5870  1.3367 -2.0163
   15CHTO    C4 6316   6.760   3.933   2.586 -0.5237 -0.2908  0.2397
   15CHTO   H17 6317   6.798   4.030   2.554  0.4898 -0.2261  1.6103
   15CHTO    O1 6318   6.731   3.848   2.475  0.2437  0.3151 -0.4654
   15CHTO    C5 6319   6.644   3.902   2.378  0.0496 -0.1934 -0.5460
   15CHTO   H18 6320   6.677   4.003   2.356 -0.1392  0.1063  0.5249
   15CHTO   C16 6321   6.658   3.817   2.256  0.1129  0.6860  0.4473
   15CHTO   O11 6322   6.565   3.847   2.150  0.0055  0.3316 -0.1668
   15CHTO    H5 6323   6.601   3.797   2.079 -1.9092 -1.8459  0.3301
   15CHTO    O3 6324   6.859   3.850   2.654 -0.1383 -0.0060 -0.0447
   15CHTO    C6 6325   6.995   3.888   2.625  0.7695  0.0085 -0.4824
   15CHTO   H19 6326   7.008   3.961   2.546 -0.9606  2.2265  1.2216
   15CHTO    C8 6327   7.062   3.945   2.759  0.0403 -0.2760 -0.8855
   15CHTO   H21 6328   7.030   3.890   2.847 -0.3838 -0.4219 -1.1292
   15CHTO    O7 6329   7.008   4.078   2.766  0.1107 -0.1350 -0.9204
   15CHTO    H2 6330   6.971   4.083   2.852  2.1880 -3.0648  0.2385
   15CHTO   C12 6331   7.221   3.955   2.754  0.2642  0.2861 -0.2301
   15CHTO   H25 6332   7.238   4.033   2.676 -3.3504  1.2054 -0.2340
   15CHTO    N3 6333   7.284   4.002   2.877 -0.3914  0.0155  0.3835
   15CHTO   H12 6334   7.387   3.969   2.866 -0.3015  0.7957 -1.1634
   15CHTO   H13 6335   7.283   4.110   2.881 -0.5300  0.0355 -0.1535
   15CHTO   C15 6336   7.280   3.821   2.706  0.5344  0.2574 -0.4197
   15CHTO   H28 6337   7.267   3.729   2.762  0.3531 -0.7328 -2.0574
   15CHTO   O10 6338   7.447   3.833   2.650 -0.1460 -0.0480  0.0903
   15CHTO    H4 6339   7.498   3.890   2.704  0.6531  0.3563 -1.0755
   15CHTO    O5 6340   7.216   3.808   2.580  0.0578 -0.1251 -0.2753
   15CHTO   C10 6341   7.079   3.758   2.590  0.1323 -0.1712  0.1069
   15CHTO   H23 6342   7.066   3.687   2.671  0.7607  0.2953  0.6195
   15CHTO   C17 6343   7.030   3.700   2.451  0.1467 -0.4198 -0.5588
   15CHTO   O12 6344   7.116   3.594   2.427 -0.1992 -0.1911  0.1220
   15CHTO    H6 6345   7.088   3.552   2.348  0.6580 -1.1357  0.3072
   16CHTO  H203 6346   3.700   3.542   0.755 -1.1609  0.8830 -0.4257
   16CHTO   O82 6347   3.677   3.476   0.692 -0.6230  0.2673  0.0200
   16CHTO  C123 6348   3.746   3.359   0.739  0.4424  0.7647  0.6814
   16CHTO  H227 6349   3.700   3.272   0.689  1.4374  0.4933  0.2150
   16CHTO   O77 6350   3.881   3.378   0.685 -0.0836 -0.0279 -0.0648
   16CHTO  C118 6351   3.983   3.292   0.741  0.0088  0.8696 -0.3261
   16CHTO  H222 6352   3.959   3.190   0.707 -0.8209  1.2717 -0.9693
   16CHTO  C125 6353   4.121   3.337   0.672  0.0901  1.0131  0.3718
   16CHTO   O84 6354   4.170   3.456   0.736 -0.6679 -0.1166  0.5808
   16CHTO  H205 6355   4.257   3.473   0.705 -0.9599  2.0675  0.8575
   16CHTO  C114 6356   3.995   3.290   0.893 -0.5893 -0.1666 -0.6107
   16CHTO  H218 6357   4.024   3.388   0.930 -0.7304 -0.0822 -0.7213
   16CHTO  C116 6358   3.857   3.254   0.952  0.2470 -0.2654  0.8171
   16CHTO  H220 6359   3.836   3.148   0.928 -2.6461  0.7132 -1.2334
   16CHTO   O79 6360   3.866   3.264   1.096  0.1604  0.2629 -0.2903
   16CHTO  H201 6361   3.954   3.270   1.125  0.2930 -1.1670 -0.3224
   16CHTO  C120 6362   3.740   3.353   0.900  0.2428  1.1251  0.6275
   16CHTO  H224 6363   3.761   3.451   0.948 -0.0583  0.4630  2.1317
   16CHTO   N21 6364   3.611   3.302   0.961 -0.3958 -0.1090  0.0563
   16CHTO  H211 6365   3.525   3.342   0.909 -0.7238  0.1543  0.8035
   16CHTO  H212 6366   3.594   3.327   1.064  0.4803 -0.5578  0.3141
   16CHTO   O75 6367   4.095   3.191   0.926  0.1203  0.0128 -0.0834
   16CHTO  C112 6368   4.212   3.237   1.023 -0.0084 -1.0911  0.1461
   16CHTO  H216 6369   4.160   3.298   1.098 -1.1423 -1.2675 -0.4895
   16CHTO   O73 6370   4.300   3.321   0.941 -0.5039 -0.3587  0.5846
   16CHTO  C113 6371   4.404   3.385   1.013 -0.0900  0.3741 -0.2017
   16CHTO  H217 6372   4.342   3.444   1.085 -0.2054  0.9621 -0.7733
   16CHTO  C124 6373   4.484   3.471   0.920  0.2489 -0.2344  0.0486
   16CHTO   O83 6374   4.506   3.431   0.785  0.1875  0.0525  0.1121
   16CHTO  H204 6375   4.530   3.513   0.746 -1.9165  1.8310  2.3748
   16CHTO  C109 6376   4.497   3.274   1.077  0.5469  0.2078 -0.1172
   16CHTO  H213 6377   4.538   3.221   0.990  0.2335  1.0380 -0.7757
   16CHTO  C110 6378   4.412   3.175   1.169  0.3071  0.0375 -0.0124
   16CHTO  H214 6379   4.383   3.242   1.250 -0.8830 -0.8084  0.2729
   16CHTO   O78 6380   4.485   3.063   1.236  0.5150 -0.0410  0.4262
   16CHTO  H200 6381   4.515   3.001   1.172  2.3065  1.9443 -0.7323
   16CHTO  C111 6382   4.283   3.122   1.090 -0.2958 -0.0318 -0.1782
   16CHTO  H215 6383   4.309   3.051   1.010 -0.5864 -1.0000  0.5692
   16CHTO   N19 6384   4.194   3.046   1.183  0.0251 -0.3299 -0.6358
   16CHTO  H207 6385   4.249   2.966   1.231  0.5413 -0.8239 -2.0319
   16CHTO  H208 6386   4.158   3.125   1.248 -0.6353 -0.9413 -0.2603
   16CHTO   O74 6387   4.610   3.337   1.149 -0.2146 -0.5733  0.5137
   16CHTO  C115 6388   4.742   3.241   1.161 -0.4638  0.0216 -0.8089
   16CHTO  H219 6389   4.710   3.137   1.152  0.9384 -0.2697 -2.4630
   16CHTO   O76 6390   4.837   3.261   1.042  0.0305 -0.2826 -0.3044
   16CHTO  C122 6391   4.910   3.389   1.050  0.4891  0.3415 -0.0532
   16CHTO  H226 6392   4.830   3.464   1.053 -1.7030 -1.9552  1.5095
   16CHTO  C126 6393   4.988   3.422   0.920 -0.5848 -0.0620  0.2960
   16CHTO   O85 6394   5.085   3.319   0.878 -0.0911 -0.9499 -0.3598
   16CHTO  H206 6395   5.140   3.360   0.814 -1.4729  0.0015 -0.9348
   16CHTO  C121 6396   4.996   3.405   1.181 -0.2502 -0.6525 -0.4991
   16CHTO  H225 6397   5.103   3.400   1.154  0.1132 -1.9227  1.0813
   16CHTO   O81 6398   4.958   3.527   1.243 -0.0962  0.3160  0.5107
   16CHTO  H202 6399   4.981   3.606   1.196  2.6866 -0.6319  0.1914
   16CHTO  C119 6400   4.968   3.284   1.278 -0.4941 -0.4644  0.2457
   16CHTO  H223 6401   5.015   3.199   1.229 -0.5588 -0.7573  0.6880
   16CHTO  C117 6402   4.814   3.255   1.302 -0.3109 -0.3868 -0.5475
   16CHTO  H221 6403   4.759   3.334   1.353 -0.0584 -1.3121  1.1866
   16CHTO   N20 6404   4.787   3.134   1.383 -0.0532  0.6255 -0.0478
   16CHTO  H209 6405   4.772   3.153   1.488 -0.8888  2.8231 -0.5421
   16CHTO  H210 6406   4.711   3.066   1.347 -0.8085  1.1719  0.4925
   16CHTO   O80 6407   5.056   3.298   1.414  0.0269 -0.5654  0.0459
   16CHTO  C103 6408   5.196   3.267   1.416 -0.6567 -0.3414  0.3968
   16CHTO  H190 6409   5.222   3.231   1.317 -0.3789 -0.0707  0.3719
   16CHTO  C101 6410   5.303   3.381   1.442  0.3533  0.2802 -0.0579
   16CHTO  H188 6411   5.274   3.449   1.521  2.1134  0.2834  0.6252
   16CHTO   O68 6412   5.303   3.465   1.308  0.1825 -0.3768  0.5475
   16CHTO  H168 6413   5.271   3.553   1.312 -0.9710 -0.7435 -0.3412
   16CHTO   C99 6414   5.453   3.320   1.477 -0.1598  0.0984  0.1863
   16CHTO  H186 6415   5.500   3.291   1.381  0.1673  1.4622 -0.0722
   16CHTO   N17 6416   5.534   3.421   1.547  0.0701  0.1458  0.5037
   16CHTO  H174 6417   5.591   3.485   1.481  0.9546 -2.1576 -1.0338
   16CHTO  H175 6418   5.480   3.467   1.628 -1.6399  1.1615 -1.1651
   16CHTO   C97 6419   5.436   3.193   1.570  0.8133 -0.3708  0.3785
   16CHTO  H184 6420   5.396   3.228   1.666  1.4132 -0.9666  0.8530
   16CHTO   O64 6421   5.347   3.098   1.505 -0.2133 -0.3563  0.1458
   16CHTO  C104 6422   5.214   3.147   1.515 -0.0251  0.2903 -0.3007
   16CHTO  H191 6423   5.193   3.182   1.617  0.2613  0.4865 -0.3098
   16CHTO  C108 6424   5.118   3.034   1.491  0.0252 -0.1426 -0.1730
   16CHTO   O71 6425   5.110   2.992   1.356 -0.3730  0.3031 -0.5388
   16CHTO  H171 6426   5.165   2.916   1.351 -1.5746 -0.4207 -3.5541
   16CHTO   O62 6427   5.568   3.133   1.592  0.0876  0.3698  0.2504
   16CHTO   C91 6428   5.578   3.014   1.675 -0.3100  0.6681 -0.5943
   16CHTO  H178 6429   5.677   3.024   1.720  0.1678 -0.4703 -1.3490
   16CHTO   C92 6430   5.578   2.883   1.587 -0.3003 -0.5010  0.0234
   16CHTO  H179 6431   5.482   2.863   1.539 -1.0340 -1.0018  1.6628
   16CHTO   O66 6432   5.685   2.909   1.490  0.3008  0.4555  0.2432
   16CHTO  H166 6433   5.664   2.885   1.402 -1.0976 -2.1545  1.2401
   16CHTO   C93 6434   5.613   2.757   1.675  0.3702  0.4287  0.1637
   16CHTO  H180 6435   5.708   2.783   1.723 -0.2621 -0.9260  2.2241
   16CHTO   N16 6436   5.628   2.630   1.595 -0.2823  0.5564  0.6807
   16CHTO  H172 6437   5.718   2.637   1.535 -0.5721  0.5441  0.2450
   16CHTO  H173 6438   5.543   2.616   1.531  0.9680  0.8458 -1.0910
   16CHTO   C94 6439   5.511   2.744   1.794 -0.1150 -0.6909  0.5373
   16CHTO  H181 6440   5.408   2.734   1.758 -0.1416  1.6285 -0.1491
   16CHTO   O61 6441   5.511   2.868   1.870  0.4044 -0.3083 -0.1898
   16CHTO   C95 6442   5.476   2.992   1.803  0.3489 -0.0980 -0.4420
   16CHTO  H182 6443   5.377   2.982   1.757  0.6269  0.4641 -1.1663
   16CHTO  C106 6444   5.489   3.102   1.907 -0.3052 -0.8292 -0.2012
   16CHTO   O69 6445   5.365   3.173   1.913  0.3591 -0.0777  0.1694
   16CHTO  H169 6446   5.363   3.242   1.976 -1.2869 -0.4792  0.5920
   16CHTO   O63 6447   5.554   2.628   1.899  1.3102  0.1698  0.4221
   16CHTO   C96 6448   5.447   2.534   1.940 -0.6250  0.8850  0.2049
   16CHTO  H183 6449   5.490   2.464   2.012  0.2183 -0.3257 -1.4571
   16CHTO   C98 6450   5.403   2.437   1.821  0.4926  0.1722  0.1294
   16CHTO  H185 6451   5.356   2.499   1.743 -0.4793 -0.0976  0.4810
   16CHTO   O67 6452   5.515   2.376   1.762 -0.2844 -0.0008  0.1532
   16CHTO  H167 6453   5.583   2.433   1.733 -0.3890  0.0999  0.1010
   16CHTO  C102 6454   5.302   2.330   1.889 -0.4812  0.3410 -0.1878
   16CHTO  H189 6455   5.360   2.268   1.959 -0.2820 -1.2635 -1.7345
   16CHTO   N18 6456   5.246   2.226   1.792 -0.5227 -0.1316 -0.1481
   16CHTO  H176 6457   5.275   2.246   1.690 -0.1945  1.5618  0.2565
   16CHTO  H177 6458   5.279   2.130   1.830 -1.8390 -0.6519 -0.3227
   16CHTO  C105 6459   5.191   2.409   1.956 -0.5450  0.7485  0.1139
   16CHTO  H192 6460   5.135   2.460   1.878  0.5109  2.1182  0.2386
   16CHTO   O65 6461   5.232   2.503   2.053  0.0204 -0.2313 -0.5216
   16CHTO  C100 6462   5.319   2.607   1.999 -0.3558 -0.1943 -0.0640
   16CHTO  H187 6463   5.288   2.664   1.910  1.9337  3.7852  1.5658
   16CHTO  C107 6464   5.334   2.709   2.116  0.0676  0.4991  0.9638
   16CHTO   O70 6465   5.201   2.746   2.165 -0.4880 -0.0777 -0.0439
   16CHTO  H170 6466   5.153   2.675   2.202 -1.7049  0.6226 -0.2743
   16CHTO   O57 6467   5.092   2.303   2.034  0.4608 -0.1041 -0.0033
   16CHTO   C85 6468   4.950   2.326   2.058 -0.0607  0.2705  0.1982
   16CHTO  H157 6469   4.914   2.396   1.980  2.4870  0.7752 -0.5803
   16CHTO   C83 6470   4.932   2.393   2.195 -0.5641  0.4359 -0.3868
   16CHTO  H155 6471   4.977   2.493   2.189  0.9293 -0.2861 -1.5557
   16CHTO   O56 6472   5.003   2.314   2.295 -0.0810  0.1354 -0.2495
   16CHTO  H135 6473   5.094   2.336   2.286 -0.7855  2.3282 -2.8582
   16CHTO   C81 6474   4.781   2.400   2.234  0.8613  0.3473  0.0804
   16CHTO  H153 6475   4.735   2.462   2.157  0.0859  0.3682  0.5460
   16CHTO   N14 6476   4.752   2.477   2.357 -0.2763 -0.5292 -0.5242
   16CHTO  H141 6477   4.648   2.473   2.378 -0.5530  0.1710 -1.7002
   16CHTO  H142 6478   4.804   2.426   2.435 -1.1771 -1.7738 -0.7253
   16CHTO   C79 6479   4.709   2.266   2.232  0.7861  0.2957  0.2642
   16CHTO  H151 6480   4.602   2.288   2.243  0.3865 -0.6682 -1.5316
   16CHTO   O52 6481   4.735   2.195   2.110 -0.0600 -0.5122 -0.0967
   16CHTO   C86 6482   4.870   2.189   2.059 -0.1768 -0.0527  0.1377
   16CHTO  H158 6483   4.923   2.127   2.134 -0.1471  0.1443  0.2794
   16CHTO   C90 6484   4.873   2.111   1.930 -0.0011 -0.2004 -0.8413
   16CHTO   O60 6485   5.007   2.065   1.900  0.5163 -0.3861  0.5345
   16CHTO  H138 6486   5.077   2.128   1.899 -1.3892  1.8013 -2.1831
   16CHTO   O50 6487   4.742   2.185   2.349 -0.0345  0.1091  0.4506
   16CHTO   C73 6488   4.706   2.095   2.459  0.0432  0.8279 -0.2321
   16CHTO  H145 6489   4.734   1.992   2.432 -0.4962  0.6247 -0.0172
   16CHTO   C74 6490   4.552   2.097   2.489 -0.1550  0.1388 -0.3906
   16CHTO  H146 6491   4.501   2.070   2.395 -0.5666 -2.5864  0.5847
   16CHTO   O54 6492   4.513   1.991   2.584  0.6938  0.5007  0.3208
   16CHTO  H133 6493   4.573   1.920   2.577 -0.0147  0.0144 -1.0075
   16CHTO   C75 6494   4.504   2.235   2.540  0.5590  0.0521 -0.4618
   16CHTO  H147 6495   4.522   2.306   2.458 -0.7643 -1.1411 -1.8056
   16CHTO   N13 6496   4.356   2.257   2.569 -0.5122  0.0735 -0.0497
   16CHTO  H139 6497   4.304   2.256   2.475 -3.1297 -2.3050  1.3532
   16CHTO  H140 6498   4.334   2.348   2.622  2.0560 -0.5935  2.2869
   16CHTO   C76 6499   4.603   2.288   2.655  1.2442  0.4126  0.8873
   16CHTO  H148 6500   4.572   2.252   2.753  0.3316 -1.3472 -0.0118
   16CHTO   O49 6501   4.745   2.255   2.638  0.4423 -0.4615  0.3626
   16CHTO   C77 6502   4.781   2.129   2.590  0.8481  1.4191  0.8728
   16CHTO  H149 6503   4.745   2.061   2.667 -1.3415  0.8676 -0.5917
   16CHTO   C88 6504   4.932   2.122   2.580 -0.1326 -0.0581  0.1208
   16CHTO   O58 6505   5.018   2.169   2.679  0.1232  0.2269 -0.3226
   16CHTO  H136 6506   5.100   2.123   2.676 -1.6057 -2.9713 -0.8188
   16CHTO   O51 6507   4.594   2.445   2.641 -0.2544 -0.0845  0.9386
   16CHTO   C78 6508   4.639   2.518   2.773 -0.9487  0.7631 -0.5219
   16CHTO  H150 6509   4.679   2.454   2.854 -0.7708  0.6613 -0.6904
   16CHTO   C80 6510   4.514   2.595   2.818  0.0423 -0.4737 -0.1401
   16CHTO  H152 6511   4.469   2.648   2.732 -0.7829  0.9426  1.1495
   16CHTO   O55 6512   4.416   2.490   2.859  0.4230 -0.3715  0.2120
   16CHTO  H134 6513   4.372   2.455   2.783  0.9921 -0.5315 -0.0441
   16CHTO   C84 6514   4.544   2.699   2.937 -0.1107 -0.0696  0.1436
   16CHTO  H156 6515   4.578   2.641   3.023 -0.3969  0.9714  0.9654
   16CHTO   N15 6516   4.428   2.774   2.997  0.3108 -0.3088  1.2641
   16CHTO  H143 6517   4.350   2.702   3.014  0.6809 -0.5199  2.0936
   16CHTO  H144 6518   4.456   2.823   3.088  1.5244  1.8079 -0.1994
   16CHTO   C87 6519   4.656   2.794   2.889 -0.6713 -0.0625 -0.4613
   16CHTO  H159 6520   4.626   2.867   2.814 -3.4530  0.8134  1.4449
   16CHTO   O53 6521   4.774   2.698   2.842 -0.5318  0.7579 -0.0619
   16CHTO   C82 6522   4.747   2.619   2.733  0.7085 -0.5317  0.9425
   16CHTO  H154 6523   4.709   2.686   2.656  0.2548  0.0629  1.6807
   16CHTO   C89 6524   4.880   2.560   2.680 -0.4214  0.5238  0.3886
   16CHTO   O59 6525   4.941   2.466   2.770  0.5673  0.2492 -0.2046
   16CHTO  H137 6526   4.996   2.497   2.840 -1.1835  0.3291  1.1711
   16CHTO   O45 6527   4.719   2.883   3.019  0.0507  0.1442  0.0517
   16CHTO   C67 6528   4.808   2.990   2.988  0.0342  0.5296  0.0336
   16CHTO  H124 6529   4.864   2.975   2.896 -0.7901  1.4405 -0.6218
   16CHTO   C65 6530   4.725   3.122   2.967  0.7641 -0.7412 -0.0254
   16CHTO  H122 6531   4.625   3.096   3.000 -0.6088  1.4789 -2.2248
   16CHTO   O44 6532   4.730   3.164   2.829  0.2347  0.3306 -0.3689
   16CHTO  H102 6533   4.678   3.239   2.809  1.6132  0.4698 -3.7264
   16CHTO   C63 6534   4.774   3.242   3.057  0.3275  0.5535  0.0131
   16CHTO  H120 6535   4.751   3.213   3.160  0.3350  0.1904 -0.0880
   16CHTO   N11 6536   4.703   3.376   3.057 -0.0289  0.3465  0.1037
   16CHTO  H108 6537   4.779   3.448   3.035 -0.3161  0.0079 -2.0594
   16CHTO  H109 6538   4.628   3.392   2.983 -0.2164 -0.9113  0.0205
   16CHTO   C61 6539   4.934   3.249   3.043 -0.3268  0.3922 -0.2031
   16CHTO  H118 6540   4.971   3.319   3.119 -1.5142 -0.3245  1.0685
   16CHTO   O40 6541   5.005   3.125   3.062  0.0016  0.4934  0.5831
   16CHTO   C68 6542   4.916   3.019   3.099  0.3607  0.1098  0.3334
   16CHTO  H125 6543   4.873   3.043   3.198  0.6966  0.2807  0.4412
   16CHTO   C72 6544   5.008   2.894   3.122 -0.0520 -0.7026 -0.0945
   16CHTO   O48 6545   5.061   2.833   3.004 -0.6223 -0.2845  0.6736
   16CHTO  H105 6546   5.153   2.818   3.016 -0.5594  0.3834  1.1191
   16CHTO   O38 6547   4.979   3.284   2.907 -0.2165  0.9474  0.0897
   16CHTO   C55 6548   5.106   3.354   2.899  0.0336  0.3197  0.3516
   16CHTO  H112 6549   5.172   3.314   2.976  0.5960 -0.5400 -0.5744
   16CHTO   C56 6550   5.107   3.515   2.893  0.0218 -0.1151 -0.4128
   16CHTO  H113 6551   5.033   3.532   2.814 -1.1492 -2.4460  0.1098
   16CHTO   O42 6552   5.057   3.576   3.016  0.2385  0.9597  0.3431
   16CHTO  H100 6553   5.028   3.508   3.074  1.8320  2.3346  2.8372
   16CHTO   C57 6554   5.251   3.572   2.865 -0.5628 -0.5644 -0.0274
   16CHTO  H114 6555   5.303   3.581   2.961 -0.8904 -1.7434  0.2740
   16CHTO   N10 6556   5.237   3.709   2.802 -0.4673  0.3813  0.3210
   16CHTO  H106 6557   5.233   3.779   2.884  2.3144 -0.5618  1.3067
   16CHTO  H107 6558   5.329   3.728   2.748 -1.5411  1.5691 -1.1465
   16CHTO   C58 6559   5.336   3.486   2.762 -0.2551  0.0307 -0.0129
   16CHTO  H115 6560   5.303   3.506   2.658 -0.0669  2.1601  0.3208
   16CHTO   O37 6561   5.312   3.350   2.802  0.1883  0.3393 -0.0314
   16CHTO   C59 6562   5.182   3.299   2.773  0.8450  0.1846  0.3286
   16CHTO  H116 6563   5.146   3.340   2.679  4.5793 -1.6524 -2.0414
   16CHTO   C70 6564   5.173   3.144   2.763 -0.3050 -0.1731  0.2468
   16CHTO   O46 6565   5.061   3.096   2.686 -0.1421  0.2052  0.2992
   16CHTO  H103 6566   5.001   3.047   2.739 -0.4377  0.5211  0.2536
   16CHTO   O39 6567   5.488   3.512   2.784 -0.5115  0.3455 -0.3048
   16CHTO   C60 6568   5.574   3.491   2.677  0.2438 -0.3334  0.2759
   16CHTO  H117 6569   5.523   3.429   2.602 -1.3872 -0.8072  1.7448
   16CHTO   C62 6570   5.616   3.628   2.616  0.0054  0.0447  0.0266
   16CHTO  H119 6571   5.526   3.682   2.580 -1.1161 -0.1170  2.5082
   16CHTO   O43 6572   5.675   3.708   2.719 -0.0538 -0.3586  0.2257
   16CHTO  H101 6573   5.688   3.798   2.699 -2.4557  0.1645  0.8222
   16CHTO   C66 6574   5.716   3.601   2.486  0.5175 -0.1663 -0.2892
   16CHTO  H123 6575   5.663   3.535   2.417 -0.5935 -1.0867  1.4019
   16CHTO   N12 6576   5.755   3.725   2.419  0.3604  0.3909 -0.0641
   16CHTO  H110 6577   5.688   3.804   2.447  0.3579  0.5025 -0.3836
   16CHTO  H111 6578   5.750   3.708   2.312 -0.4477 -1.5119  0.2567
   16CHTO   C69 6579   5.842   3.523   2.537 -0.7827  0.4917 -0.2040
   16CHTO  H126 6580   5.900   3.587   2.607 -1.0313  0.2851  0.1936
   16CHTO   O41 6581   5.801   3.390   2.604 -0.2142  0.2583 -0.2448
   16CHTO   C64 6582   5.703   3.413   2.728  0.3437  0.4537  0.3257
   16CHTO  H121 6583   5.763   3.478   2.795  0.1085 -0.1709  1.1649
   16CHTO   C71 6584   5.681   3.269   2.777 -0.1882 -0.1679 -0.6983
   16CHTO   O47 6585   5.614   3.190   2.683 -0.7187  0.5380  0.2439
   16CHTO  H104 6586   5.659   3.179   2.601  0.2115 -1.8982  1.0097
   16CHTO   O34 6587   5.929   3.481   2.415 -0.4060  0.5149  0.3731
   16CHTO   C49 6588   6.005   3.363   2.395 -0.1994 -0.2850 -0.3813
   16CHTO   H91 6589   5.948   3.282   2.442  0.4486 -0.8627 -0.5846
   16CHTO   C47 6590   6.143   3.365   2.472 -0.2832 -0.4148  0.9981
   16CHTO   H89 6591   6.116   3.333   2.575  1.4486  1.3148  2.0238
   16CHTO   O33 6592   6.204   3.495   2.483 -0.0140  0.3087 -0.1845
   16CHTO   H70 6593   6.256   3.499   2.561  1.6905 -0.9687 -1.2079
   16CHTO   C45 6594   6.250   3.267   2.407 -0.9078  0.3396  0.6650
   16CHTO   H87 6595   6.317   3.322   2.340 -0.1492 -1.9307 -0.5221
   16CHTO    N8 6596   6.343   3.203   2.508 -0.3332 -0.2646 -0.2386
   16CHTO   H75 6597   6.287   3.126   2.560 -0.6624 -0.4835 -0.9001
   16CHTO   H76 6598   6.379   3.279   2.576  0.2567  0.0859 -0.9379
   16CHTO   C43 6599   6.183   3.164   2.310 -0.0584  0.8226  0.6206
   16CHTO   H85 6600   6.253   3.098   2.259 -3.3817  1.4410 -5.2085
   16CHTO   O29 6601   6.098   3.227   2.212 -0.2562 -0.0257 -0.0096
   16CHTO   C50 6602   6.012   3.336   2.244 -0.5557  0.5286 -0.1055
   16CHTO   H92 6603   6.046   3.430   2.198  2.0009 -0.8033 -1.0472
   16CHTO   C54 6604   5.869   3.303   2.189 -0.0862  0.0951 -0.5760
   16CHTO   O36 6605   5.881   3.280   2.049 -0.5441  0.0651  0.1704
   16CHTO   H72 6606   5.903   3.191   2.034 -1.3847 -0.1233  0.0232
   16CHTO   O27 6607   6.100   3.067   2.384 -0.4381 -0.0753  0.3425
   16CHTO   C37 6608   6.027   2.943   2.386 -0.3949 -0.4163  0.8370
   16CHTO   H79 6609   6.052   2.893   2.481  0.5792 -1.6966 -0.0627
   16CHTO   C38 6610   5.865   2.957   2.373 -0.8131 -0.6596  0.0003
   16CHTO   H80 6611   5.832   3.022   2.291 -0.7639 -0.6724 -0.0295
   16CHTO   O31 6612   5.825   3.022   2.492  0.2985 -0.1196 -0.1528
   16CHTO   H68 6613   5.734   3.006   2.512  0.6131 -0.4090  1.0459
   16CHTO   C39 6614   5.791   2.816   2.359  0.3572 -0.2639  0.0290
   16CHTO   H81 6615   5.810   2.766   2.454 -1.7911  1.8291  1.6311
   16CHTO    N7 6616   5.647   2.818   2.339  0.1210  0.0894  0.6879
   16CHTO   H73 6617   5.605   2.722   2.313  1.8762 -0.7338  0.8243
   16CHTO   H74 6618   5.620   2.899   2.273 -0.5422 -1.1422 -0.5871
   16CHTO   C40 6619   5.856   2.722   2.249 -0.4405 -0.7520 -0.1075
   16CHTO   H82 6620   5.817   2.753   2.153 -0.8581 -0.0764  0.2743
   16CHTO   O26 6621   6.001   2.731   2.256  0.1466 -0.4070  0.2450
   16CHTO   C41 6622   6.071   2.858   2.262  0.0755  0.0883  0.0579
   16CHTO   H83 6623   6.049   2.925   2.178 -2.6145 -0.9047 -0.0781
   16CHTO   C52 6624   6.226   2.830   2.264  0.2151 -0.7660 -0.2207
   16CHTO   O35 6625   6.275   2.737   2.365  0.1432  0.1787  0.9697
   16CHTO   H71 6626   6.368   2.734   2.357  0.2472 -0.0833  2.1453
   16CHTO   O28 6627   5.811   2.585   2.271 -0.1435  0.1868 -0.3300
   16CHTO   C42 6628   5.858   2.467   2.200  0.3972  0.9371 -0.0797
   16CHTO   H84 6629   5.967   2.474   2.196  0.8093 -3.2197  1.5692
   16CHTO   C44 6630   5.811   2.442   2.056  0.2491  0.9145 -0.9115
   16CHTO   H86 6631   5.702   2.455   2.056  0.2464  0.9470  0.0421
   16CHTO   O32 6632   5.862   2.543   1.971 -0.2208  0.4913 -0.3749
   16CHTO   H69 6633   5.939   2.517   1.923 -1.2947 -0.0789 -1.8130
   16CHTO   C48 6634   5.846   2.296   1.999 -0.3104 -0.2833 -0.2192
   16CHTO   H90 6635   5.953   2.304   1.978 -0.4292  0.9115 -0.3914
   16CHTO    N9 6636   5.778   2.261   1.863 -0.1339 -0.6696 -0.2628
   16CHTO   H77 6637   5.670   2.252   1.867 -0.0329 -1.7611  0.1688
   16CHTO   H78 6638   5.823   2.167   1.836  0.5952 -1.0102  1.9674
   16CHTO   C51 6639   5.838   2.181   2.103 -0.1869  0.1122  0.0553
   16CHTO   H93 6640   5.733   2.161   2.122  0.0367 -0.5126  0.6159
   16CHTO   O30 6641   5.899   2.232   2.226 -0.0976  0.2912  0.1337
   16CHTO   C46 6642   5.828   2.339   2.282  0.4655 -0.8670  0.6813
   16CHTO   H88 6643   5.720   2.325   2.275  0.5609 -1.9984  1.3164
   16CHTO   C53 6644   5.875   2.341   2.431 -0.3848 -0.4785 -0.0591
   16CHTO   O72 6645   5.815   2.436   2.516 -0.0124 -0.9029 -0.2657
   16CHTO  H199 6646   5.817   2.396   2.600  2.7267 -2.3602 -0.9730
   16CHTO   O22 6647   5.917   2.066   2.068  0.0643  0.1575 -0.3894
   16CHTO   C31 6648   5.897   1.927   2.116  0.3459  0.4179  0.3074
   16CHTO   H59 6649   5.849   1.945   2.214 -3.1093  0.9842 -1.4269
   16CHTO   C29 6650   5.795   1.848   2.030 -0.8076 -0.0720  0.5806
   16CHTO   H57 6651   5.840   1.837   1.930 -1.3471 -1.6018  0.4940
   16CHTO   O21 6652   5.679   1.928   2.008  0.5812 -0.7561  0.5184
   16CHTO   H37 6653   5.601   1.910   2.058  0.1602  0.2140  0.2349
   16CHTO   C27 6654   5.760   1.707   2.091  0.1651  0.1324  0.5952
   16CHTO   H55 6655   5.700   1.719   2.183  1.4849  0.3388  1.4303
   16CHTO    N5 6656   5.680   1.620   1.998 -0.0570  0.1533 -0.1246
   16CHTO   H43 6657   5.590   1.583   2.045  0.2514  1.3903  1.4985
   16CHTO   H44 6658   5.647   1.673   1.909 -1.6257 -2.7987 -1.3649
   16CHTO   C25 6659   5.891   1.634   2.137 -0.3344  0.0283  0.7436
   16CHTO   H53 6660   5.949   1.586   2.057  2.4030  0.0600  2.6290
   16CHTO   O17 6661   5.974   1.723   2.210 -0.7934 -0.2218  0.0666
   16CHTO   C32 6662   6.021   1.833   2.133  0.0245 -0.6108 -0.5342
   16CHTO   H60 6663   6.050   1.791   2.037  0.0827 -1.0533 -0.3269
   16CHTO   C36 6664   6.143   1.896   2.200 -0.2418 -0.2394 -0.9650
   16CHTO   O25 6665   6.242   1.799   2.235  0.2171 -0.4439  0.2184
   16CHTO   H40 6666   6.242   1.776   2.326 -1.9408  1.5109  0.7618
   16CHTO   O15 6667   5.867   1.501   2.228 -0.1283  0.2759  0.0433
   16CHTO   C19 6668   5.805   1.419   2.331 -0.0259 -0.1843  0.2909
   16CHTO   H47 6669   5.889   1.351   2.350  0.3068 -0.2912 -1.4529
   16CHTO   C20 6670   5.748   1.500   2.450 -0.1563 -0.6041  0.2894
   16CHTO   H48 6671   5.689   1.585   2.413 -1.6780 -2.4388 -1.6027
   16CHTO   O19 6672   5.862   1.552   2.519 -0.0283 -0.1690 -0.9709
   16CHTO   H35 6673   5.854   1.641   2.548  1.9756 -0.3789  0.3506
   16CHTO   C21 6674   5.654   1.413   2.543  0.4926 -0.6426 -0.5914
   16CHTO   H49 6675   5.719   1.347   2.602  1.1539  1.0596  0.6371
   16CHTO    N4 6676   5.589   1.503   2.642 -0.5530  0.4939 -0.6454
   16CHTO   H41 6677   5.656   1.558   2.706 -1.6748 -0.4141  1.3442
   16CHTO   H42 6678   5.526   1.441   2.704 -0.4947  0.1757 -0.8989
   16CHTO   C22 6679   5.551   1.342   2.452 -0.8265  0.6049 -0.2191
   16CHTO   H50 6680   5.487   1.407   2.392 -1.2701  0.0284 -0.3807
   16CHTO   O14 6681   5.626   1.255   2.362 -0.7922  0.0303  0.2305
   16CHTO   C23 6682   5.702   1.325   2.264  0.7101 -0.3198  0.3128
   16CHTO   H51 6683   5.635   1.382   2.197  1.5932 -0.0510 -0.3435
   16CHTO   C34 6684   5.753   1.225   2.169 -0.1642  0.0513 -0.3620
   16CHTO   O23 6685   5.802   1.288   2.045  0.1848  0.2779  0.3486
   16CHTO   H38 6686   5.866   1.232   2.006  0.5863  0.2361  1.0493
   16CHTO   O16 6687   5.469   1.253   2.534  0.2959  0.1942 -0.2313
   16CHTO   C24 6688   5.353   1.163   2.424 -0.3752 -0.1842 -0.6252
   16CHTO   H52 6689   5.382   1.176   2.320  0.4531  0.6483 -0.2831
   16CHTO   C26 6690   5.203   1.209   2.437 -0.3276 -0.5949 -0.7838
   16CHTO   H54 6691   5.171   1.216   2.543  2.1949 -0.4540  0.0127
   16CHTO   O20 6692   5.205   1.350   2.397 -0.0711 -0.3739  0.5150
   16CHTO   H36 6693   5.118   1.383   2.391 -0.2871 -1.0708 -0.2611
   16CHTO   C30 6694   5.107   1.122   2.349 -0.1843  0.2249  0.2615
   16CHTO   H58 6695   5.114   1.147   2.242 -1.5178 -0.5633 -0.0262
   16CHTO    N6 6696   4.964   1.155   2.380  0.5915 -0.0660 -0.4140
   16CHTO   H45 6697   4.944   1.155   2.486 -0.6195 -2.7090 -0.5973
   16CHTO   H46 6698   4.935   1.251   2.339  1.5942  0.2997 -0.2721
   16CHTO   C33 6699   5.143   0.969   2.362  0.1617  0.5815  0.0155
   16CHTO   H61 6700   5.108   0.943   2.463 -0.2845 -0.5540 -0.4174
   16CHTO   O18 6701   5.287   0.945   2.355  0.0375 -0.1452  0.5945
   16CHTO   C28 6702   5.361   1.011   2.454  0.0860  0.6906 -0.1243
   16CHTO   H56 6703   5.321   0.994   2.554 -3.3554 -0.0997 -1.5427
   16CHTO   C35 6704   5.504   0.939   2.447 -0.4476 -1.1697 -0.3385
   16CHTO   O24 6705   5.609   1.007   2.515  0.1127 -0.3361  0.1733
   16CHTO   H39 6706   5.658   1.069   2.464 -1.1349  0.7781  0.3072
   16CHTO    O9 6707   5.077   0.876   2.275 -0.5449  0.5994 -0.1705
   16CHTO   C13 6708   5.104   0.705   2.331 -0.8397  0.2850  0.1512
   16CHTO   H26 6709   5.166   0.709   2.423  2.8876 -1.7070 -2.1216
   16CHTO   C11 6710   5.181   0.622   2.220  0.5786 -0.5042  0.0914
   16CHTO   H24 6711   5.288   0.616   2.242  0.2713 -0.3785  1.6581
   16CHTO    O8 6712   5.189   0.697   2.099  0.3338 -0.2442 -0.1027
   16CHTO    H3 6713   5.212   0.787   2.094 -0.5252  0.0600  1.4168
   16CHTO    C9 6714   5.129   0.478   2.223 -0.4756 -0.3804 -0.2982
   16CHTO   H22 6715   5.140   0.448   2.328  0.2535  0.8902 -0.0036
   16CHTO    N2 6716   5.203   0.383   2.141 -0.8327  0.3757 -0.2595
   16CHTO   H10 6717   5.305   0.411   2.124 -0.7653 -0.1012 -0.6679
   16CHTO   H11 6718   5.202   0.295   2.205 -1.2632  0.3206 -0.3393
   16CHTO    C7 6719   4.972   0.481   2.185  0.2861  0.1272 -0.1125
   16CHTO   H20 6720   4.943   0.379   2.217 -1.0035  0.2057 -1.0063
   16CHTO    O4 6721   4.903   0.578   2.261  0.8047  0.1700 -0.4001
   16CHTO   C14 6722   4.962   0.645   2.369 -0.4248  0.0308 -0.3762
   16CHTO   H27 6723   4.969   0.579   2.458 -3.5918 -0.1874 -0.2087
   16CHTO   C18 6724   4.851   0.752   2.406  0.3196 -0.0816  0.3952
   16CHTO   O13 6725   4.880   0.819   2.526  0.5141  0.3295  0.4563
   16CHTO    H7 6726   4.823   0.796   2.596  1.4309  0.6920  1.3382
   16CHTO    O2 6727   4.949   0.500   2.028  0.0765 -0.0509 -0.0504
   16CHTO    C1 6728   4.850   0.577   1.964 -0.3355 -0.5222  0.7859
   16CHTO   H14 6729   4.849   0.548   1.856  2.6503 -1.1386  0.8884
   16CHTO    C2 6730   4.874   0.730   1.969 -0.4371  0.7489 -0.4129
   16CHTO   H15 6731   4.911   0.745   2.071  0.0717  0.0506 -0.4900
   16CHTO    O6 6732   4.980   0.757   1.876 -0.5224 -0.0897 -0.6233
   16CHTO    H1 6733   5.014   0.844   1.888  0.2414 -0.5015  0.2361
   16CHTO    C3 6734   4.737   0.812   1.942  0.2240 -0.6519  0.2095
   16CHTO   H16 6735   4.721   0.799   1.834  0.6684 -2.1350  0.3158
   16CHTO    N1 6736   4.746   0.965   1.956  0.0079 -0.3188  0.0212
   16CHTO    H8 6737   4.804   0.971   2.047 -1.0201  0.5326  0.6373
   16CHTO    H9 6738   4.654   1.021   1.969  0.9185  0.5897  3.0505
   16CHTO    C4 6739   4.610   0.753   2.007  0.3794  0.6065 -0.5069
   16CHTO   H17 6740   4.623   0.761   2.115  2.5387  2.5641 -0.8674
   16CHTO    O1 6741   4.604   0.616   1.966  0.2498  0.1718  0.0493
   16CHTO    C5 6742   4.709   0.535   2.021 -0.8796  0.2941 -0.3417
   16CHTO   H18 6743   4.717   0.556   2.128  5.0336 -1.4208 -0.2764
   16CHTO   C16 6744   4.662   0.392   1.997  0.0621  0.0822  0.3195
   16CHTO   O11 6745   4.544   0.335   2.046  0.0502  0.3470 -0.1143
   16CHTO    H5 6746   4.470   0.387   2.021 -1.0100 -0.9104  0.3553
   16CHTO    O3 6747   4.482   0.812   1.972  0.2645  0.2720  0.8247
   16CHTO    C6 6748   4.382   0.801   2.077 -0.3421  0.1795 -1.0000
   16CHTO   H19 6749   4.415   0.756   2.170  0.2492  1.0172 -0.7973
   16CHTO    C8 6750   4.346   0.944   2.121 -0.1643 -0.3258  0.5490
   16CHTO   H21 6751   4.321   1.004   2.033  0.1883 -0.1238  0.5837
   16CHTO    O7 6752   4.459   1.005   2.188 -0.4427  0.3864 -0.0357
   16CHTO    H2 6753   4.435   1.048   2.268 -0.7673  0.0728  0.0339
   16CHTO   C12 6754   4.224   0.932   2.221  0.0879 -0.2765 -0.2238
   16CHTO   H25 6755   4.265   0.871   2.305  2.6610 -0.2798 -1.4059
   16CHTO    N3 6756   4.177   1.066   2.270 -0.1283 -0.1458 -0.1977
   16CHTO   H12 6757   4.253   1.113   2.331 -0.9158 -0.9406  1.4188
   16CHTO   H13 6758   4.081   1.065   2.318 -0.8820  0.4860 -1.6666
   16CHTO   C15 6759   4.111   0.856   2.149  0.4565  0.2914  0.6340
   16CHTO   H28 6760   4.070   0.893   2.055  2.1936  1.9232  0.4864
   16CHTO   O10 6761   3.970   0.821   2.245 -0.7020 -0.3070 -0.1902
   16CHTO    H4 6762   3.915   0.897   2.246 -0.3737 -0.0619 -0.7137
   16CHTO    O5 6763   4.155   0.721   2.134 -0.3379  0.4622 -0.0764
   16CHTO   C10 6764   4.253   0.722   2.029 -0.2621  0.1001 -0.3035
   16CHTO   H23 6765   4.212   0.775   1.942 -1.9163 -0.3638  0.1678
   16CHTO   C17 6766   4.279   0.582   2.004 -0.2992 -0.1544 -0.7285
   16CHTO   O12 6767   4.169   0.499   1.984  0.0582 -0.3408 -0.1493
   16CHTO    H6 6768   4.081   0.529   1.979 -0.3385 -1.3494  0.4250
   17CHTO  H203 6769   3.426   4.243   1.805 -1.0191 -0.9408  2.3181
   17CHTO   O82 6770   3.422   4.317   1.863  0.0987  0.2934  0.8533
   17CHTO  C123 6771   3.461   4.449   1.806 -0.2492 -0.5071  0.0591
   17CHTO  H227 6772   3.417   4.527   1.869  1.3993  0.8504 -0.4333
   17CHTO   O77 6773   3.609   4.448   1.809 -0.1943  0.7626 -0.5589
   17CHTO  C118 6774   3.676   4.556   1.744 -0.1701 -0.0091  0.5217
   17CHTO  H222 6775   3.645   4.653   1.785  1.7133  0.5552  0.6559
   17CHTO  C125 6776   3.830   4.535   1.781  0.1264 -0.1391 -0.0431
   17CHTO   O84 6777   3.859   4.599   1.908  0.1384 -0.0956  0.0963
   17CHTO  H205 6778   3.947   4.629   1.906  0.1850 -0.2887 -2.6424
   17CHTO  C114 6779   3.649   4.540   1.592  0.3020  0.3453  0.7385
   17CHTO  H218 6780   3.669   4.436   1.566  0.0722  0.2169  1.0660
   17CHTO  C116 6781   3.496   4.557   1.569  0.5842 -0.6388  0.8754
   17CHTO  H220 6782   3.464   4.662   1.583 -0.2385 -0.7978  0.2382
   17CHTO   O79 6783   3.482   4.534   1.427 -0.1836 -0.0271  0.2891
   17CHTO  H201 6784   3.404   4.580   1.401 -0.9296 -1.0677  0.6390
   17CHTO  C120 6785   3.408   4.454   1.661 -0.7474 -0.1566  0.4355
   17CHTO  H224 6786   3.426   4.360   1.606  1.0162  0.1713  0.4407
   17CHTO   N21 6787   3.265   4.485   1.640  0.5395  0.2745  0.1927
   17CHTO  H211 6788   3.249   4.499   1.534  3.7452 -0.4868 -0.4460
   17CHTO  H212 6789   3.246   4.571   1.703 -1.0582 -0.5046  0.8015
   17CHTO   O75 6790   3.726   4.646   1.530 -0.3804 -0.2325 -0.0013
   17CHTO  C112 6791   3.813   4.592   1.406 -0.0877  0.0722 -0.2806
   17CHTO  H216 6792   3.763   4.507   1.357  2.7288 -2.3819  0.9629
   17CHTO   O73 6793   3.943   4.550   1.458 -0.0935 -0.5887 -0.4243
   17CHTO  C113 6794   4.055   4.529   1.369  0.1837 -0.8358 -0.6504
   17CHTO  H217 6795   4.031   4.439   1.308 -0.8484 -1.6151  0.8979
   17CHTO  C124 6796   4.176   4.479   1.456  0.1657  0.6823 -0.0310
   17CHTO   O83 6797   4.223   4.593   1.534 -0.4357 -0.3010 -0.0623
   17CHTO  H204 6798   4.261   4.661   1.482 -0.8443 -0.7970 -1.0370
   17CHTO  C109 6799   4.083   4.648   1.270 -0.1662 -0.5921  0.1491
   17CHTO  H213 6800   4.120   4.733   1.330  0.3692 -0.6589 -0.0862
   17CHTO  C110 6801   3.945   4.684   1.202  0.0041  0.1634  0.0683
   17CHTO  H214 6802   3.907   4.597   1.147 -3.2868  0.2740  2.0806
   17CHTO   O78 6803   3.971   4.799   1.114 -0.4271 -0.2058 -0.4255
   17CHTO  H200 6804   3.914   4.805   1.039 -1.3976 -0.5819  0.2698
   17CHTO  C111 6805   3.841   4.720   1.313  0.5178  0.4667 -0.3702
   17CHTO  H215 6806   3.883   4.801   1.373  1.5309 -0.6438  0.4344
   17CHTO   N19 6807   3.708   4.766   1.260  0.2788  0.2296 -0.2834
   17CHTO  H207 6808   3.663   4.686   1.203  0.4083  0.2717 -0.4437
   17CHTO  H208 6809   3.731   4.855   1.203 -1.5327  0.9379  0.0279
   17CHTO   O74 6810   4.175   4.617   1.163  0.0543 -0.6799 -0.7270
   17CHTO  C115 6811   4.343   4.685   1.200 -0.3079 -0.3742 -1.0073
   17CHTO  H219 6812   4.341   4.753   1.284 -0.8326 -1.5753 -0.0395
   17CHTO   O76 6813   4.436   4.576   1.242 -0.3029 -0.4682  0.4939
   17CHTO  C122 6814   4.575   4.604   1.274 -0.2845 -0.1781  0.0780
   17CHTO  H226 6815   4.626   4.507   1.266 -0.9313 -0.3879 -1.7414
   17CHTO  C126 6816   4.587   4.647   1.432 -0.1851  0.2031 -0.3228
   17CHTO   O85 6817   4.721   4.655   1.492  0.3419  0.2105 -0.0160
   17CHTO  H206 6818   4.754   4.570   1.513 -0.7068  0.0161  0.8633
   17CHTO  C121 6819   4.641   4.708   1.182 -0.3983 -0.6199 -0.6272
   17CHTO  H225 6820   4.729   4.754   1.231 -0.1600 -1.8308  0.1073
   17CHTO   O81 6821   4.695   4.656   1.062 -0.5452 -0.2534  0.2773
   17CHTO  H202 6822   4.751   4.581   1.057  0.6035  0.6161 -0.2902
   17CHTO  C119 6823   4.548   4.826   1.138 -0.2129  0.1243 -0.7349
   17CHTO  H223 6824   4.525   4.880   1.230 -3.8128 -1.4134 -0.6498
   17CHTO  C117 6825   4.408   4.769   1.082  0.2201  0.1351 -0.1885
   17CHTO  H221 6826   4.408   4.698   0.999  0.8662 -0.8242  0.6128
   17CHTO   N20 6827   4.310   4.869   1.042 -0.2213 -0.9213 -0.0005
   17CHTO  H209 6828   4.226   4.831   0.985 -0.3036  1.4945 -1.5509
   17CHTO  H210 6829   4.281   4.928   1.127  2.1335  1.3368 -0.7270
   17CHTO   O80 6830   4.631   4.947   1.039  0.8143  0.2819 -0.5646
   17CHTO  C103 6831   4.770   5.004   1.088 -0.0675 -0.1191  0.2868
   17CHTO  H190 6832   4.790   4.956   1.184  0.1666  0.4211  0.5099
   17CHTO  C101 6833   4.887   4.978   0.991  0.2273 -1.1617 -1.0438
   17CHTO  H188 6834   4.861   5.012   0.891  1.1124  0.3427 -0.7823
   17CHTO   O68 6835   4.908   4.828   0.989  0.2851  0.3006 -0.0241
   17CHTO  H168 6836   4.998   4.804   0.998  0.5752  0.9307 -1.1524
   17CHTO   C99 6837   5.016   5.056   1.038 -0.3247  0.3301 -0.6289
   17CHTO  H186 6838   5.045   5.007   1.133  2.1627 -0.4581 -1.7328
   17CHTO   N17 6839   5.138   5.028   0.955 -0.1463 -0.1239  0.1189
   17CHTO  H174 6840   5.122   4.968   0.867  0.8624  2.1525 -1.6925
   17CHTO  H175 6841   5.178   5.122   0.919 -0.5656  1.0198  2.5154
   17CHTO   C97 6842   4.981   5.207   1.064  0.3868  0.4903  0.1710
   17CHTO  H184 6843   4.964   5.256   0.967 -0.5408  0.9373  0.5470
   17CHTO   O64 6844   4.866   5.219   1.151  0.2010  0.4218 -0.0160
   17CHTO  C104 6845   4.747   5.148   1.119  0.5304 -0.5930  0.3554
   17CHTO  H191 6846   4.700   5.193   1.032  0.3938  0.3005  0.8798
   17CHTO  C108 6847   4.640   5.158   1.231 -0.5158 -0.3690  0.4870
   17CHTO   O71 6848   4.677   5.090   1.352 -0.4167 -0.3099 -0.1141
   17CHTO  H171 6849   4.707   5.002   1.335  3.4072  1.1651 -1.6893
   17CHTO   O62 6850   5.087   5.280   1.127  0.3574  0.2218 -0.0620
   17CHTO   C91 6851   5.132   5.410   1.076 -0.6493  0.0954  0.1126
   17CHTO  H178 6852   5.089   5.418   0.977  0.3301 -3.9012 -0.7204
   17CHTO   C92 6853   5.291   5.404   1.063 -0.6143  0.6809  0.2612
   17CHTO  H179 6854   5.326   5.360   1.157 -1.5859  3.3999  1.9722
   17CHTO   O66 6855   5.321   5.311   0.949 -0.2859  0.5048 -0.3179
   17CHTO  H166 6856   5.303   5.356   0.869 -2.1745  0.6914  0.1728
   17CHTO   C93 6857   5.361   5.541   1.047  0.1626 -0.2685  0.4142
   17CHTO  H180 6858   5.351   5.582   0.945 -0.0500 -1.7935 -0.1908
   17CHTO   N16 6859   5.508   5.534   1.065  0.4539  0.1800  0.5025
   17CHTO  H172 6860   5.529   5.488   1.160  0.3707 -0.6277  0.1336
   17CHTO  H173 6861   5.552   5.471   0.989 -1.3146 -0.0963 -0.3113
   17CHTO   C94 6862   5.295   5.646   1.144  0.3175 -0.5094  0.1243
   17CHTO  H181 6863   5.316   5.627   1.250  2.2687  0.4000 -0.0702
   17CHTO   O61 6864   5.157   5.651   1.125  0.5482 -0.6019  0.3272
   17CHTO   C95 6865   5.091   5.533   1.177  0.3338  0.2894 -0.6936
   17CHTO  H182 6866   5.125   5.517   1.279  0.8139 -0.4468 -0.9599
   17CHTO  C106 6867   4.944   5.563   1.176  0.4126  0.6784 -0.0535
   17CHTO   O69 6868   4.923   5.658   1.281 -0.7338 -0.1555 -0.2004
   17CHTO  H169 6869   4.832   5.674   1.297 -0.1936  1.4967  1.5149
   17CHTO   O63 6870   5.341   5.793   1.118 -0.4191 -0.0151  1.1635
   17CHTO   C96 6871   5.308   5.901   1.237  0.7145 -0.3968  0.5336
   17CHTO  H183 6872   5.258   5.846   1.316 -0.8468 -1.2473 -1.0194
   17CHTO   C98 6873   5.218   6.014   1.188 -0.0907 -0.1205  0.1506
   17CHTO  H185 6874   5.246   6.051   1.088  0.7992  0.9459  0.8000
   17CHTO   O67 6875   5.086   5.950   1.172  0.1461  0.6563  0.4572
   17CHTO  H167 6876   5.026   6.009   1.132  0.4267 -0.5143 -1.7447
   17CHTO  C102 6877   5.195   6.138   1.294  0.5437  0.6619  0.4317
   17CHTO  H189 6878   5.127   6.100   1.370  0.0814 -0.8803 -0.7405
   17CHTO   N18 6879   5.133   6.260   1.237 -0.0963 -0.7897 -0.3189
   17CHTO  H176 6880   5.116   6.335   1.312  2.4238 -1.1517  0.6788
   17CHTO  H177 6881   5.038   6.240   1.191 -1.1040  0.0285  1.3622
   17CHTO  C105 6882   5.332   6.177   1.363  0.5171  0.7994 -0.2270
   17CHTO  H192 6883   5.391   6.237   1.294  0.8848 -0.1268 -0.7218
   17CHTO   O65 6884   5.426   6.061   1.396  0.0713  0.5252 -0.4050
   17CHTO  C100 6885   5.445   5.973   1.283 -0.3336 -0.1710  0.7319
   17CHTO  H187 6886   5.493   6.013   1.193  0.4741 -0.3531  1.0778
   17CHTO  C107 6887   5.552   5.866   1.332  0.5743 -0.0285 -0.0535
   17CHTO   O70 6888   5.685   5.912   1.372 -0.2181  0.4764  0.2004
   17CHTO  H170 6889   5.744   5.945   1.307  1.5450  0.2968  1.6375
   17CHTO   O57 6890   5.284   6.251   1.508  0.5407  0.3491  0.4480
   17CHTO   C85 6891   5.373   6.354   1.567  0.7474 -0.2920  0.2386
   17CHTO  H157 6892   5.429   6.396   1.481  2.2400 -1.6928  0.5102
   17CHTO   C83 6893   5.480   6.280   1.658 -0.2148 -0.9054  0.5224
   17CHTO  H155 6894   5.543   6.226   1.586 -0.1748  0.6374 -0.6342
   17CHTO   O56 6895   5.409   6.190   1.741  0.1336 -0.3678  0.1600
   17CHTO  H135 6896   5.379   6.239   1.815  0.3558  0.3515 -0.2255
   17CHTO   C81 6897   5.571   6.385   1.729  0.1078 -0.1651  0.4623
   17CHTO  H153 6898   5.626   6.438   1.651 -2.1196 -1.4089 -2.0275
   17CHTO   N14 6899   5.683   6.325   1.803 -0.1147  0.1381 -0.3434
   17CHTO  H141 6900   5.696   6.220   1.786 -0.1318  0.0173  0.4066
   17CHTO  H142 6901   5.774   6.379   1.783  1.6462 -2.1757  1.1156
   17CHTO   C79 6902   5.487   6.489   1.812  0.0640 -0.3383 -0.6804
   17CHTO  H151 6903   5.557   6.564   1.850 -0.4642 -0.0520 -0.2746
   17CHTO   O52 6904   5.391   6.554   1.722  0.0253 -0.5182  0.3623
   17CHTO   C86 6905   5.301   6.470   1.650 -0.2286  0.4315 -0.3756
   17CHTO  H158 6906   5.241   6.423   1.730  0.7239  1.0267  0.6948
   17CHTO   C90 6907   5.208   6.551   1.565  0.2545 -0.9798  0.4454
   17CHTO   O60 6908   5.081   6.483   1.561 -0.3554 -0.3057 -0.8980
   17CHTO  H138 6909   5.101   6.396   1.530 -2.3714 -0.6150 -1.4106
   17CHTO   O50 6910   5.413   6.430   1.918 -0.0443  0.1006 -0.5958
   17CHTO   C73 6911   5.398   6.473   2.048  0.5216  0.0354 -0.7203
   17CHTO  H145 6912   5.441   6.571   2.073 -1.1403  0.8076 -0.8030
   17CHTO   C74 6913   5.454   6.355   2.143 -0.4700 -0.0698 -0.1078
   17CHTO  H146 6914   5.559   6.342   2.112 -0.7755  1.1831 -1.7745
   17CHTO   O54 6915   5.457   6.405   2.278 -0.6153  0.1226  0.5890
   17CHTO  H133 6916   5.368   6.414   2.308 -0.6200 -2.0345  1.2541
   17CHTO   C75 6917   5.373   6.221   2.118 -0.6897 -0.9942  0.2658
   17CHTO  H147 6918   5.410   6.180   2.023  0.0045  0.6422 -0.1922
   17CHTO   N13 6919   5.414   6.111   2.206  0.4016 -0.5893 -0.3623
   17CHTO  H139 6920   5.521   6.099   2.214  0.3298 -0.4964  0.8887
   17CHTO  H140 6921   5.365   6.020   2.173  0.6805 -0.0038 -2.4672
   17CHTO   C76 6922   5.213   6.245   2.114 -0.1928  0.1198 -0.8314
   17CHTO  H148 6923   5.181   6.249   2.219  1.3652 -0.8428 -0.3109
   17CHTO   O49 6924   5.168   6.373   2.052  0.5108  0.3025 -0.2843
   17CHTO   C77 6925   5.246   6.486   2.077  0.3376 -0.2372 -0.0559
   17CHTO  H149 6926   5.239   6.506   2.184 -1.2573 -0.6142 -0.0821
   17CHTO   C88 6927   5.176   6.608   2.017  0.1285  0.2999 -0.4115
   17CHTO   O58 6928   5.033   6.654   2.081 -0.3539 -0.2400 -0.2839
   17CHTO  H136 6929   4.975   6.664   2.008  0.2907  1.2725 -0.6015
   17CHTO   O51 6930   5.144   6.135   2.044 -0.3511 -0.1706 -0.1746
   17CHTO   C78 6931   4.986   6.111   2.052 -0.1160  0.1566  0.5438
   17CHTO  H150 6932   4.928   6.202   2.079  2.3460  1.3437  2.0447
   17CHTO   C80 6933   4.949   5.997   2.151 -0.2353 -1.1385  0.1798
   17CHTO  H152 6934   5.000   5.907   2.112 -0.3497 -0.2812 -2.0429
   17CHTO   O55 6935   5.000   6.025   2.278  0.6538  0.1385 -0.0362
   17CHTO  H134 6936   5.041   6.109   2.282  0.1054  0.4434 -0.6840
   17CHTO   C84 6937   4.793   5.968   2.158  0.1872  0.8124 -0.4427
   17CHTO  H156 6938   4.740   6.049   2.208 -0.7825  0.2904 -0.5982
   17CHTO   N15 6939   4.749   5.840   2.236 -0.2863  0.2092 -0.0744
   17CHTO  H143 6940   4.749   5.853   2.342  0.2095 -3.3403  0.4187
   17CHTO  H144 6941   4.789   5.745   2.210 -1.5568 -0.6991  1.1741
   17CHTO   C87 6942   4.736   5.944   2.015 -0.5399 -0.3173  0.1434
   17CHTO  H159 6943   4.761   5.845   1.978 -2.8732 -0.5851 -0.7674
   17CHTO   O53 6944   4.800   6.068   1.906 -0.1738 -0.1768  0.7304
   17CHTO   C82 6945   4.944   6.073   1.907  0.0803 -0.5636  0.1738
   17CHTO  H154 6946   4.995   5.982   1.874 -3.8758 -3.0490  0.5741
   17CHTO   C89 6947   4.984   6.180   1.801  0.3002 -0.1975  1.0223
   17CHTO   O59 6948   4.945   6.314   1.840 -0.2833 -0.4720  0.1577
   17CHTO  H137 6949   4.857   6.311   1.871 -0.3465 -2.7119 -0.1574
   17CHTO   O45 6950   4.567   5.961   2.016 -0.2068 -0.2730  0.4892
   17CHTO   C67 6951   4.517   5.917   1.887 -0.0498 -0.1677  0.5723
   17CHTO  H124 6952   4.588   5.854   1.833 -1.3388  0.4023 -1.8532
   17CHTO   C65 6953   4.381   5.840   1.898 -0.5911  0.1578 -0.6453
   17CHTO  H122 6954   4.399   5.756   1.966  0.2480  0.8980  0.0521
   17CHTO   O44 6955   4.343   5.782   1.769  0.5844 -0.6412  0.0170
   17CHTO  H102 6956   4.323   5.844   1.702  1.1462 -0.8677 -0.3620
   17CHTO   C63 6957   4.285   5.937   1.966  0.8578 -0.6897 -0.5546
   17CHTO  H120 6958   4.329   5.979   2.056 -2.5409 -1.5309  1.5926
   17CHTO   N11 6959   4.154   5.868   2.016  0.3218  0.4879  0.2484
   17CHTO  H108 6960   4.072   5.936   2.015 -0.2022 -0.1541 -2.1775
   17CHTO  H109 6961   4.175   5.819   2.109  2.7715  1.6202  0.3449
   17CHTO   C61 6962   4.254   6.056   1.871  0.1835 -0.2243 -0.8849
   17CHTO  H118 6963   4.202   6.132   1.931  1.4661  0.1126 -0.1855
   17CHTO   O40 6964   4.379   6.121   1.829  0.2396 -0.3242 -0.6869
   17CHTO   C68 6965   4.497   6.046   1.798 -0.1467  0.0371  0.6238
   17CHTO  H125 6966   4.575   6.115   1.834 -0.2361  0.2654  0.3864
   17CHTO   C72 6967   4.519   6.020   1.641  0.2347  0.0603  0.4315
   17CHTO   O48 6968   4.654   5.992   1.610 -0.3150 -0.3314  0.5212
   17CHTO  H105 6969   4.680   5.902   1.603 -1.8731 -0.8130  0.6945
   17CHTO   O38 6970   4.189   6.020   1.751 -0.1815 -0.4294 -0.5542
   17CHTO   C55 6971   4.067   6.093   1.718 -0.1874 -0.0221  0.0066
   17CHTO  H112 6972   4.033   6.169   1.790 -1.9517 -0.2690 -0.5484
   17CHTO   C56 6973   3.953   5.990   1.686  0.3013 -0.0723  0.2340
   17CHTO  H113 6974   3.997   5.908   1.627  0.5536  0.6947 -0.6579
   17CHTO   O42 6975   3.912   5.924   1.804  0.1527 -0.1466 -0.7402
   17CHTO  H100 6976   3.981   5.895   1.860 -0.6082  2.1894  1.4970
   17CHTO   C57 6977   3.830   6.046   1.605 -0.0579 -0.7331  0.0076
   17CHTO  H114 6978   3.784   6.111   1.680  0.9048 -1.0200  0.8598
   17CHTO   N10 6979   3.732   5.947   1.555  0.9232 -0.0428 -0.3097
   17CHTO  H106 6980   3.679   5.990   1.471 -0.2898  0.6013  0.7665
   17CHTO  H107 6981   3.664   5.940   1.639  0.6331 -1.7303 -0.6693
   17CHTO   C58 6982   3.887   6.138   1.490 -0.0701  0.6575  0.3693
   17CHTO  H115 6983   3.943   6.073   1.419 -0.5582  0.3081  0.2957
   17CHTO   O37 6984   3.979   6.230   1.546 -0.2093 -0.2459  0.1305
   17CHTO   C59 6985   4.104   6.169   1.588 -0.7059 -0.1894  0.1249
   17CHTO  H116 6986   4.150   6.101   1.517  0.2391 -0.5696  1.0839
   17CHTO   C70 6987   4.193   6.288   1.620  0.6856 -0.0085  0.2035
   17CHTO   O46 6988   4.206   6.366   1.499  0.6135  0.5383  0.1015
   17CHTO  H103 6989   4.148   6.440   1.504  1.6328  1.2497  2.0806
   17CHTO   O39 6990   3.763   6.212   1.418 -0.8612  1.2380 -0.2327
   17CHTO   C60 6991   3.762   6.355   1.430 -0.3638  0.1301  0.5422
   17CHTO  H117 6992   3.796   6.390   1.527 -2.3959  3.1472  0.2499
   17CHTO   C62 6993   3.843   6.434   1.326  0.8849  0.5977 -0.3989
   17CHTO  H119 6994   3.946   6.396   1.336  1.1015  1.7316  2.1795
   17CHTO   O43 6995   3.787   6.401   1.197 -0.3538 -0.1149 -0.7217
   17CHTO  H101 6996   3.696   6.424   1.189 -0.3048  0.6572  0.7141
   17CHTO   C66 6997   3.851   6.587   1.373  0.3083  0.4189  0.2107
   17CHTO  H123 6998   3.903   6.598   1.468  2.0226 -0.2604 -0.6412
   17CHTO   N12 6999   3.929   6.664   1.277  0.3435  0.3612 -0.0619
   17CHTO  H110 7000   3.946   6.603   1.189 -1.0450 -0.0916 -0.0351
   17CHTO  H111 7001   4.024   6.697   1.314 -0.4481 -0.1972  2.5974
   17CHTO   C69 7002   3.706   6.653   1.392 -0.4889  0.2883 -0.0773
   17CHTO  H126 7003   3.663   6.686   1.295 -0.8900  0.4784  0.1652
   17CHTO   O41 7004   3.606   6.546   1.458  0.4012  0.1249  0.4025
   17CHTO   C64 7005   3.613   6.398   1.416  0.1273 -0.4658 -0.5514
   17CHTO  H121 7006   3.578   6.393   1.311  0.1511 -1.2490 -0.5224
   17CHTO   C71 7007   3.525   6.302   1.507  0.0230 -0.6494  0.1413
   17CHTO   O47 7008   3.567   6.337   1.643 -0.3109 -0.3429 -0.3948
   17CHTO  H104 7009   3.661   6.338   1.644 -0.3158  0.5483  0.2034
   17CHTO   O34 7010   3.710   6.773   1.471 -0.7410 -0.5425  0.2493
   17CHTO   C49 7011   3.605   6.882   1.475  0.0329 -0.7644 -0.4953
   17CHTO   H91 7012   3.633   6.959   1.403  0.0108  1.7176  2.0872
   17CHTO   C47 7013   3.629   6.937   1.617  0.9278 -0.5060 -0.5727
   17CHTO   H89 7014   3.561   7.025   1.612  1.4089 -0.1061 -0.0987
   17CHTO   O33 7015   3.769   6.981   1.635 -0.1382 -0.0597 -0.3420
   17CHTO   H70 7016   3.776   7.054   1.577  0.0571 -0.0317 -0.2796
   17CHTO   C45 7017   3.586   6.829   1.728  0.0221  0.1986  0.4469
   17CHTO   H87 7018   3.672   6.764   1.751 -1.7489 -2.3765 -0.0438
   17CHTO    N8 7019   3.557   6.918   1.846  0.4000 -1.0360 -0.2563
   17CHTO   H75 7020   3.630   6.997   1.859 -0.0006 -0.8775  1.0890
   17CHTO   H76 7021   3.453   6.943   1.861  0.4102 -0.9953 -0.2522
   17CHTO   C43 7022   3.480   6.720   1.681 -0.8744  0.3045  0.0140
   17CHTO   H85 7023   3.532   6.628   1.655 -0.3168  0.4846  0.4722
   17CHTO   O29 7024   3.401   6.771   1.574 -0.6181  0.0674 -0.2521
   17CHTO   C50 7025   3.455   6.834   1.453 -0.8088 -0.0353  0.1735
   17CHTO   H92 7026   3.444   6.752   1.380  1.1285 -2.4711  2.4769
   17CHTO   C54 7027   3.349   6.938   1.404  0.3064  0.0425  0.0823
   17CHTO   O36 7028   3.217   6.873   1.391 -0.4195 -0.2960  0.1291
   17CHTO   H72 7029   3.147   6.928   1.421  0.5406  1.4119 -0.7115
   17CHTO   O27 7030   3.398   6.672   1.792 -0.0512 -0.7213 -0.2850
   17CHTO   C37 7031   3.292   6.573   1.830  0.4121 -0.1188  0.8907
   17CHTO   H79 7032   3.214   6.635   1.875 -1.0015 -0.5288 -0.9647
   17CHTO   C38 7033   3.235   6.500   1.708 -0.0775 -0.3690 -0.7939
   17CHTO   H80 7034   3.311   6.496   1.629  0.3827  1.0264 -0.4458
   17CHTO   O31 7035   3.136   6.592   1.652  0.0534 -0.5589 -0.1990
   17CHTO   H68 7036   3.145   6.624   1.564  1.1821  0.0851  0.1387
   17CHTO   C39 7037   3.170   6.360   1.741 -0.2743 -0.8651 -0.2916
   17CHTO   H81 7038   3.072   6.383   1.784  0.2366  0.6959  0.0644
   17CHTO    N7 7039   3.159   6.277   1.613 -0.1264  0.2289 -0.2997
   17CHTO   H73 7040   3.119   6.338   1.533 -0.6132  1.3896  0.8262
   17CHTO   H74 7041   3.081   6.202   1.617  0.5607 -0.4678  0.1619
   17CHTO   C40 7042   3.247   6.290   1.858  0.0262  0.0850 -0.4247
   17CHTO   H82 7043   3.342   6.265   1.812  0.5831 -0.1599  0.8270
   17CHTO   O26 7044   3.268   6.365   1.977  0.7298 -0.2228 -0.1540
   17CHTO   C41 7045   3.357   6.477   1.940  0.4333 -0.3492  0.0503
   17CHTO   H83 7046   3.459   6.448   1.913  1.2721  1.3627  1.2689
   17CHTO   C52 7047   3.367   6.564   2.071 -0.2784  0.5910 -0.0322
   17CHTO   O35 7048   3.471   6.639   2.072  0.7303 -0.4646 -0.3569
   17CHTO   H71 7049   3.546   6.583   2.086  1.9617  0.7645 -1.8046
   17CHTO   O28 7050   3.188   6.161   1.888  0.1086 -0.2518 -0.0420
   17CHTO   C42 7051   3.257   6.043   1.936  0.4234  0.0494 -0.1325
   17CHTO   H84 7052   3.181   6.004   2.003  1.6390  0.5694  1.5670
   17CHTO   C44 7053   3.390   6.053   2.022 -0.7222  0.2660 -0.5482
   17CHTO   H86 7054   3.461   6.120   1.973  0.1407 -0.8171 -0.8007
   17CHTO   O32 7055   3.357   6.122   2.143 -0.3460  0.3366  0.3537
   17CHTO   H69 7056   3.293   6.072   2.189  0.3381 -2.3048 -1.4135
   17CHTO   C48 7057   3.462   5.913   2.052  0.0740 -0.6569  0.8631
   17CHTO   H90 7058   3.396   5.868   2.126 -3.7902  1.5218 -1.0709
   17CHTO    N9 7059   3.602   5.936   2.116  0.1550 -0.0785 -0.4231
   17CHTO   H77 7060   3.686   5.951   2.049  0.5520 -0.8169 -0.0955
   17CHTO   H78 7061   3.606   6.007   2.197  1.1380  1.8407 -2.0971
   17CHTO   C51 7062   3.476   5.820   1.921  0.4752 -0.4871 -0.3341
   17CHTO   H93 7063   3.551   5.858   1.852  1.9679  0.0331  1.5431
   17CHTO   O30 7064   3.343   5.816   1.858 -0.3610  0.2314 -0.4943
   17CHTO   C46 7065   3.274   5.947   1.816 -0.3901  0.5820 -0.5600
   17CHTO   H88 7066   3.335   5.999   1.742 -0.3566  1.4501  0.0733
   17CHTO   C53 7067   3.141   5.914   1.754  0.2489  0.2872  0.6532
   17CHTO   O72 7068   3.164   5.829   1.640 -0.4566 -0.1808  0.9629
   17CHTO  H199 7069   3.139   5.740   1.659  0.2515 -0.6275 -0.1144
   17CHTO   O22 7070   3.504   5.685   1.954 -0.0072 -0.1531 -0.4943
   17CHTO   C31 7071   3.584   5.610   1.855  0.3287 -0.3067  0.0686
   17CHTO   H59 7072   3.592   5.505   1.891  0.0584 -0.2704  0.2352
   17CHTO   C29 7073   3.506   5.600   1.717 -0.0806 -0.5644  0.4522
   17CHTO   H57 7074   3.483   5.701   1.680 -0.4204  0.0039  2.1783
   17CHTO   O21 7075   3.383   5.531   1.739  0.7096  0.5962  0.0887
   17CHTO   H37 7076   3.339   5.556   1.817  2.0176 -1.0693  1.4109
   17CHTO   C27 7077   3.583   5.515   1.603 -0.7662 -0.0708 -0.1040
   17CHTO   H55 7078   3.584   5.411   1.638  1.0908 -0.2033 -0.5055
   17CHTO    N5 7079   3.517   5.521   1.469  0.2223  0.0567 -0.0155
   17CHTO   H43 7080   3.411   5.541   1.469  0.4471  1.4366  1.9342
   17CHTO   H44 7081   3.576   5.554   1.385  1.4543  0.6179  1.0489
   17CHTO   C25 7082   3.728   5.572   1.603 -0.3363 -0.3486  0.0576
   17CHTO   H53 7083   3.726   5.676   1.567  1.1149 -0.0286  0.8253
   17CHTO   O17 7084   3.788   5.568   1.731  0.3163 -0.3442 -0.6051
   17CHTO   C32 7085   3.729   5.654   1.824  0.0759 -0.3437  0.0693
   17CHTO   H60 7086   3.724   5.753   1.779  0.9394 -0.1207  0.4454
   17CHTO   C36 7087   3.829   5.624   1.940  0.1317 -0.7635 -0.9948
   17CHTO   O25 7088   3.828   5.487   1.983 -0.1960 -0.3053  0.2550
   17CHTO   H40 7089   3.746   5.482   2.028 -0.3951 -3.2806 -0.3407
   17CHTO   O15 7090   3.821   5.488   1.504  0.2776 -0.5378  0.1860
   17CHTO   C19 7091   3.915   5.544   1.406 -0.1875 -0.6699 -0.1602
   17CHTO   H47 7092   3.982   5.464   1.372 -2.2790 -2.0362 -1.1477
   17CHTO   C20 7093   3.838   5.607   1.285  0.3545  0.0406  0.1725
   17CHTO   H48 7094   3.755   5.671   1.318 -0.4102 -0.2640 -1.1210
   17CHTO   O19 7095   3.781   5.491   1.219 -0.6474 -0.1489 -0.0015
   17CHTO   H35 7096   3.724   5.456   1.286  1.0887 -2.1920  0.4561
   17CHTO   C21 7097   3.926   5.690   1.186  0.4408  0.0936 -0.0714
   17CHTO   H49 7098   3.981   5.617   1.128 -1.6425 -1.8736  0.3646
   17CHTO    N4 7099   3.861   5.764   1.083 -0.3837 -0.1407 -0.3156
   17CHTO   H41 7100   3.753   5.758   1.083 -0.4188  0.3252 -1.6436
   17CHTO   H42 7101   3.893   5.731   0.986  0.6756 -1.2804  0.4129
   17CHTO   C22 7102   4.015   5.788   1.267  0.3230 -0.2429 -0.0112
   17CHTO   H50 7103   3.957   5.866   1.317 -1.3848 -2.5548  1.6786
   17CHTO   O14 7104   4.085   5.719   1.367 -0.1398  0.4461 -0.1984
   17CHTO   C23 7105   4.005   5.655   1.469 -0.1761 -0.4134  0.5283
   17CHTO   H51 7106   3.942   5.729   1.521 -1.5492  0.2214 -1.9719
   17CHTO   C34 7107   4.090   5.594   1.581  0.1345 -0.4728 -0.4369
   17CHTO   O23 7108   4.172   5.485   1.531 -0.2319 -0.1671  0.1898
   17CHTO   H38 7109   4.265   5.492   1.544  0.0927 -0.6983 -1.7454
   17CHTO   O16 7110   4.116   5.847   1.187 -0.2400  0.4651  0.2711
   17CHTO   C24 7111   4.159   5.993   1.240  0.2697 -0.4767 -0.2521
   17CHTO   H52 7112   4.128   6.008   1.343  4.1811 -1.6168  1.1677
   17CHTO   C26 7113   4.087   6.102   1.155  0.2864  0.5897  0.1856
   17CHTO   H54 7114   4.106   6.084   1.047 -1.1208  3.5807 -0.6422
   17CHTO   O20 7115   3.944   6.095   1.169  0.1702  0.0169 -0.4860
   17CHTO   H36 7116   3.901   6.106   1.086 -0.4143  2.8675  0.1199
   17CHTO   C30 7117   4.139   6.247   1.187  0.1318 -0.7273  0.5354
   17CHTO   H58 7118   4.092   6.272   1.283  0.5807 -1.3515  0.9226
   17CHTO    N6 7119   4.089   6.350   1.089 -0.1492 -0.6599  0.5034
   17CHTO   H45 7120   4.157   6.373   1.009 -1.1328  1.2588  0.1938
   17CHTO   H46 7121   3.990   6.341   1.046 -0.5361  1.9045  0.7498
   17CHTO   C33 7122   4.294   6.249   1.211 -1.0714  0.3325  0.2644
   17CHTO   H61 7123   4.342   6.238   1.112 -2.9045 -4.1573 -0.2315
   17CHTO   O18 7124   4.342   6.137   1.288 -0.2355 -0.3154  0.4724
   17CHTO   C28 7125   4.309   6.011   1.236 -0.3365  0.9780  0.2773
   17CHTO   H56 7126   4.342   5.996   1.134  0.4393 -0.7029  0.7548
   17CHTO   C35 7127   4.373   5.898   1.325  0.4722  0.0381 -0.0111
   17CHTO   O24 7128   4.514   5.888   1.319 -0.6858 -0.1459  0.2497
   17CHTO   H39 7129   4.543   5.972   1.350  0.7084 -0.1229 -1.0467
   17CHTO    O9 7130   4.339   6.374   1.266 -0.2959  0.1857 -0.7944
   17CHTO   C13 7131   4.503   6.397   1.267  0.3541  0.0186  0.7340
   17CHTO   H26 7132   4.542   6.363   1.168 -0.1612  0.7210  0.2857
   17CHTO   C11 7133   4.574   6.330   1.386  0.6554  0.2740 -0.4362
   17CHTO   H24 7134   4.564   6.221   1.375 -0.5109  0.4734 -1.4879
   17CHTO    O8 7135   4.507   6.359   1.518 -0.2982 -0.1629 -0.0357
   17CHTO    H3 7136   4.418   6.332   1.505  0.0859 -0.0702 -3.4509
   17CHTO    C9 7137   4.723   6.372   1.400 -0.7957  0.0434 -0.5419
   17CHTO   H22 7138   4.765   6.342   1.303  0.5085 -1.0548  0.3540
   17CHTO    N2 7139   4.801   6.288   1.494 -0.2116  0.3865  0.4055
   17CHTO   H10 7140   4.874   6.225   1.445 -0.4621  0.8692 -0.6074
   17CHTO   H11 7141   4.847   6.338   1.578  2.2166 -1.1471  0.0440
   17CHTO    C7 7142   4.732   6.532   1.410  0.0430 -0.7031 -0.3216
   17CHTO   H20 7143   4.815   6.565   1.344  0.6208 -0.5775  0.4595
   17CHTO    O4 7144   4.600   6.591   1.389  0.4665 -0.4184 -0.7588
   17CHTO   C14 7145   4.543   6.547   1.266 -0.4161 -0.0290 -0.0004
   17CHTO   H27 7146   4.621   6.560   1.188 -1.9707  0.6740 -1.4797
   17CHTO   C18 7147   4.421   6.636   1.227  0.2453 -0.4097 -0.1991
   17CHTO   O13 7148   4.452   6.770   1.195 -0.2219 -0.1485 -0.2766
   17CHTO    H7 7149   4.405   6.799   1.120 -1.6001 -0.3082  0.4942
   17CHTO    O2 7150   4.790   6.581   1.559 -0.4545  0.6566 -0.0897
   17CHTO    C1 7151   4.777   6.723   1.580  0.4595  0.2410 -0.3997
   17CHTO   H14 7152   4.694   6.762   1.517 -0.5775 -0.6975  0.3643
   17CHTO    C2 7153   4.909   6.802   1.548  0.2690  0.5587 -0.2596
   17CHTO   H15 7154   4.989   6.744   1.597  0.1142  0.3804 -0.2165
   17CHTO    O6 7155   4.928   6.785   1.404  0.5024 -0.0972 -0.0821
   17CHTO    H1 7156   5.016   6.764   1.381  0.9913  1.8759 -0.1222
   17CHTO    C3 7157   4.908   6.957   1.601 -0.2049 -0.3060 -0.1166
   17CHTO   H16 7158   4.835   7.006   1.536  0.6047 -0.0494 -0.8319
   17CHTO    N1 7159   5.040   7.018   1.582 -0.1364 -0.0712 -0.1898
   17CHTO    H8 7160   5.084   7.043   1.677 -0.0406  1.4005 -0.6045
   17CHTO    H9 7161   5.022   7.111   1.531 -0.2218  0.3221  0.5588
   17CHTO    C4 7162   4.852   6.957   1.746 -0.5619 -0.1981 -0.7096
   17CHTO   H17 7163   4.923   6.903   1.810 -0.3139  0.9694  0.0251
   17CHTO    O1 7164   4.722   6.891   1.756 -0.1664 -0.4275 -0.0699
   17CHTO    C5 7165   4.734   6.753   1.724  0.7083  0.7804 -0.4964
   17CHTO   H18 7166   4.804   6.701   1.789 -0.4849  0.0983  0.2701
   17CHTO   C16 7167   4.597   6.688   1.747 -0.3076  0.3781  0.4136
   17CHTO   O11 7168   4.546   6.719   1.877 -0.2517 -0.0334 -0.3954
   17CHTO    H5 7169   4.547   6.813   1.883 -0.7612  0.0927 -2.1001
   17CHTO    O3 7170   4.825   7.091   1.793 -0.1725 -0.1948 -0.3159
   17CHTO    C6 7171   4.883   7.145   1.922 -0.9478 -1.0126  0.5085
   17CHTO   H19 7172   4.960   7.084   1.969 -0.5248  0.0573  1.2424
   17CHTO    C8 7173   4.941   7.290   1.895  0.4482 -0.9091  0.6025
   17CHTO   H21 7174   4.868   7.344   1.835  1.2368 -0.5595 -0.0668
   17CHTO    O7 7175   5.060   7.279   1.814  0.4137  0.5202  0.0175
   17CHTO    H2 7176   5.039   7.271   1.723  0.7171 -1.7258  0.1057
   17CHTO   C12 7177   4.967   7.364   2.026  0.1485  0.1368 -0.0397
   17CHTO   H25 7178   5.049   7.304   2.073 -0.1156  1.1658  1.7991
   17CHTO    N3 7179   5.011   7.502   2.003  0.5940  0.2510  0.0824
   17CHTO   H12 7180   4.996   7.540   1.903  3.1043  1.0984  0.0007
   17CHTO   H13 7181   5.115   7.518   2.024  1.0169  0.0254 -1.7765
   17CHTO   C15 7182   4.840   7.355   2.125 -0.4270  0.1711 -0.4122
   17CHTO   H28 7183   4.758   7.416   2.086  0.2862  0.1914 -1.9181
   17CHTO   O10 7184   4.870   7.398   2.270  0.1245  0.1803  0.5864
   17CHTO    H4 7185   4.829   7.481   2.285  3.8960  1.9818  1.6476
   17CHTO    O5 7186   4.815   7.212   2.145 -0.3893  0.4513 -0.0338
   17CHTO   C10 7187   4.770   7.151   2.024 -0.3008  0.0775 -0.5407
   17CHTO   H23 7188   4.688   7.207   1.979 -1.2540  0.1914  1.2872
   17CHTO   C17 7189   4.698   7.018   2.054  0.3416 -0.1929  0.2473
   17CHTO   O12 7190   4.792   6.922   2.099 -0.0020 -0.3458  0.2434
   17CHTO    H6 7191   4.764   6.833   2.095  1.1762 -0.6604 -1.1882
   18CHTO  H203 7192   5.840   7.090   2.815 -1.0814 -0.1687 -0.4626
   18CHTO   O82 7193   5.881   7.009   2.790 -0.0258  0.1704  0.1315
   18CHTO  C123 7194   5.824   6.942   2.676 -0.2134 -0.1066  0.4533
   18CHTO  H227 7195   5.715   6.957   2.670 -0.0808  1.6512  1.9014
   18CHTO   O77 7196   5.886   7.006   2.560  0.0781 -0.1187  0.3874
   18CHTO  C118 7197   5.855   6.966   2.432  0.5644  0.1562  0.0784
   18CHTO  H222 7198   5.749   6.982   2.407  0.4712 -0.4315  0.0806
   18CHTO  C125 7199   5.935   7.048   2.326  0.1509 -0.3435 -0.3672
   18CHTO   O84 7200   5.884   7.179   2.322 -0.0089 -0.3747 -0.5321
   18CHTO  H205 7201   5.808   7.171   2.269  0.1071  0.9259 -0.8981
   18CHTO  C114 7202   5.894   6.818   2.415  0.6478  0.1339 -0.0849
   18CHTO  H218 7203   6.001   6.807   2.425  0.3233 -2.6592  0.6099
   18CHTO  C116 7204   5.830   6.725   2.520 -0.6299  0.2206 -0.2109
   18CHTO  H220 7205   5.720   6.718   2.506 -0.8713  0.9510  1.2260
   18CHTO   O79 7206   5.885   6.594   2.508  0.5947  0.1423 -0.1675
   18CHTO  H201 7207   5.850   6.563   2.427 -2.6503 -0.5181  1.4058
   18CHTO  C120 7208   5.851   6.789   2.672  0.3076  0.2946  0.3190
   18CHTO  H224 7209   5.959   6.771   2.693 -0.0268 -4.2965 -1.0936
   18CHTO   N21 7210   5.770   6.722   2.774 -0.3539  0.5916 -0.0734
   18CHTO  H211 7211   5.677   6.700   2.725 -0.3382  1.2264 -0.3870
   18CHTO  H212 7212   5.822   6.630   2.796 -1.1520  0.1642  0.0293
   18CHTO   O75 7213   5.847   6.786   2.281  0.3471  0.1023 -0.5670
   18CHTO  C112 7214   5.941   6.698   2.208  0.4614  0.1305 -0.6663
   18CHTO  H216 7215   5.983   6.632   2.286 -0.8051 -1.2145 -1.1064
   18CHTO   O73 7216   6.042   6.785   2.152  0.3303  0.4442  0.3111
   18CHTO  C113 7217   6.159   6.729   2.090  0.2684 -0.0404  0.3818
   18CHTO  H217 7218   6.206   6.668   2.170 -0.5276 -1.6345 -0.3372
   18CHTO  C124 7219   6.250   6.838   2.048 -0.3095  0.9513  0.5765
   18CHTO   O83 7220   6.320   6.903   2.149 -0.8794  0.0957 -0.6269
   18CHTO  H204 7221   6.285   6.989   2.163  2.5767  1.5238 -0.3205
   18CHTO  C109 7222   6.101   6.649   1.960  0.0292  0.2278 -0.5306
   18CHTO  H213 7223   6.052   6.727   1.901 -0.9103  0.2199  0.2196
   18CHTO  C110 7224   5.993   6.540   2.010  0.5655  0.4076  0.0915
   18CHTO  H214 7225   6.045   6.454   2.052 -0.1107 -1.4798 -2.8184
   18CHTO   O78 7226   5.939   6.479   1.893 -0.2674  0.4501 -0.3056
   18CHTO  H200 7227   5.984   6.495   1.812 -0.5735 -1.0435 -0.7813
   18CHTO  C111 7228   5.880   6.608   2.098 -0.2456 -0.3243 -0.0236
   18CHTO  H215 7229   5.818   6.668   2.029 -1.7349  0.2268  1.7740
   18CHTO   N19 7230   5.788   6.506   2.160 -0.1305  0.2576 -0.2358
   18CHTO  H207 7231   5.731   6.452   2.086 -0.4533 -0.9945  0.9049
   18CHTO  H208 7232   5.841   6.431   2.218  0.6290 -0.1019 -1.3849
   18CHTO   O74 7233   6.212   6.595   1.879  0.5033  0.3971 -0.1415
   18CHTO  C115 7234   6.186   6.640   1.722 -0.4141 -0.0878  0.0328
   18CHTO  H219 7235   6.088   6.609   1.688  0.6594 -0.5942 -2.7353
   18CHTO   O76 7236   6.188   6.785   1.707 -0.0288  0.4925 -0.3275
   18CHTO  C122 7237   6.316   6.847   1.691  0.1163  0.3034 -0.3849
   18CHTO  H226 7238   6.386   6.818   1.769 -1.9689 -1.3080  0.9402
   18CHTO  C126 7239   6.295   7.003   1.704 -0.1328  0.4329  0.0262
   18CHTO   O85 7240   6.213   7.049   1.591 -0.0021  0.2528 -0.6300
   18CHTO  H206 7241   6.237   7.133   1.556  1.1318  0.0688 -0.3307
   18CHTO  C121 7242   6.385   6.798   1.558 -0.5961  0.4010 -0.2397
   18CHTO  H225 7243   6.377   6.875   1.477  0.0845 -0.2114 -0.9018
   18CHTO   O81 7244   6.525   6.773   1.581 -0.1013 -0.7991 -0.0623
   18CHTO  H202 7245   6.571   6.854   1.576 -0.0255 -0.9295 -1.7498
   18CHTO  C119 7246   6.319   6.672   1.507 -0.3304  0.4727 -0.1154
   18CHTO  H223 7247   6.223   6.699   1.462 -0.9640  0.7801  1.3951
   18CHTO  C117 7248   6.289   6.563   1.618  0.4712 -0.4181 -0.2548
   18CHTO  H221 7249   6.373   6.533   1.681 -0.4683 -1.4629  0.5142
   18CHTO   N20 7250   6.233   6.437   1.553  0.3395 -0.5074 -0.2840
   18CHTO  H209 7251   6.303   6.355   1.558  1.3859  0.4262  0.6361
   18CHTO  H210 7252   6.196   6.450   1.452 -1.8595 -1.6536  0.3527
   18CHTO   O80 7253   6.401   6.617   1.375 -0.0698  0.3510 -0.0723
   18CHTO  C103 7254   6.331   6.623   1.228  0.0666 -0.3652 -0.4099
   18CHTO  H190 7255   6.403   6.600   1.149 -0.3101 -2.5703 -0.1344
   18CHTO  C101 7256   6.204   6.529   1.211  0.2466  0.3182  0.4387
   18CHTO  H188 7257   6.134   6.560   1.289 -0.8065 -0.3208 -0.2369
   18CHTO   O68 7258   6.253   6.363   1.242  0.5233 -0.0169 -0.1655
   18CHTO  H168 7259   6.287   6.354   1.329  2.5733 -4.5739 -1.3036
   18CHTO   C99 7260   6.138   6.548   1.074  0.7184 -0.1673  0.6064
   18CHTO  H186 7261   6.208   6.527   0.990 -0.4505 -1.6809 -0.0177
   18CHTO   N17 7262   6.018   6.455   1.054 -1.0813  0.3845  0.2277
   18CHTO  H174 7263   5.994   6.400   1.143  0.0750  1.6828  1.3539
   18CHTO  H175 7264   6.031   6.398   0.963  1.2008 -0.3080  0.9565
   18CHTO   C97 7265   6.098   6.697   1.064  0.0630 -0.3526 -0.2008
   18CHTO  H184 7266   6.024   6.709   1.145 -0.6205 -0.7392 -0.7577
   18CHTO   O64 7267   6.216   6.780   1.079  0.2242  0.2979  0.1012
   18CHTO  C104 7268   6.285   6.772   1.204 -0.3285  0.5069 -0.4462
   18CHTO  H191 7269   6.206   6.801   1.274  0.6303  0.7248  0.5662
   18CHTO  C108 7270   6.399   6.871   1.218 -0.1510 -0.2475 -0.3940
   18CHTO   O71 7271   6.490   6.856   1.108  0.6015 -0.4948 -0.2611
   18CHTO  H171 7272   6.512   6.766   1.089 -1.5740 -0.6849 -2.1752
   18CHTO   O62 7273   6.037   6.729   0.937  1.0510  0.3206  0.4177
   18CHTO   C91 7274   5.938   6.844   0.928 -0.4801 -0.3259 -0.6830
   18CHTO  H178 7275   5.902   6.865   1.029  1.5924  2.1651 -0.3943
   18CHTO   C92 7276   5.813   6.790   0.843 -0.7730 -0.5127 -0.2112
   18CHTO  H179 7277   5.856   6.747   0.751  1.0943 -2.7552  1.6362
   18CHTO   O66 7278   5.765   6.676   0.910 -0.5278 -0.0385 -0.7234
   18CHTO  H166 7279   5.726   6.715   0.986  1.0582  0.8421 -0.3388
   18CHTO   C93 7280   5.700   6.900   0.805  0.6783 -0.1545  0.4887
   18CHTO  H180 7281   5.642   6.913   0.897  0.8652  2.2144  0.3073
   18CHTO   N16 7282   5.601   6.856   0.705  0.2588 -0.0348  0.0037
   18CHTO  H172 7283   5.635   6.760   0.669  1.8908  0.7421 -0.5958
   18CHTO  H173 7284   5.498   6.885   0.720  0.3178 -0.8147  2.0666
   18CHTO   C94 7285   5.764   7.036   0.765 -0.1139  0.0221 -0.9145
   18CHTO  H181 7286   5.802   7.038   0.663 -0.2321  0.5473 -0.9464
   18CHTO   O61 7287   5.878   7.074   0.855 -0.4765 -0.7369  0.8562
   18CHTO   C95 7288   5.981   6.978   0.863 -0.6336 -0.6630  0.9541
   18CHTO  H182 7289   6.020   6.967   0.761  0.3585  3.1266  0.8436
   18CHTO  C106 7290   6.102   7.041   0.943 -0.0656  0.0135  0.2223
   18CHTO   O69 7291   6.065   7.050   1.078  0.4993  0.2715 -0.5352
   18CHTO  H169 7292   6.143   7.079   1.122 -0.1370  1.3059 -0.0850
   18CHTO   O63 7293   5.649   7.161   0.778 -0.0338 -0.4936 -0.3653
   18CHTO   C96 7294   5.673   7.289   0.704  0.4263  0.0700 -0.1420
   18CHTO  H183 7295   5.572   7.329   0.695 -0.6852 -2.2421  1.5952
   18CHTO   C98 7296   5.738   7.291   0.564 -0.8973  0.0480 -0.5897
   18CHTO  H185 7297   5.841   7.252   0.562 -1.2286 -0.9591  0.7264
   18CHTO   O67 7298   5.666   7.196   0.497 -0.5712  0.1147  0.0527
   18CHTO  H167 7299   5.692   7.109   0.518 -2.3862 -0.7857 -1.2811
   18CHTO  C102 7300   5.741   7.434   0.503 -0.3618 -0.2273 -0.1290
   18CHTO  H189 7301   5.654   7.440   0.437  0.7939  0.2016 -1.6509
   18CHTO   N18 7302   5.858   7.467   0.417 -0.0541 -0.2936  0.6446
   18CHTO  H176 7303   5.960   7.456   0.449  0.5255 -1.7987 -1.5839
   18CHTO  H177 7304   5.853   7.567   0.375 -0.6924 -0.4500  0.3422
   18CHTO  C105 7305   5.733   7.555   0.609 -1.4430 -0.5331  0.4411
   18CHTO  H192 7306   5.786   7.643   0.573 -0.6494 -1.0584  0.3139
   18CHTO   O65 7307   5.788   7.522   0.734 -0.0667 -0.1040  0.4541
   18CHTO  C100 7308   5.766   7.396   0.791 -0.0721 -0.1400  0.0857
   18CHTO  H187 7309   5.869   7.357   0.794  0.3821  0.7045 -2.8183
   18CHTO  C107 7310   5.717   7.422   0.932 -0.2235  0.4075  0.6788
   18CHTO   O70 7311   5.754   7.307   1.008 -0.0022  0.0970  0.5945
   18CHTO  H170 7312   5.733   7.315   1.099 -0.2727 -1.9814  0.7415
   18CHTO   O57 7313   5.581   7.583   0.616 -0.7265 -0.2778  0.2095
   18CHTO   C85 7314   5.535   7.709   0.650 -0.6256 -0.4682 -0.9053
   18CHTO  H157 7315   5.630   7.766   0.649 -1.2424  0.6250  1.0655
   18CHTO   C83 7316   5.476   7.705   0.797  0.3712  0.0595  0.1041
   18CHTO  H155 7317   5.556   7.671   0.863 -0.1972 -0.2029  0.6604
   18CHTO   O56 7318   5.370   7.611   0.804 -0.1359 -0.0141  0.7937
   18CHTO  H135 7319   5.318   7.623   0.882  0.0067  1.3582  0.6910
   18CHTO   C81 7320   5.431   7.850   0.833  0.6415 -0.3018 -0.0846
   18CHTO  H153 7321   5.515   7.916   0.812  1.1699 -1.4355 -1.7061
   18CHTO   N14 7322   5.387   7.866   0.974 -0.1039  0.5010 -0.1234
   18CHTO  H141 7323   5.448   7.934   1.029 -1.0196 -0.4599  2.1409
   18CHTO  H142 7324   5.285   7.888   0.999 -1.2997 -0.8055 -3.5692
   18CHTO   C79 7325   5.320   7.893   0.738  0.6757  0.3780 -0.0704
   18CHTO  H151 7326   5.306   8.001   0.750 -0.7868  0.1132  0.8446
   18CHTO   O52 7327   5.345   7.872   0.596 -0.2113  0.0720 -0.8809
   18CHTO   C86 7328   5.424   7.764   0.545 -0.3588 -0.1762 -0.0668
   18CHTO  H158 7329   5.357   7.679   0.521  1.5216 -1.2549 -1.7353
   18CHTO   C90 7330   5.508   7.795   0.411 -0.2993  0.1085 -0.0247
   18CHTO   O60 7331   5.567   7.681   0.356  0.6077 -0.0113  0.4013
   18CHTO  H138 7332   5.506   7.610   0.363  0.8812 -0.2499  0.3344
   18CHTO   O50 7333   5.199   7.824   0.747 -0.1185  0.3571  0.2500
   18CHTO   C73 7334   5.062   7.821   0.701  0.9076 -0.2954 -0.0398
   18CHTO  H145 7335   5.050   7.786   0.597 -0.9596 -0.9840  0.3776
   18CHTO   C74 7336   5.007   7.967   0.718 -0.1972 -0.5265  1.0855
   18CHTO  H146 7337   5.080   8.031   0.666 -0.7719 -2.2571 -2.0073
   18CHTO   O54 7338   4.891   7.972   0.639  0.4489  0.0978  0.3839
   18CHTO  H133 7339   4.850   8.056   0.626 -2.5297 -1.3300  0.0505
   18CHTO   C75 7340   4.987   8.010   0.862  0.3201  0.8429 -0.0418
   18CHTO  H147 7341   5.091   8.006   0.900  1.4456 -1.1190 -3.0756
   18CHTO   N13 7342   4.936   8.147   0.881  0.4919  0.3765 -0.0804
   18CHTO  H139 7343   4.838   8.161   0.838  0.9261 -3.6248 -2.7025
   18CHTO  H140 7344   5.008   8.220   0.848  3.2454 -1.6063  1.3210
   18CHTO   C76 7345   4.905   7.903   0.938 -0.1011  0.4650 -0.4063
   18CHTO  H148 7346   4.804   7.907   0.895  0.5492 -0.0044 -2.0392
   18CHTO   O49 7347   4.964   7.775   0.923  0.0598  0.2445  0.4558
   18CHTO   C77 7348   4.971   7.723   0.788 -0.2375 -0.0819  0.0163
   18CHTO  H149 7349   4.869   7.726   0.751 -0.0529 -0.7073 -0.5561
   18CHTO   C88 7350   5.024   7.586   0.806  0.1729 -0.3093  0.3565
   18CHTO   O58 7351   5.034   7.514   0.685  0.1595 -0.0024  0.9772
   18CHTO  H136 7352   4.967   7.449   0.684 -0.4629  0.5676  3.2193
   18CHTO   O51 7353   4.899   7.928   1.106  0.4291 -0.0235  0.0260
   18CHTO   C78 7354   5.015   7.883   1.188 -0.1286  0.1652  0.5431
   18CHTO  H150 7355   5.104   7.870   1.122 -0.8328 -0.5371 -0.2843
   18CHTO   C80 7356   4.980   7.743   1.252 -0.1387  0.2625 -0.5409
   18CHTO  H152 7357   4.884   7.750   1.307 -0.9743 -1.0327 -1.8021
   18CHTO   O55 7358   4.967   7.646   1.153 -0.0830  0.0188 -0.0667
   18CHTO  H134 7359   5.038   7.636   1.093 -0.1347  1.7483 -0.4439
   18CHTO   C84 7360   5.087   7.698   1.356 -0.5565  0.4352 -0.2079
   18CHTO  H156 7361   5.177   7.671   1.301 -0.1320 -0.3231  0.8526
   18CHTO   N15 7362   5.049   7.581   1.443 -0.1623 -0.3097  0.1853
   18CHTO  H143 7363   4.962   7.533   1.405  1.1825 -1.2505 -1.7790
   18CHTO  H144 7364   5.125   7.509   1.466 -1.5634 -1.2380  2.0465
   18CHTO   C87 7365   5.127   7.819   1.450  0.3985 -0.6111 -0.3901
   18CHTO  H159 7366   5.039   7.835   1.511  0.8537 -0.0091  0.1141
   18CHTO   O53 7367   5.152   7.941   1.370  0.5854  0.0793  0.0896
   18CHTO   C82 7368   5.038   7.986   1.299  0.1604 -0.0835  0.1083
   18CHTO  H154 7369   4.961   8.008   1.373  0.5755  0.6569  0.3261
   18CHTO   C89 7370   5.085   8.121   1.238 -0.0449  0.5546  0.4861
   18CHTO   O59 7371   4.974   8.216   1.219  1.5532  0.1333  0.0945
   18CHTO  H137 7372   4.932   8.242   1.299  1.9609  0.5942  0.1613
   18CHTO   O45 7373   5.236   7.817   1.543 -0.0265 -0.4390 -0.0541
   18CHTO   C67 7374   5.358   7.750   1.513 -0.0569  0.0869 -0.5772
   18CHTO  H124 7375   5.331   7.645   1.497  2.4119 -0.7923  0.7271
   18CHTO   C65 7376   5.438   7.800   1.387  0.1335 -0.6392 -0.2521
   18CHTO  H122 7377   5.387   7.888   1.349  0.0956 -0.4408  0.2650
   18CHTO   O44 7378   5.435   7.685   1.299  0.5598 -0.2607  0.5015
   18CHTO  H102 7379   5.509   7.630   1.312 -0.6143 -2.0239 -0.1040
   18CHTO   C63 7380   5.582   7.855   1.427 -0.0895 -0.4185  0.0644
   18CHTO  H120 7381   5.564   7.941   1.492 -1.4836 -0.2378 -0.5374
   18CHTO   N11 7382   5.649   7.916   1.311 -0.2942 -0.3484  0.1529
   18CHTO  H108 7383   5.721   7.992   1.337 -1.3141  0.9667 -0.8016
   18CHTO  H109 7384   5.573   7.967   1.256 -0.6061  0.6432  1.4603
   18CHTO   C61 7385   5.663   7.758   1.506  0.2716  0.0487  0.5374
   18CHTO  H118 7386   5.752   7.805   1.551  0.5784 -0.7134  0.7360
   18CHTO   O40 7387   5.578   7.709   1.620  0.5823  0.1640 -0.0864
   18CHTO   C68 7388   5.448   7.755   1.646 -0.4652 -0.2971 -0.0871
   18CHTO  H125 7389   5.456   7.859   1.685  0.1073 -1.1065  2.0246
   18CHTO   C72 7390   5.392   7.671   1.755 -0.4220  0.1308 -0.9595
   18CHTO   O48 7391   5.404   7.529   1.742 -0.4318  0.1814  0.0794
   18CHTO  H105 7392   5.375   7.473   1.812 -0.7156  1.6995  1.1907
   18CHTO   O38 7393   5.714   7.651   1.429  0.0016  0.4331  0.3680
   18CHTO   C55 7394   5.773   7.541   1.497  0.7929  0.4543 -0.5589
   18CHTO  H112 7395   5.746   7.557   1.602 -5.7203 -0.5702 -1.8504
   18CHTO   C56 7396   5.934   7.543   1.473  0.0819  0.2340 -0.2724
   18CHTO  H113 7397   5.962   7.540   1.366  0.6147  2.5915 -0.2280
   18CHTO   O42 7398   5.986   7.673   1.514  0.3510 -0.1346 -0.0752
   18CHTO  H100 7399   5.965   7.744   1.457  0.1285 -0.4437 -0.3830
   18CHTO   C57 7400   5.996   7.427   1.552  0.3555  0.6315  0.3357
   18CHTO  H114 7401   5.963   7.452   1.653 -1.9056 -2.5948  0.5149
   18CHTO   N10 7402   6.147   7.415   1.535  0.5053  0.4547  0.0943
   18CHTO  H106 7403   6.178   7.346   1.458 -2.6921 -0.4056 -0.4699
   18CHTO  H107 7404   6.181   7.380   1.631 -0.5238 -1.7247 -0.3167
   18CHTO   C58 7405   5.930   7.293   1.512  0.9441 -0.3229  0.0879
   18CHTO  H115 7406   5.965   7.264   1.411 -0.1868 -0.9887 -0.1266
   18CHTO   O37 7407   5.787   7.298   1.517  0.2605 -0.1068  0.6894
   18CHTO   C59 7408   5.718   7.402   1.447 -0.6204  0.1103 -0.3949
   18CHTO  H116 7409   5.739   7.386   1.341  2.2952 -1.1107  0.3277
   18CHTO   C70 7410   5.564   7.390   1.459  0.2269 -0.1458 -0.0085
   18CHTO   O46 7411   5.501   7.266   1.430  0.5278 -0.1048  0.1173
   18CHTO  H103 7412   5.440   7.276   1.359 -1.5998 -2.8815  1.4270
   18CHTO   O39 7413   5.978   7.173   1.615  0.0430 -0.2024 -0.2125
   18CHTO   C60 7414   5.871   7.111   1.684 -0.8169  0.1346  0.0311
   18CHTO  H117 7415   5.802   7.190   1.712 -0.9321  0.3358 -0.8055
   18CHTO   C62 7416   5.804   6.997   1.598 -0.4091  0.2871 -0.0691
   18CHTO  H119 7417   5.786   7.040   1.498 -0.0512 -0.8437 -0.6220
   18CHTO   O43 7418   5.904   6.893   1.582 -0.4321  0.7938 -0.3841
   18CHTO  H101 7419   5.923   6.853   1.664 -3.4038  0.5270  0.2344
   18CHTO   C66 7420   5.670   6.948   1.675  0.3221 -0.1043  0.2424
   18CHTO  H123 7421   5.614   7.038   1.703  3.0111  1.4527  0.8200
   18CHTO   N12 7422   5.585   6.856   1.591 -0.2826 -0.4102  0.1704
   18CHTO  H110 7423   5.540   6.781   1.654  1.3162 -1.2986  0.2550
   18CHTO  H111 7424   5.596   6.839   1.485  1.9828 -0.2472  0.3714
   18CHTO   C69 7425   5.713   6.882   1.805  0.1051 -0.2246 -0.7660
   18CHTO  H126 7426   5.768   6.787   1.790 -0.3008 -0.6414  0.3102
   18CHTO   O41 7427   5.809   6.978   1.893  0.1880 -0.6049 -0.0299
   18CHTO   C64 7428   5.922   7.040   1.814  0.0534 -0.4461  0.4419
   18CHTO  H121 7429   5.999   6.964   1.787 -0.7253 -1.1921  0.2893
   18CHTO   C71 7430   5.987   7.139   1.920 -0.8810  0.0453 -0.3842
   18CHTO   O47 7431   6.047   7.064   2.026  0.7587  0.6206  0.4896
   18CHTO  H104 7432   6.109   7.003   1.991  0.3513  0.7059 -0.3763
   18CHTO   O34 7433   5.583   6.857   1.888 -0.3340 -0.3765  0.2204
   18CHTO   C49 7434   5.494   6.885   2.003  0.7888 -0.3649  0.3895
   18CHTO   H91 7435   5.421   6.804   2.000 -1.3630  1.4886  1.6558
   18CHTO   C47 7436   5.412   7.013   1.987  0.3086 -1.2609  0.3557
   18CHTO   H89 7437   5.342   7.004   2.072  2.1154 -1.2457  1.8913
   18CHTO   O33 7438   5.339   7.007   1.859  0.4042 -0.0650  0.7236
   18CHTO   H70 7439   5.389   6.972   1.789  0.9830 -0.3879  1.3001
   18CHTO   C45 7440   5.511   7.144   2.017  0.0018  0.0852 -0.4028
   18CHTO   H87 7441   5.596   7.138   1.948 -1.2765  0.3302 -2.0363
   18CHTO    N8 7442   5.441   7.270   1.989 -0.5845 -0.0585  0.3430
   18CHTO   H75 7443   5.361   7.283   2.060  0.7614  0.7737  1.7183
   18CHTO   H76 7444   5.397   7.258   1.890 -2.2629  0.2687  1.0282
   18CHTO   C43 7445   5.570   7.145   2.161  0.2271 -0.2683  0.6647
   18CHTO   H85 7446   5.648   7.221   2.163  1.4480 -1.4270 -1.0293
   18CHTO   O29 7447   5.629   7.014   2.183 -0.3685 -0.0831 -0.0532
   18CHTO   C50 7448   5.567   6.894   2.139  0.2658  0.0232 -0.2974
   18CHTO   H92 7449   5.657   6.831   2.142  1.6543  2.0183  2.0589
   18CHTO   C54 7450   5.470   6.840   2.254 -0.7244  0.0137  0.0239
   18CHTO   O36 7451   5.542   6.825   2.377 -1.0053 -0.1971  0.2791
   18CHTO   H72 7452   5.569   6.906   2.416  0.4490 -1.3660  1.7681
   18CHTO   O27 7453   5.480   7.179   2.271 -0.2697 -0.2402  0.0303
   18CHTO   C37 7454   5.434   7.274   2.373  0.2709 -0.2653  0.2353
   18CHTO   H79 7455   5.423   7.232   2.474  1.0274  0.9779  0.8349
   18CHTO   C38 7456   5.535   7.394   2.383 -0.2753  0.7486  0.3234
   18CHTO   H80 7457   5.573   7.422   2.283  0.8210 -0.1155  0.4926
   18CHTO   O31 7458   5.649   7.333   2.453 -0.3478  0.0305  0.0730
   18CHTO   H68 7459   5.681   7.258   2.407  1.4792 -0.0090  1.3481
   18CHTO   C39 7460   5.476   7.522   2.453 -0.4148  0.5113  0.1458
   18CHTO   H81 7461   5.473   7.499   2.559 -0.2799 -0.2764 -0.0194
   18CHTO    N7 7462   5.572   7.640   2.439 -0.5299 -0.9580  0.4129
   18CHTO   H73 7463   5.542   7.718   2.370  0.7589 -0.6984  0.1398
   18CHTO   H74 7464   5.672   7.610   2.413  0.2038 -1.1829  3.3990
   18CHTO   C40 7465   5.334   7.557   2.403 -0.1430  0.4170 -0.0462
   18CHTO   H82 7466   5.335   7.588   2.298 -0.8412 -0.1547 -0.2302
   18CHTO   O26 7467   5.248   7.442   2.422 -0.8559 -0.3631  0.3978
   18CHTO   C41 7468   5.291   7.332   2.332 -0.8346 -0.6026 -0.0633
   18CHTO   H83 7469   5.287   7.371   2.229  1.8975 -1.1544 -0.4318
   18CHTO   C52 7470   5.184   7.221   2.346  0.4318 -0.5485 -0.2088
   18CHTO   O35 7471   5.199   7.140   2.229  0.3589 -0.2542 -0.2118
   18CHTO   H71 7472   5.132   7.074   2.232 -1.3871  1.4895  0.2065
   18CHTO   O28 7473   5.273   7.664   2.475 -0.3219  0.2255 -0.6404
   18CHTO   C42 7474   5.173   7.758   2.423 -0.8279 -0.8096  0.0567
   18CHTO   H84 7475   5.158   7.829   2.505  1.8974  0.1210 -0.1830
   18CHTO   C44 7476   5.038   7.699   2.390 -1.1146 -0.7604  0.1566
   18CHTO   H86 7477   5.047   7.640   2.298 -2.1105 -1.4500  0.4964
   18CHTO   O32 7478   5.003   7.620   2.500  0.5896 -0.3737  0.0728
   18CHTO   H69 7479   4.934   7.649   2.557 -0.1097  0.7362 -1.3035
   18CHTO   C48 7480   4.928   7.808   2.360  0.1600 -0.5353 -0.2375
   18CHTO   H90 7481   4.907   7.881   2.438  0.4718  0.5812 -1.1931
   18CHTO    N9 7482   4.797   7.744   2.327 -0.5386 -0.1285 -0.6004
   18CHTO   H77 7483   4.744   7.806   2.257  0.3753  1.4509  0.0739
   18CHTO   H78 7484   4.805   7.643   2.289 -0.1214 -0.2125 -0.2976
   18CHTO   C51 7485   4.980   7.891   2.236  0.2608  0.5115 -0.0694
   18CHTO   H93 7486   4.981   7.829   2.147  3.4779 -0.2569  0.4578
   18CHTO   O30 7487   5.111   7.942   2.265  0.1097  0.2529  0.2096
   18CHTO   C46 7488   5.225   7.836   2.303 -0.5818  0.1979  0.1418
   18CHTO   H88 7489   5.241   7.784   2.208 -0.6795  2.7913 -1.3481
   18CHTO   C53 7490   5.356   7.914   2.333 -0.7744  0.1661  0.1839
   18CHTO   O72 7491   5.399   7.982   2.222 -0.0752  0.0440  0.1212
   18CHTO  H199 7492   5.396   7.933   2.142 -0.7304  0.4270 -0.0928
   18CHTO   O22 7493   4.898   8.010   2.217  0.7772 -0.0727  0.1176
   18CHTO   C31 7494   4.856   8.081   2.090  0.6068 -0.7017  0.2852
   18CHTO   H59 7495   4.886   8.187   2.101  0.6539 -0.6515 -0.3000
   18CHTO   C29 7496   4.932   8.030   1.964 -0.4373  0.4003  0.2672
   18CHTO   H57 7497   4.926   7.920   1.957  0.5471  0.0196  3.9490
   18CHTO   O21 7498   5.073   8.067   1.977  0.0113 -0.5554  0.3400
   18CHTO   H37 7499   5.116   8.053   2.059  0.2209 -1.7197  0.0423
   18CHTO   C27 7500   4.863   8.086   1.832  0.0302 -0.4755 -0.2487
   18CHTO   H55 7501   4.865   8.196   1.834 -3.3950 -0.3893  0.2106
   18CHTO    N5 7502   4.921   8.032   1.702  0.4384 -0.8902 -0.1750
   18CHTO   H43 7503   4.857   8.055   1.619  0.3784  1.0875  0.3755
   18CHTO   H44 7504   5.013   8.077   1.666 -0.9634  1.7575 -0.5368
   18CHTO   C25 7505   4.712   8.055   1.834  0.5465  0.2140 -0.9513
   18CHTO   H53 7506   4.702   7.947   1.849 -1.3872  0.5613  0.4245
   18CHTO   O17 7507   4.648   8.113   1.948 -1.1195 -0.6462 -0.3302
   18CHTO   C32 7508   4.695   8.073   2.079 -0.6547  0.2298  0.2268
   18CHTO   H60 7509   4.662   7.973   2.108  1.1651 -0.0087  1.5521
   18CHTO   C36 7510   4.622   8.168   2.180  0.2339 -0.3636 -0.1729
   18CHTO   O25 7511   4.641   8.308   2.170  0.0231  0.7786 -0.1604
   18CHTO   H40 7512   4.571   8.343   2.221 -1.7507 -1.6425 -0.8422
   18CHTO   O15 7513   4.625   8.096   1.698 -0.0333 -0.3671 -0.4724
   18CHTO   C19 7514   4.569   8.044   1.568  0.6095 -0.2099 -0.2766
   18CHTO   H47 7515   4.460   8.054   1.579  0.1186 -1.9963 -3.0045
   18CHTO   C20 7516   4.623   8.115   1.437  0.0504 -0.1051  0.1400
   18CHTO   H48 7517   4.732   8.108   1.431 -0.0446 -1.0627 -0.4383
   18CHTO   O19 7518   4.579   8.253   1.438  0.1738 -0.3276  0.3800
   18CHTO   H35 7519   4.647   8.305   1.400 -1.0634  0.5352 -0.6822
   18CHTO   C21 7520   4.567   8.039   1.305  0.2345  0.0868 -0.0156
   18CHTO   H49 7521   4.461   8.062   1.295  0.2112  0.3667  0.8452
   18CHTO    N4 7522   4.636   8.089   1.184  0.5774  0.0655  0.6297
   18CHTO   H41 7523   4.632   8.009   1.112 -0.3866  0.7067 -0.0526
   18CHTO   H42 7524   4.581   8.172   1.141  0.9192 -0.5762 -1.0984
   18CHTO   C22 7525   4.572   7.884   1.320  0.0356  0.5269 -0.3193
   18CHTO   H50 7526   4.678   7.861   1.325  0.1024  0.9287  0.1754
   18CHTO   O14 7527   4.515   7.846   1.444 -0.0549  0.1518 -0.2981
   18CHTO   C23 7528   4.587   7.893   1.560  0.6030 -0.1495  0.5573
   18CHTO   H51 7529   4.694   7.866   1.560  0.3429 -1.3263 -2.0069
   18CHTO   C34 7530   4.534   7.810   1.679  0.1645  0.4144 -0.4874
   18CHTO   O23 7531   4.385   7.813   1.688 -0.0673 -1.1906  0.3400
   18CHTO   H38 7532   4.348   7.879   1.633  0.2142 -0.5289  0.9381
   18CHTO   O16 7533   4.493   7.813   1.225  0.1534 -0.3066  0.2623
   18CHTO   C24 7534   4.591   7.720   1.124 -1.0818 -0.3197  1.1939
   18CHTO   H52 7535   4.695   7.749   1.132 -0.3039 -1.8729 -2.2605
   18CHTO   C26 7536   4.545   7.734   0.975 -0.2445 -0.4916  0.8340
   18CHTO   H54 7537   4.442   7.692   0.966  0.4292 -1.8412 -0.8119
   18CHTO   O20 7538   4.539   7.873   0.937 -0.2198  0.6992 -0.2441
   18CHTO   H36 7539   4.620   7.919   0.949  0.2072 -0.3232  0.9537
   18CHTO   C30 7540   4.637   7.644   0.880  0.6197  0.5593  0.6995
   18CHTO   H58 7541   4.739   7.683   0.879  0.3512  1.3213 -2.3429
   18CHTO    N6 7542   4.582   7.649   0.744  0.1397 -0.2396  0.5771
   18CHTO   H45 7543   4.552   7.551   0.709  0.7248 -0.1965 -0.0467
   18CHTO   H46 7544   4.658   7.689   0.678 -0.1981 -0.0031  0.3304
   18CHTO   C33 7545   4.638   7.497   0.941  0.2266 -0.6432  0.2363
   18CHTO   H61 7546   4.538   7.452   0.930 -0.4530  0.9846 -0.4069
   18CHTO   O18 7547   4.678   7.503   1.076  0.1436 -0.1360 -0.1143
   18CHTO   C28 7548   4.586   7.572   1.159  0.2883 -0.3459 -0.2644
   18CHTO   H56 7549   4.485   7.534   1.142 -0.7119  1.7092  0.9560
   18CHTO   C35 7550   4.640   7.542   1.303 -0.2602  0.1053  0.3762
   18CHTO   O24 7551   4.538   7.556   1.403 -0.2820 -0.2337  0.5001
   18CHTO   H39 7552   4.577   7.592   1.481 -0.4790  0.5833  0.2249
   18CHTO    O9 7553   4.728   7.420   0.864 -0.4742 -0.7913 -0.0727
   18CHTO   C13 7554   4.700   7.242   0.905 -0.3925 -0.1173  0.1896
   18CHTO   H26 7555   4.600   7.210   0.869 -0.6410  0.7711  0.0729
   18CHTO   C11 7556   4.716   7.210   1.069  0.3040  0.4768  0.6262
   18CHTO   H24 7557   4.641   7.266   1.125 -0.2129  1.8215 -1.3378
   18CHTO    O8 7558   4.839   7.264   1.116  0.6645  0.2002  0.3544
   18CHTO    H3 7559   4.833   7.356   1.099  1.6714  0.3369  0.7428
   18CHTO    C9 7560   4.712   7.063   1.093 -0.0514 -0.2738  0.3199
   18CHTO   H22 7561   4.622   7.028   1.040  1.3630  0.4989 -2.6924
   18CHTO    N2 7562   4.692   7.016   1.235  0.0009 -0.0579 -0.3871
   18CHTO   H10 7563   4.590   6.989   1.258  0.2491 -0.6655  0.0315
   18CHTO   H11 7564   4.722   7.085   1.313 -0.1298 -1.8297  1.2815
   18CHTO    C7 7565   4.833   6.994   1.032  0.2383 -0.2265 -0.0480
   18CHTO   H20 7566   4.818   6.886   1.052 -0.0529 -0.3875 -1.0795
   18CHTO    O4 7567   4.848   7.029   0.889  0.1539  0.1163  0.0535
   18CHTO   C14 7568   4.817   7.154   0.833 -0.1348  0.1414 -0.2670
   18CHTO   H27 7569   4.795   7.143   0.725  2.1708  0.5019 -0.7864
   18CHTO   C18 7570   4.952   7.232   0.839  0.0664 -0.1528 -0.3796
   18CHTO   O13 7571   5.041   7.198   0.725 -0.6273 -0.1680 -0.1587
   18CHTO    H7 7572   5.132   7.215   0.738  0.2075 -1.5578 -3.5559
   18CHTO    O2 7573   4.992   7.037   1.110 -0.2806  0.2442  0.3509
   18CHTO    C1 7574   5.113   6.980   1.048 -0.1733 -0.2187 -0.0964
   18CHTO   H14 7575   5.138   7.034   0.954  1.7083 -2.0176 -0.6546
   18CHTO    C2 7576   5.099   6.823   1.012  0.2761 -0.2179  0.1750
   18CHTO   H15 7577   5.051   6.771   1.096  1.3911 -0.7963  0.4629
   18CHTO    O6 7578   5.037   6.799   0.883 -0.2189 -0.4754 -0.5321
   18CHTO    H1 7579   5.079   6.848   0.815  0.7247  0.8099  0.9588
   18CHTO    C3 7580   5.252   6.751   1.000  0.1706 -0.5266 -0.3027
   18CHTO   H16 7581   5.296   6.785   0.905  1.8270  1.1416  1.0234
   18CHTO    N1 7582   5.246   6.602   0.996  0.5909  0.8343  0.1333
   18CHTO    H8 7583   5.293   6.564   1.086 -0.3600 -1.2001 -0.2084
   18CHTO    H9 7584   5.140   6.581   1.003  0.2215  2.5928  0.2492
   18CHTO    C4 7585   5.347   6.807   1.119 -0.2254  0.0176  0.9638
   18CHTO   H17 7586   5.312   6.770   1.215  0.1650  0.9365  1.4612
   18CHTO    O1 7587   5.345   6.956   1.117 -0.5520  0.0044  0.3854
   18CHTO    C5 7588   5.218   7.008   1.158 -0.7125 -0.1961 -0.3793
   18CHTO   H18 7589   5.180   6.962   1.250 -0.4616 -2.8464 -1.5485
   18CHTO   C16 7590   5.246   7.155   1.184 -0.0974 -0.6487  0.2931
   18CHTO   O11 7591   5.160   7.222   1.273  0.6805 -0.2162  0.1495
   18CHTO    H5 7592   5.144   7.179   1.355  0.6352  3.2028  2.0772
   18CHTO    O3 7593   5.487   6.769   1.093 -0.0883 -0.2222 -1.2571
   18CHTO    C6 7594   5.563   6.728   1.210  0.3232  0.8287  0.2061
   18CHTO   H19 7595   5.510   6.747   1.303 -2.0857  0.6962 -1.1028
   18CHTO    C8 7596   5.597   6.574   1.212 -0.1371  0.0805  0.6070
   18CHTO   H21 7597   5.655   6.557   1.121  0.2099 -0.6784  0.9676
   18CHTO    O7 7598   5.468   6.505   1.211  0.0679  0.1558  0.5248
   18CHTO    H2 7599   5.465   6.448   1.137 -0.1933  0.8760 -0.0294
   18CHTO   C12 7600   5.685   6.538   1.338  0.8884 -0.1745 -0.3627
   18CHTO   H25 7601   5.611   6.565   1.417  0.1312 -0.0498 -1.1069
   18CHTO    N3 7602   5.717   6.393   1.356 -0.3157  0.6479  0.4343
   18CHTO   H12 7603   5.729   6.359   1.458  0.7244  0.2166  0.1643
   18CHTO   H13 7604   5.654   6.329   1.296  0.0302  0.6576  0.0645
   18CHTO   C15 7605   5.813   6.630   1.347  0.0183 -0.5625 -0.2729
   18CHTO   H28 7606   5.877   6.604   1.263 -1.5829  1.2142 -2.1086
   18CHTO   O10 7607   5.890   6.621   1.477  0.0586  0.2420  0.0553
   18CHTO    H4 7608   5.910   6.536   1.511 -0.0601  0.6975  1.3087
   18CHTO    O5 7609   5.776   6.771   1.328  0.0099 -0.4322 -0.0865
   18CHTO   C10 7610   5.693   6.805   1.215  0.4180 -0.2474  0.5475
   18CHTO   H23 7611   5.743   6.789   1.120 -1.5734 -2.3631 -0.1853
   18CHTO   C17 7612   5.657   6.959   1.224 -1.0313 -0.0882 -0.2085
   18CHTO   O12 7613   5.757   7.043   1.161  0.7364  0.3415 -0.4212
   18CHTO    H6 7614   5.746   7.025   1.070  0.1854  0.8371 -0.4576
   19CHTO  H203 7615   5.671   8.797   0.312 -1.5116  1.0089  0.4889
   19CHTO   O82 7616   5.693   8.794   0.220 -0.3371 -0.0459  0.7853
   19CHTO  C123 7617   5.637   8.670   0.170 -0.4153  0.2268 -0.2897
   19CHTO  H227 7618   5.537   8.694   0.131 -2.5088 -2.4449  3.0780
   19CHTO   O77 7619   5.726   8.629   0.060 -0.4049 -0.1976  0.3249
   19CHTO  C118 7620   5.685   8.516  -0.019 -0.2637  0.6323  0.4326
   19CHTO  H222 7621   5.594   8.542  -0.074  0.6806 -0.0730 -1.5116
   19CHTO  C125 7622   5.797   8.482  -0.122  0.2864  0.3411  0.0129
   19CHTO   O84 7623   5.808   8.576  -0.228 -0.3911  0.7456 -0.6166
   19CHTO  H205 7624   5.823   8.528  -0.307  2.4072 -0.1162  0.3670
   19CHTO  C114 7625   5.653   8.391   0.063 -0.1259  0.7287  0.3270
   19CHTO  H218 7626   5.750   8.351   0.095  0.1394  1.9898  1.1174
   19CHTO  C116 7627   5.565   8.440   0.186  0.1638  0.0695  0.1662
   19CHTO  H220 7628   5.464   8.464   0.146 -0.3146  0.4394  1.5311
   19CHTO   O79 7629   5.539   8.331   0.272 -0.2490 -0.6844  0.5238
   19CHTO  H201 7630   5.614   8.275   0.276  0.3789 -0.1789 -2.7825
   19CHTO  C120 7631   5.619   8.564   0.275 -0.2330  0.7230 -0.1941
   19CHTO  H224 7632   5.718   8.529   0.311 -0.9121 -1.2297 -0.1659
   19CHTO   N21 7633   5.538   8.596   0.391  0.0981  0.1282 -0.1252
   19CHTO  H211 7634   5.445   8.541   0.388  0.3289 -0.3347  1.1148
   19CHTO  H212 7635   5.592   8.564   0.478  0.1548 -0.8563 -0.5166
   19CHTO   O75 7636   5.582   8.303  -0.036  0.2734 -0.4279 -0.0946
   19CHTO  C112 7637   5.553   8.161   0.016 -1.3095  0.0665  0.1847
   19CHTO  H216 7638   5.528   8.167   0.123  1.5566 -1.4104  0.9865
   19CHTO   O73 7639   5.670   8.078  -0.008  0.7370 -0.5170 -0.2102
   19CHTO  C113 7640   5.661   7.947   0.047  0.2710 -0.5667  0.2232
   19CHTO  H217 7641   5.634   7.964   0.153 -1.9910  0.6991 -0.5301
   19CHTO  C124 7642   5.799   7.878   0.029  0.0597  0.0013  0.0182
   19CHTO   O83 7643   5.905   7.959   0.076 -0.3085 -0.1926 -0.4007
   19CHTO  H204 7644   5.964   7.912   0.132 -1.9144  0.8067  2.2382
   19CHTO  C109 7645   5.545   7.869  -0.023 -0.6119  0.1477  0.4060
   19CHTO  H213 7646   5.579   7.850  -0.126 -0.0384  2.9079  0.0455
   19CHTO  C110 7647   5.409   7.946  -0.017 -0.6086  0.7578 -0.2770
   19CHTO  H214 7648   5.369   7.944   0.084  0.5207  1.5428  0.1959
   19CHTO   O78 7649   5.319   7.886  -0.111 -0.5955  0.2796  0.4526
   19CHTO  H200 7650   5.339   7.890  -0.202 -0.4067 -0.2609  0.4705
   19CHTO  C111 7651   5.426   8.098  -0.055  0.6148 -0.1781  0.4260
   19CHTO  H215 7652   5.439   8.106  -0.164 -0.6292 -0.9250  0.2133
   19CHTO   N19 7653   5.302   8.173  -0.021 -0.0413 -0.0629  0.2088
   19CHTO  H207 7654   5.319   8.272   0.019  0.2365 -0.2921  0.6692
   19CHTO  H208 7655   5.239   8.118   0.048  1.3341 -1.1820  0.6043
   19CHTO   O74 7656   5.531   7.734   0.043 -0.4291  0.0854  0.2274
   19CHTO  C115 7657   5.509   7.631  -0.057  0.4180  0.5763  0.2880
   19CHTO  H219 7658   5.482   7.674  -0.154  2.4730 -1.0065 -1.0321
   19CHTO   O76 7659   5.633   7.554  -0.095  0.6061  0.1220 -0.2605
   19CHTO  C122 7660   5.676   7.451  -0.003  0.4474  0.3678 -0.1893
   19CHTO  H226 7661   5.712   7.505   0.085 -0.0511 -0.4923  0.5600
   19CHTO  C126 7662   5.796   7.384  -0.057 -0.2129  0.8015 -0.1936
   19CHTO   O85 7663   5.842   7.280   0.030  0.0153 -0.1695  0.1357
   19CHTO  H206 7664   5.796   7.199   0.016  0.4323 -0.2709 -0.6585
   19CHTO  C121 7665   5.567   7.351   0.050  0.0489  0.3120  0.4462
   19CHTO  H225 7666   5.606   7.251   0.026 -0.7393 -0.0157  0.4952
   19CHTO   O81 7667   5.554   7.368   0.192 -0.0016  0.1721  0.7052
   19CHTO  H202 7668   5.625   7.321   0.231 -0.2923  0.2189  1.2946
   19CHTO  C119 7669   5.439   7.380  -0.024  0.5856  0.6976  0.0171
   19CHTO  H223 7670   5.458   7.355  -0.129 -3.1408 -0.2535 -0.5162
   19CHTO  C117 7671   5.391   7.528  -0.012 -0.3672 -0.1354 -0.7166
   19CHTO  H221 7672   5.349   7.557   0.085 -1.1085  0.9004 -1.3346
   19CHTO   N20 7673   5.277   7.537  -0.103  0.5604 -0.2780 -0.6901
   19CHTO  H209 7674   5.261   7.642  -0.124 -1.0023 -0.8520 -2.4125
   19CHTO  H210 7675   5.301   7.480  -0.192  2.6249 -1.1331  0.3688
   19CHTO   O80 7676   5.309   7.262   0.005  0.0731 -0.7168  0.3384
   19CHTO  C103 7677   5.278   7.156  -0.100  0.3567 -0.9968  0.0307
   19CHTO  H190 7678   5.288   7.200  -0.199  1.7001 -0.2002  0.5060
   19CHTO  C101 7679   5.356   7.019  -0.106 -0.5324  0.4664 -0.1047
   19CHTO  H188 7680   5.341   6.963  -0.013  1.1077  0.4247  0.1566
   19CHTO   O68 7681   5.510   7.038  -0.119 -0.4423 -0.4975  0.4376
   19CHTO  H168 7682   5.548   7.073  -0.041  1.9621 -0.0743 -0.9015
   19CHTO   C99 7683   5.306   6.915  -0.216 -0.1990 -0.1239 -0.3342
   19CHTO  H186 7684   5.346   6.952  -0.313  0.9606  2.1068  0.9789
   19CHTO   N17 7685   5.373   6.785  -0.201  0.1663  0.5200 -0.0769
   19CHTO  H174 7686   5.303   6.706  -0.224  1.0811  0.1021 -1.4732
   19CHTO  H175 7687   5.464   6.779  -0.258  2.2020 -0.6211  3.1273
   19CHTO   C97 7688   5.152   6.912  -0.225 -0.1930  0.3997  0.8162
   19CHTO  H184 7689   5.115   6.848  -0.144 -1.6455  0.9423  0.6073
   19CHTO   O64 7690   5.088   7.045  -0.219 -0.1297 -0.9956 -0.1699
   19CHTO  C104 7691   5.120   7.108  -0.089 -0.0096  0.0831  0.2691
   19CHTO  H191 7692   5.108   7.043  -0.002  0.9865  0.3444  0.6138
   19CHTO  C108 7693   5.035   7.226  -0.058 -0.2682  0.0614 -0.1416
   19CHTO   O71 7694   4.897   7.199  -0.045  0.4474  0.6357 -0.0635
   19CHTO  H171 7695   4.837   7.229  -0.111  1.1247 -2.6735 -2.3302
   19CHTO   O62 7696   5.107   6.857  -0.350  0.2268 -0.2197  0.2805
   19CHTO   C91 7697   4.990   6.769  -0.355 -0.2186 -0.6043 -0.4862
   19CHTO  H178 7698   4.969   6.745  -0.250 -0.4060 -0.4345 -0.4851
   19CHTO   C92 7699   5.025   6.638  -0.434 -0.0123  0.0762  0.3183
   19CHTO  H179 7700   5.062   6.670  -0.533  0.8880 -1.4126  0.1534
   19CHTO   O66 7701   5.136   6.567  -0.380 -0.2561 -0.4569 -0.2033
   19CHTO  H166 7702   5.165   6.613  -0.304  1.6292 -0.6201 -0.7843
   19CHTO   C93 7703   4.906   6.528  -0.455 -0.0507 -0.5186  0.2961
   19CHTO  H180 7704   4.874   6.487  -0.358  0.4053 -0.1664  0.5974
   19CHTO   N16 7705   4.952   6.409  -0.540  0.3459 -0.0560 -0.5332
   19CHTO  H172 7706   4.933   6.311  -0.497 -1.2329  0.7910  0.7635
   19CHTO  H173 7707   4.914   6.416  -0.640 -0.7902  1.7388  0.0132
   19CHTO   C94 7708   4.788   6.607  -0.526 -0.1549 -0.6042 -0.4786
   19CHTO  H181 7709   4.813   6.650  -0.622  0.4341 -0.7964 -0.4135
   19CHTO   O61 7710   4.759   6.721  -0.434  0.8247 -0.1008  0.9515
   19CHTO   C95 7711   4.859   6.825  -0.419  0.0576 -0.4640 -0.0226
   19CHTO  H182 7712   4.885   6.864  -0.518  1.0309 -0.3797  0.2532
   19CHTO  C106 7713   4.803   6.943  -0.335 -1.0305 -0.2831 -0.1946
   19CHTO   O69 7714   4.722   7.027  -0.418 -0.3501 -0.3517 -0.4627
   19CHTO  H169 7715   4.641   6.984  -0.437  0.1263 -2.9260  2.9164
   19CHTO   O63 7716   4.666   6.533  -0.535  0.1781 -0.3475  0.4307
   19CHTO   C96 7717   4.562   6.602  -0.638 -0.4679  0.1918 -0.8248
   19CHTO  H183 7718   4.629   6.653  -0.708  0.9851  1.3844  1.3964
   19CHTO   C98 7719   4.472   6.711  -0.570 -0.5048  1.2828 -0.3541
   19CHTO  H185 7720   4.510   6.750  -0.474  1.3694 -0.1988 -0.4822
   19CHTO   O67 7721   4.463   6.824  -0.656  0.7187 -0.0149  0.3542
   19CHTO  H167 7722   4.396   6.883  -0.627 -0.2582 -1.8373  1.9520
   19CHTO  C102 7723   4.328   6.657  -0.538  0.0647 -0.5993 -0.0855
   19CHTO  H189 7724   4.273   6.745  -0.503 -0.6204 -1.2576  0.5348
   19CHTO   N18 7725   4.324   6.560  -0.420 -0.0486  0.1522 -0.5163
   19CHTO  H176 7726   4.240   6.494  -0.437  1.3480 -1.3432 -1.7556
   19CHTO  H177 7727   4.422   6.514  -0.419  0.2121  0.7130  0.3005
   19CHTO  C105 7728   4.263   6.599  -0.666 -0.1296 -0.6647  0.0277
   19CHTO  H192 7729   4.176   6.541  -0.636  0.9795 -1.4341  1.8517
   19CHTO   O65 7730   4.346   6.518  -0.750 -0.5310 -0.6919 -0.4299
   19CHTO  C100 7731   4.484   6.484  -0.713  0.2702 -0.2327 -0.2969
   19CHTO  H187 7732   4.478   6.399  -0.643 -0.5612 -1.1194 -1.4086
   19CHTO  C107 7733   4.562   6.422  -0.842  0.5100 -0.1154  0.0303
   19CHTO   O70 7734   4.658   6.322  -0.812 -0.0459  0.2989  0.3507
   19CHTO  H170 7735   4.653   6.279  -0.729  2.0905  2.4180  1.6457
   19CHTO   O57 7736   4.214   6.727  -0.739  0.1860 -0.5722  0.5716
   19CHTO   C85 7737   4.123   6.707  -0.852  0.0087 -0.3399  0.5778
   19CHTO  H157 7738   4.092   6.601  -0.840 -1.1544  0.1187  1.6720
   19CHTO   C83 7739   4.196   6.715  -0.984  0.1583  0.4249  0.0867
   19CHTO  H155 7740   4.264   6.629  -0.983 -1.1894 -0.7299 -2.6640
   19CHTO   O56 7741   4.280   6.836  -0.980 -0.3631  0.8474  0.2048
   19CHTO  H135 7742   4.231   6.909  -0.947  0.9677  1.4594  0.8827
   19CHTO   C81 7743   4.110   6.709  -1.112  0.1843  0.0969 -0.7622
   19CHTO  H153 7744   4.055   6.615  -1.108  1.0091 -0.3028  1.9740
   19CHTO   N14 7745   4.189   6.693  -1.237  0.6500 -0.0104 -0.0418
   19CHTO  H141 7746   4.126   6.672  -1.321  0.4498 -3.0927  0.8233
   19CHTO  H142 7747   4.260   6.613  -1.231  1.7893  0.8247 -2.0622
   19CHTO   C79 7748   4.007   6.828  -1.104 -0.2013  0.7238 -0.5776
   19CHTO  H151 7749   3.941   6.820  -1.191 -1.3821 -0.4954  0.4138
   19CHTO   O52 7750   3.927   6.818  -0.979  0.1759 -0.2953 -0.3924
   19CHTO   C86 7751   4.004   6.808  -0.852  0.3537  1.0411 -0.5727
   19CHTO  H158 7752   4.042   6.911  -0.837 -2.0326  1.7970  0.4786
   19CHTO   C90 7753   3.912   6.783  -0.736 -0.0148  0.0642 -0.3941
   19CHTO   O60 7754   3.801   6.868  -0.730  0.1173 -0.1727  0.2866
   19CHTO  H138 7755   3.722   6.818  -0.728  0.5002 -0.7411  1.4843
   19CHTO   O50 7756   4.077   6.955  -1.118 -0.1069 -0.2366 -0.1348
   19CHTO   C73 7757   4.075   7.091  -1.154  0.0329 -0.0445 -0.9809
   19CHTO  H145 7758   4.003   7.097  -1.237 -0.6863 -2.1593 -0.5619
   19CHTO   C74 7759   4.221   7.134  -1.199  0.1756 -0.5690 -0.6253
   19CHTO  H146 7760   4.253   7.047  -1.259  0.9353 -1.3050  0.8254
   19CHTO   O54 7761   4.202   7.252  -1.283 -0.2795 -0.1723 -0.5417
   19CHTO  H133 7762   4.275   7.247  -1.342  0.9263 -1.3708  0.9829
   19CHTO   C75 7763   4.317   7.159  -1.079  0.0898 -0.2732  0.3899
   19CHTO  H147 7764   4.342   7.060  -1.038 -1.6227 -1.0027 -0.2965
   19CHTO   N13 7765   4.447   7.213  -1.108 -0.1501 -0.0673  0.8150
   19CHTO  H139 7766   4.524   7.137  -1.119 -0.3024 -0.2551  1.0621
   19CHTO  H140 7767   4.445   7.272  -1.199  1.4275 -2.5222 -0.9070
   19CHTO   C76 7768   4.243   7.236  -0.957 -0.3800  0.0553  0.2021
   19CHTO  H148 7769   4.233   7.342  -0.980 -0.2770  0.3094  1.2962
   19CHTO   O49 7770   4.112   7.172  -0.927 -0.3917  0.1065 -0.0351
   19CHTO   C77 7771   4.025   7.183  -1.039 -0.3686 -0.1673 -0.3664
   19CHTO  H149 7772   4.032   7.289  -1.061 -3.0940 -0.2870 -2.0374
   19CHTO   C88 7773   3.882   7.156  -1.000 -0.0001  0.1765  0.3886
   19CHTO   O58 7774   3.824   7.246  -0.897 -0.2173  0.6062 -1.0031
   19CHTO  H136 7775   3.781   7.322  -0.932  0.5344  1.1166 -0.8291
   19CHTO   O51 7776   4.316   7.211  -0.819 -0.3076 -0.2914  0.5749
   19CHTO   C78 7777   4.274   7.295  -0.708 -0.5477 -0.5567 -0.2315
   19CHTO  H150 7778   4.169   7.320  -0.732 -0.7284 -0.9298  0.1678
   19CHTO   C80 7779   4.360   7.425  -0.691 -0.0713  0.8725 -0.0465
   19CHTO  H152 7780   4.468   7.406  -0.705 -0.0128  1.6849 -0.7353
   19CHTO   O55 7781   4.321   7.511  -0.798  0.6042  0.0629  1.3681
   19CHTO  H134 7782   4.384   7.575  -0.823 -0.5293  0.2099 -1.1829
   19CHTO   C84 7783   4.335   7.503  -0.558  0.5558  0.6041  0.0126
   19CHTO  H156 7784   4.232   7.536  -0.553 -0.2497 -1.5714 -1.3683
   19CHTO   N15 7785   4.417   7.622  -0.541 -0.4974 -0.4090  0.9665
   19CHTO  H143 7786   4.396   7.677  -0.452  0.8929 -0.5024  1.3621
   19CHTO  H144 7787   4.522   7.603  -0.552 -1.1161 -3.4749 -0.1139
   19CHTO   C87 7788   4.354   7.404  -0.434  0.6591 -0.3061  0.2322
   19CHTO  H159 7789   4.453   7.358  -0.433  0.0092 -1.8259 -1.5219
   19CHTO   O53 7790   4.247   7.289  -0.470  0.1008  0.0342  0.5573
   19CHTO   C82 7791   4.288   7.212  -0.581  0.2418  0.4135 -0.3782
   19CHTO  H154 7792   4.391   7.180  -0.566  0.6635  2.0139  0.2898
   19CHTO   C89 7793   4.195   7.087  -0.583  0.4399  0.3916  0.2694
   19CHTO   O59 7794   4.053   7.129  -0.599 -0.1429 -0.2847  0.0042
   19CHTO  H137 7795   4.039   7.151  -0.689 -1.3050  1.5217  0.6124
   19CHTO   O45 7796   4.329   7.472  -0.283  0.3214  0.5019 -0.2094
   19CHTO   C67 7797   4.188   7.483  -0.251  0.0614  0.0403 -0.8987
   19CHTO  H124 7798   4.117   7.473  -0.334 -0.4397  0.2013 -0.4934
   19CHTO   C65 7799   4.146   7.381  -0.143  0.5252 -0.0072 -0.1673
   19CHTO  H122 7800   4.229   7.347  -0.081 -0.6934 -2.6809  0.0565
   19CHTO   O44 7801   4.095   7.277  -0.222 -0.2574 -0.3809 -0.0336
   19CHTO  H102 7802   4.136   7.194  -0.202  0.7764  0.2006  0.3225
   19CHTO   C63 7803   4.045   7.444  -0.034 -0.3834  0.8736 -0.8217
   19CHTO  H120 7804   4.106   7.494   0.042 -2.1916  0.2530  1.0971
   19CHTO   N11 7805   3.978   7.348   0.061 -0.1572  0.2844 -0.2287
   19CHTO  H108 7806   3.918   7.272   0.015 -0.4823  0.9539 -0.9151
   19CHTO  H109 7807   4.042   7.311   0.138 -2.7529  0.0433  1.8898
   19CHTO   C61 7808   3.951   7.551  -0.101  0.3001  0.2580  0.0388
   19CHTO  H118 7809   3.902   7.604  -0.018  1.8452 -0.8882  1.7231
   19CHTO   O40 7810   4.023   7.651  -0.182 -0.0098 -0.3586  0.1185
   19CHTO   C68 7811   4.167   7.626  -0.201 -0.0226  0.8747  0.0927
   19CHTO  H125 7812   4.212   7.647  -0.101 -0.3179  1.0182  0.1932
   19CHTO   C72 7813   4.199   7.741  -0.292 -0.3959 -0.2102  0.1528
   19CHTO   O48 7814   4.181   7.875  -0.241 -0.0614  0.1712 -0.1795
   19CHTO  H105 7815   4.219   7.930  -0.307 -0.3755 -0.8600 -1.2456
   19CHTO   O38 7816   3.847   7.487  -0.174 -0.0098 -0.0121  0.0550
   19CHTO   C55 7817   3.756   7.557  -0.257 -0.1491 -0.4034 -0.2989
   19CHTO  H112 7818   3.801   7.653  -0.285  1.1744 -0.7535  0.5658
   19CHTO   C56 7819   3.617   7.576  -0.178 -0.2427  0.4178 -0.0031
   19CHTO  H113 7820   3.588   7.480  -0.134  0.8651 -0.4189 -1.0819
   19CHTO   O42 7821   3.640   7.668  -0.076 -0.7024  0.7005  0.1720
   19CHTO  H100 7822   3.663   7.753  -0.108 -0.2394  0.5618  0.1435
   19CHTO   C57 7823   3.502   7.629  -0.269 -0.0873 -0.1845  0.4942
   19CHTO  H114 7824   3.523   7.734  -0.289  0.2905 -0.2303  0.6547
   19CHTO   N10 7825   3.368   7.640  -0.205 -0.4104  0.4957 -0.0811
   19CHTO  H106 7826   3.362   7.729  -0.143  1.5423  1.0973 -0.7161
   19CHTO  H107 7827   3.295   7.653  -0.284 -1.3089 -0.7319  0.5364
   19CHTO   C58 7828   3.503   7.549  -0.397 -0.0853  0.1505 -0.6856
   19CHTO  H115 7829   3.465   7.445  -0.381 -0.2111  0.2899 -0.0452
   19CHTO   O37 7830   3.629   7.542  -0.459 -0.0853  0.5514  0.1498
   19CHTO   C59 7831   3.729   7.476  -0.389 -0.0128 -0.0478 -0.2257
   19CHTO  H116 7832   3.700   7.374  -0.363  0.9115 -0.2516  0.0217
   19CHTO   C70 7833   3.862   7.481  -0.472  0.6907 -1.0994  0.4845
   19CHTO   O46 7834   3.871   7.409  -0.595  0.3701 -0.7253  0.1014
   19CHTO  H103 7835   3.793   7.361  -0.615  0.9569 -1.0616 -1.4111
   19CHTO   O39 7836   3.414   7.639  -0.506 -0.0929 -0.2468 -0.3613
   19CHTO   C60 7837   3.336   7.573  -0.607 -0.7355  0.2380 -0.4768
   19CHTO  H117 7838   3.404   7.505  -0.660 -1.8272 -1.6887  0.5384
   19CHTO   C62 7839   3.229   7.468  -0.548  1.0132  0.5485  0.0494
   19CHTO  H119 7840   3.283   7.387  -0.496 -1.0154  0.1859  1.6810
   19CHTO   O43 7841   3.145   7.535  -0.448  0.8671  0.1700  0.5431
   19CHTO  H101 7842   3.192   7.544  -0.367  1.1720  2.6895  0.1053
   19CHTO   C66 7843   3.131   7.409  -0.660 -0.3004  0.9054 -0.0917
   19CHTO  H123 7844   3.191   7.343  -0.722  1.0431 -0.7740  2.8730
   19CHTO   N12 7845   3.021   7.328  -0.603 -0.2098 -0.0900 -0.2516
   19CHTO  H110 7846   2.977   7.386  -0.523  0.5509 -0.8091  0.7008
   19CHTO  H111 7847   3.073   7.245  -0.557 -2.6894 -0.0667  2.7970
   19CHTO   C69 7848   3.084   7.526  -0.746 -0.1824 -0.1701  0.8959
   19CHTO  H126 7849   3.026   7.597  -0.683  1.7918  0.3038  2.2155
   19CHTO   O41 7850   3.207   7.597  -0.812 -0.2001 -0.1355 -0.0739
   19CHTO   C64 7851   3.277   7.668  -0.711  0.3222 -0.4387 -0.2399
   19CHTO  H121 7852   3.209   7.738  -0.658  0.1786 -1.1802  0.5559
   19CHTO   C71 7853   3.383   7.759  -0.767  0.2479  0.5628  0.4812
   19CHTO   O47 7854   3.498   7.685  -0.812 -0.0285  1.0057  0.1534
   19CHTO  H104 7855   3.471   7.624  -0.878  1.2384 -1.7412  2.0797
   19CHTO   O34 7856   3.010   7.483  -0.889  0.1159  0.1857  0.3826
   19CHTO   C49 7857   2.902   7.587  -0.945 -0.7104  0.0661 -0.2139
   19CHTO   H91 7858   2.825   7.590  -0.869  0.6106  1.7249  1.0908
   19CHTO   C47 7859   2.842   7.541  -1.079 -0.6377 -0.3790 -0.3170
   19CHTO   H89 7860   2.761   7.610  -1.112  0.8133  1.7438  0.4314
   19CHTO   O33 7861   2.778   7.410  -1.066  0.1424  0.1083 -0.5373
   19CHTO   H70 7862   2.830   7.341  -1.030 -2.1107 -1.1037  0.4879
   19CHTO   C45 7863   2.961   7.546  -1.191  0.6336 -0.1496  0.1435
   19CHTO   H87 7864   2.985   7.441  -1.212 -1.3674 -1.2357  3.0362
   19CHTO    N8 7865   2.904   7.604  -1.318 -0.1049 -0.1087 -0.2020
   19CHTO   H75 7866   2.885   7.708  -1.297 -1.5955 -0.7810  2.0793
   19CHTO   H76 7867   2.963   7.583  -1.405  1.5788 -2.6031  1.4655
   19CHTO   C43 7868   3.097   7.626  -1.133 -0.1090  0.0561 -0.7035
   19CHTO   H85 7869   3.155   7.552  -1.078  0.2163 -1.7097 -3.3214
   19CHTO   O29 7870   3.073   7.746  -1.054 -0.5786  0.4544 -0.0201
   19CHTO   C50 7871   2.965   7.725  -0.959  1.0180  0.0944  0.0962
   19CHTO   H92 7872   3.017   7.743  -0.864 -2.3482  0.8459  1.8878
   19CHTO   C54 7873   2.859   7.840  -0.979  0.0568  0.2136 -1.0185
   19CHTO   O36 7874   2.757   7.851  -0.879  0.0481 -0.0291  0.9342
   19CHTO   H72 7875   2.686   7.802  -0.916 -0.8048  1.9832 -0.1648
   19CHTO   O27 7876   3.186   7.651  -1.245  0.4186  0.0879 -0.1862
   19CHTO   C37 7877   3.321   7.682  -1.286  0.6338 -0.0720 -0.0079
   19CHTO   H79 7878   3.322   7.787  -1.318  3.5435 -0.3117 -0.8221
   19CHTO   C38 7879   3.418   7.666  -1.159 -0.1447 -0.3103  0.0290
   19CHTO   H80 7880   3.398   7.569  -1.112  2.3655  0.2317  2.3474
   19CHTO   O31 7881   3.392   7.776  -1.072  0.2195  0.3558  0.0435
   19CHTO   H68 7882   3.311   7.764  -1.025  0.1156  2.4679  0.4726
   19CHTO   C39 7883   3.571   7.661  -1.199  0.8130  0.8197 -0.9032
   19CHTO   H81 7884   3.596   7.763  -1.228  1.2663  1.0962  0.4711
   19CHTO    N7 7885   3.663   7.622  -1.090  0.1272 -0.7409  0.0394
   19CHTO   H73 7886   3.629   7.539  -1.030 -4.4500 -0.1761 -1.5175
   19CHTO   H74 7887   3.756   7.597  -1.138  0.0991 -0.5997 -0.0899
   19CHTO   C40 7888   3.595   7.576  -1.327  0.6652  0.0092  0.5440
   19CHTO   H82 7889   3.588   7.470  -1.303 -0.9336 -0.0691 -0.2411
   19CHTO   O26 7890   3.502   7.612  -1.430 -0.1392 -0.6406  0.6368
   19CHTO   C41 7891   3.366   7.590  -1.408  0.8391 -0.1644  0.0707
   19CHTO   H83 7892   3.351   7.484  -1.382 -0.6647  0.3025  1.1275
   19CHTO   C52 7893   3.304   7.630  -1.542 -1.0149  0.4116  0.2957
   19CHTO   O35 7894   3.144   7.596  -1.549  0.8904 -0.1831  0.0591
   19CHTO   H71 7895   3.135   7.520  -1.603  1.0996  0.5605 -1.0349
   19CHTO   O28 7896   3.709   7.621  -1.397  0.2340 -0.2007 -0.4363
   19CHTO   C42 7897   3.825   7.544  -1.421  0.2685  0.0332  0.7472
   19CHTO   H84 7898   3.831   7.466  -1.346 -0.3851 -1.0170 -0.2754
   19CHTO   C44 7899   3.966   7.625  -1.421 -0.8453 -0.2708 -0.8565
   19CHTO   H86 7900   3.964   7.698  -1.501 -3.6621  0.0461 -0.5313
   19CHTO   O32 7901   3.978   7.682  -1.288  0.4533 -0.2096 -0.2131
   19CHTO   H69 7902   4.061   7.718  -1.261  1.1454 -2.1076  0.2635
   19CHTO   C48 7903   4.082   7.517  -1.450 -0.3896  0.1798 -1.1898
   19CHTO   H90 7904   4.062   7.446  -1.370 -1.2602  1.3509 -0.3419
   19CHTO    N9 7905   4.224   7.563  -1.428  0.1717 -0.0228 -0.2956
   19CHTO   H77 7906   4.223   7.670  -1.443  0.7029  0.6085  3.6355
   19CHTO   H78 7907   4.253   7.541  -1.326 -2.8499 -0.8065  0.4296
   19CHTO   C51 7908   4.049   7.449  -1.590  0.1655 -0.6105  0.5550
   19CHTO   H93 7909   4.054   7.524  -1.669 -0.4772 -1.3253 -0.1708
   19CHTO   O30 7910   3.930   7.374  -1.585  0.5943  0.0178  0.0947
   19CHTO   C46 7911   3.812   7.471  -1.561 -0.3117  0.1642 -0.6156
   19CHTO   H88 7912   3.807   7.555  -1.630  0.2448  0.4662 -0.2919
   19CHTO   C53 7913   3.686   7.384  -1.585 -0.0816  0.4850 -0.3395
   19CHTO   O72 7914   3.666   7.291  -1.478 -0.5403 -0.5122 -0.0700
   19CHTO  H199 7915   3.574   7.275  -1.467 -1.3536  3.2384 -0.5408
   19CHTO   O22 7916   4.147   7.344  -1.617  0.3269 -0.1896 -0.0108
   19CHTO   C31 7917   4.155   7.278  -1.747  0.6312  0.7793  0.0599
   19CHTO   H59 7918   4.051   7.251  -1.776  1.4308 -0.7992 -1.4568
   19CHTO   C29 7919   4.218   7.347  -1.875 -0.3549 -0.9562 -0.2874
   19CHTO   H57 7920   4.318   7.373  -1.839 -1.4686  2.0523  0.7522
   19CHTO   O21 7921   4.138   7.464  -1.894  0.0599 -0.2229  1.0982
   19CHTO   H37 7922   4.182   7.532  -1.940  0.0005 -0.7149  0.2960
   19CHTO   C27 7923   4.223   7.238  -1.989  0.5857 -0.4853  0.7523
   19CHTO   H55 7924   4.120   7.216  -2.021  0.2760  0.4231  1.1046
   19CHTO    N5 7925   4.294   7.297  -2.108  0.1250  0.0583 -0.1080
   19CHTO   H43 7926   4.292   7.230  -2.192  0.8861 -2.0832  1.5207
   19CHTO   H44 7927   4.252   7.393  -2.133  2.5690  1.2358  0.0642
   19CHTO   C25 7928   4.295   7.097  -1.943  0.1329 -0.8464 -0.2226
   19CHTO   H53 7929   4.399   7.107  -1.909  0.6684  0.1175 -2.1017
   19CHTO   O17 7930   4.210   7.046  -1.839  0.2359 -0.4135  0.0512
   19CHTO   C32 7931   4.227   7.137  -1.726  0.0244 -0.6885 -0.2569
   19CHTO   H60 7932   4.330   7.161  -1.700 -0.9834  1.5993  1.8541
   19CHTO   C36 7933   4.184   7.064  -1.594  0.1775 -0.4057 -0.0357
   19CHTO   O25 7934   4.258   6.945  -1.566 -0.0826  0.2689 -0.7043
   19CHTO   H40 7935   4.304   6.954  -1.484 -0.0443 -0.6165 -0.6293
   19CHTO   O15 7936   4.282   7.001  -2.063 -0.0058 -0.0852  0.5244
   19CHTO   C19 7937   4.347   6.875  -2.106  0.0936  0.1328 -0.0275
   19CHTO   H47 7938   4.323   6.867  -2.213  1.0321 -1.2657 -0.1526
   19CHTO   C20 7939   4.497   6.880  -2.096 -1.1137 -0.8538 -0.2539
   19CHTO   H48 7940   4.531   6.895  -1.993  0.5321 -0.5291 -0.8317
   19CHTO   O19 7941   4.552   6.982  -2.182  0.3567 -0.0816  0.1071
   19CHTO   H35 7942   4.526   6.966  -2.271 -0.5526 -3.1189  0.8594
   19CHTO   C21 7943   4.564   6.741  -2.141  0.2874 -0.6515  0.1009
   19CHTO   H49 7944   4.547   6.733  -2.249 -3.8702  2.8922  0.3466
   19CHTO    N4 7945   4.706   6.730  -2.109 -0.0843  0.4111  0.2761
   19CHTO   H41 7946   4.772   6.703  -2.190 -0.4213  0.4109 -0.0018
   19CHTO   H42 7947   4.742   6.824  -2.071 -0.2564  0.5320  0.1426
   19CHTO   C22 7948   4.489   6.615  -2.096  0.5787  0.8287  0.5706
   19CHTO   H50 7949   4.515   6.583  -1.995  0.2654 -1.5298 -0.0735
   19CHTO   O14 7950   4.350   6.636  -2.114 -0.6922 -0.0780 -0.5128
   19CHTO   C23 7951   4.296   6.745  -2.041 -0.7633  0.1785  0.5119
   19CHTO   H51 7952   4.336   6.731  -1.939 -1.6817 -1.9025  0.6130
   19CHTO   C34 7953   4.143   6.726  -2.046  0.5415 -0.0204 -0.1697
   19CHTO   O23 7954   4.079   6.775  -1.929 -0.6291 -0.1895  0.3789
   19CHTO   H38 7955   3.990   6.748  -1.937 -0.5165 -0.1695 -1.0532
   19CHTO   O16 7956   4.516   6.498  -2.172  0.4399  0.7723  0.3215
   19CHTO   C24 7957   4.483   6.350  -2.091 -0.0546 -0.1910 -0.0367
   19CHTO   H52 7958   4.424   6.363  -2.000  2.4282  0.6111  1.5205
   19CHTO   C26 7959   4.620   6.293  -2.055 -0.1417  0.5531 -0.1068
   19CHTO   H54 7960   4.677   6.269  -2.148  0.6469 -0.5810  0.6628
   19CHTO   O20 7961   4.698   6.381  -1.975 -0.4339  0.1240  0.3429
   19CHTO   H36 7962   4.789   6.362  -1.966 -0.8685 -1.2499  2.1836
   19CHTO   C30 7963   4.603   6.155  -1.986  0.1706 -0.6169  0.5539
   19CHTO   H58 7964   4.537   6.167  -1.899 -1.0669 -0.4035 -0.4106
   19CHTO    N6 7965   4.737   6.098  -1.940  0.7817 -0.4519  0.1129
   19CHTO   H45 7966   4.757   6.009  -1.997 -0.2444 -0.3694 -0.3873
   19CHTO   H46 7967   4.816   6.168  -1.965 -0.3406  0.6793 -0.3094
   19CHTO   C33 7968   4.528   6.060  -2.084  0.3428  0.0966 -0.4200
   19CHTO   H61 7969   4.582   6.042  -2.178 -2.3754  3.1150 -2.6599
   19CHTO   O18 7970   4.403   6.123  -2.115  0.8543  0.4558  0.1517
   19CHTO   C28 7971   4.409   6.246  -2.190  0.2693  0.3867 -0.1676
   19CHTO   H56 7972   4.466   6.233  -2.282  0.5362 -1.4011  0.2386
   19CHTO   C35 7973   4.261   6.297  -2.219 -0.1985  0.2170  0.2817
   19CHTO   O24 7974   4.266   6.403  -2.316 -0.8596  0.1330 -0.1627
   19CHTO   H39 7975   4.341   6.459  -2.306 -1.5305  1.1269 -0.5333
   19CHTO    O9 7976   4.510   5.926  -2.026  0.5176  0.0969  0.2276
   19CHTO   C13 7977   4.421   5.839  -2.135 -0.7127 -0.3652  0.7349
   19CHTO   H26 7978   4.445   5.875  -2.237  0.5561 -1.9871  0.4394
   19CHTO   C11 7979   4.262   5.850  -2.104 -0.1317  0.0779  0.5785
   19CHTO   H24 7980   4.223   5.942  -2.151  1.1951  0.5661  0.4298
   19CHTO    O8 7981   4.244   5.858  -1.958  0.3875  0.1070  0.1971
   19CHTO    H3 7982   4.163   5.825  -1.926  0.4801  0.2485  0.5871
   19CHTO    C9 7983   4.193   5.725  -2.156 -0.2398 -0.4531 -0.7320
   19CHTO   H22 7984   4.231   5.713  -2.258  0.2472  0.4141 -0.6561
   19CHTO    N2 7985   4.051   5.727  -2.164  0.7550  0.1372 -0.3536
   19CHTO   H10 7986   4.011   5.764  -2.071 -1.5924 -0.3558 -1.1320
   19CHTO   H11 7987   4.032   5.794  -2.247 -2.0186  0.9284  0.8620
   19CHTO    C7 7988   4.251   5.601  -2.070 -0.2779  0.1255 -0.6818
   19CHTO   H20 7989   4.212   5.519  -2.133 -0.1153  0.1928 -0.8691
   19CHTO    O4 7990   4.399   5.593  -2.059  0.0202  0.3797  0.0243
   19CHTO   C14 7991   4.467   5.690  -2.142  0.8565 -0.1634 -0.0205
   19CHTO   H27 7992   4.448   5.648  -2.243 -0.0247  0.1664  0.0025
   19CHTO   C18 7993   4.619   5.680  -2.119  0.0678  0.3919 -0.2534
   19CHTO   O13 7994   4.674   5.565  -2.172 -0.4643  0.3068 -0.0126
   19CHTO    H7 7995   4.636   5.497  -2.119  0.1447 -0.7251 -0.8738
   19CHTO    O2 7996   4.184   5.579  -1.925  0.0002 -0.0487 -0.4320
   19CHTO    C1 7997   4.184   5.442  -1.874  0.0066  0.7347  0.1265
   19CHTO   H14 7998   4.271   5.385  -1.914 -0.2465  2.3019 -2.8239
   19CHTO    C2 7999   4.052   5.371  -1.918 -0.6233 -0.1267 -0.4001
   19CHTO   H15 8000   3.974   5.440  -1.884  1.6754  2.6766 -0.5947
   19CHTO    O6 8001   4.050   5.356  -2.059 -0.0789  0.0911  0.2232
   19CHTO    H1 8002   4.071   5.441  -2.091 -0.9631 -0.0499 -0.7571
   19CHTO    C3 8003   4.033   5.234  -1.841  0.0348  0.7348 -0.2935
   19CHTO   H16 8004   4.110   5.162  -1.872 -0.2408 -0.7927  2.4210
   19CHTO    N1 8005   3.906   5.170  -1.873 -0.0652  0.4167 -0.1208
   19CHTO    H8 8006   3.929   5.117  -1.964  0.1041 -0.1948  0.2747
   19CHTO    H9 8007   3.876   5.096  -1.800 -0.0172  1.3434  0.8452
   19CHTO    C4 8008   4.053   5.264  -1.689  0.7044  0.7283  0.0593
   19CHTO   H17 8009   3.975   5.331  -1.651  1.6716  1.0111  1.5727
   19CHTO    O1 8010   4.176   5.317  -1.656  0.2240  0.6579  0.1526
   19CHTO    C5 8011   4.201   5.445  -1.716 -0.7691  0.1440  0.1757
   19CHTO   H18 8012   4.125   5.513  -1.679  0.4570 -0.4155  3.8933
   19CHTO   C16 8013   4.340   5.501  -1.688  0.4898  0.2312  0.3036
   19CHTO   O11 8014   4.366   5.504  -1.544 -0.6633 -0.1403 -0.2643
   19CHTO    H5 8015   4.360   5.587  -1.502 -1.0267  0.1364 -0.8580
   19CHTO    O3 8016   4.049   5.137  -1.618  0.1376  0.1314  0.3075
   19CHTO    C6 8017   4.037   5.155  -1.475 -0.4128 -0.1112 -0.3250
   19CHTO   H19 8018   4.072   5.249  -1.433 -1.4038 -0.1737  0.6515
   19CHTO    C8 8019   3.887   5.135  -1.429  0.0392 -0.3613 -0.2417
   19CHTO   H21 8020   3.845   5.041  -1.464  1.1963 -0.9963  0.0491
   19CHTO    O7 8021   3.796   5.238  -1.480  0.1026 -0.1091 -0.1409
   19CHTO    H2 8022   3.708   5.206  -1.490  0.3837 -0.4377 -1.6882
   19CHTO   C12 8023   3.872   5.131  -1.272  0.5363 -0.3125  0.5749
   19CHTO   H25 8024   3.901   5.231  -1.232  1.3026  0.2745 -1.3541
   19CHTO    N3 8025   3.724   5.100  -1.223 -0.5450 -0.2445 -0.1359
   19CHTO   H12 8026   3.655   5.183  -1.235  1.3405  1.7289  2.1480
   19CHTO   H13 8027   3.686   5.011  -1.271  1.8911 -1.8800  0.8316
   19CHTO   C15 8028   3.966   5.020  -1.219 -0.1473  0.4401  0.6573
   19CHTO   H28 8029   3.927   4.922  -1.248  1.2036  0.1730 -0.2964
   19CHTO   O10 8030   3.978   5.010  -1.078  0.0954 -0.3875  0.0157
   19CHTO    H4 8031   4.026   5.086  -1.049  0.7299 -0.8129  0.1015
   19CHTO    O5 8032   4.101   5.046  -1.263  0.0663 -0.7909  0.1341
   19CHTO   C10 8033   4.120   5.042  -1.401  0.0385  0.3085  0.0163
   19CHTO   H23 8034   4.075   4.956  -1.450 -0.8478  0.4752  0.5248
   19CHTO   C17 8035   4.272   5.052  -1.439  0.4282  0.8406 -0.0742
   19CHTO   O12 8036   4.334   5.168  -1.374  0.1009  0.0784  0.1916
   19CHTO    H6 8037   4.420   5.182  -1.408  0.3114 -3.1540 -0.7352
   20CHTO  H203 8038   4.336   9.989   1.798 -0.6369 -2.1883 -0.3061
   20CHTO   O82 8039   4.392   9.968   1.727  0.1596 -0.1958 -0.3097
   20CHTO  C123 8040   4.493  10.071   1.728 -0.4411 -0.3022  0.8200
   20CHTO  H227 8041   4.509  10.101   1.833  0.4025 -1.3517  1.0000
   20CHTO   O77 8042   4.616  10.016   1.666 -0.7955  0.0985 -0.3001
   20CHTO  C118 8043   4.735  10.108   1.678 -0.3424 -0.4593 -0.1886
   20CHTO  H222 8044   4.746  10.139   1.783  3.2776  1.4618 -1.0582
   20CHTO  C125 8045   4.869  10.028   1.624  0.3110 -0.0757 -0.3502
   20CHTO   O84 8046   4.893   9.909   1.700  0.3447  0.0109  0.1182
   20CHTO  H205 8047   4.810   9.867   1.712  0.3249 -1.3768 -4.0032
   20CHTO  C114 8048   4.705  10.227   1.582 -0.2180 -0.3315 -0.0176
   20CHTO  H218 8049   4.700  10.189   1.480  0.9583  1.0631 -0.6109
   20CHTO  C116 8050   4.570  10.301   1.610  0.1114  0.7527 -0.7038
   20CHTO  H220 8051   4.588  10.366   1.698  1.5010 -0.4647 -0.0819
   20CHTO   O79 8052   4.525  10.377   1.494  0.6996 -0.2587 -0.3787
   20CHTO  H201 8053   4.446  10.423   1.515 -0.3702 -1.8406 -0.8888
   20CHTO  C120 8054   4.451  10.198   1.647 -0.7167 -0.6122 -0.0033
   20CHTO  H224 8055   4.406  10.158   1.554  0.2086 -2.0151  0.1440
   20CHTO   N21 8056   4.338  10.265   1.714  0.3243  0.0098 -0.6966
   20CHTO  H211 8057   4.333  10.371   1.693 -0.8609  0.4761  1.7545
   20CHTO  H212 8058   4.338  10.242   1.819  1.5603 -1.3141 -0.9768
   20CHTO   O75 8059   4.820  10.318   1.594 -0.3666 -1.1210  0.8095
   20CHTO  C112 8060   4.844  10.416   1.459 -0.1065 -0.8176  0.2750
   20CHTO  H216 8061   4.757  10.412   1.393 -1.3962  0.3288  1.8627
   20CHTO   O73 8062   4.967  10.375   1.395 -0.7560  0.6365  0.3945
   20CHTO  C113 8063   5.001  10.443   1.277 -0.0127 -0.4246  0.5110
   20CHTO  H217 8064   4.922  10.453   1.199  0.2482  0.8801  0.3997
   20CHTO  C124 8065   5.121  10.383   1.216 -0.3203  0.1457  0.1108
   20CHTO   O83 8066   5.104  10.246   1.183  0.7649  0.4439  0.4410
   20CHTO  H204 8067   5.029  10.239   1.128 -0.4878  0.0107  2.1618
   20CHTO  C109 8068   5.039  10.584   1.321  0.5757 -0.4488  0.0458
   20CHTO  H213 8069   5.130  10.576   1.382  0.9972 -0.2186 -0.5441
   20CHTO  C110 8070   4.926  10.654   1.403 -0.0006  0.5160  0.0613
   20CHTO  H214 8071   4.845  10.682   1.336 -0.3643 -1.3730 -0.3140
   20CHTO   O78 8072   4.985  10.775   1.455  0.7387 -0.6215 -0.0532
   20CHTO  H200 8073   5.020  10.823   1.382  0.0772 -0.1636 -0.0767
   20CHTO  C111 8074   4.865  10.562   1.513 -0.0925 -0.2717  0.2300
   20CHTO  H215 8075   4.940  10.553   1.592  0.3483 -1.1854 -0.2890
   20CHTO   N19 8076   4.746  10.625   1.571 -0.5088 -0.5720  0.0985
   20CHTO  H207 8077   4.678  10.639   1.488 -1.7026 -3.0238  0.6102
   20CHTO  H208 8078   4.769  10.719   1.619 -0.9321 -0.1836 -0.4448
   20CHTO   O74 8079   5.067  10.663   1.193  0.6025 -0.3435  0.2789
   20CHTO  C115 8080   5.199  10.763   1.209  0.1992 -0.4599 -0.1534
   20CHTO  H219 8081   5.236  10.772   1.311  1.2597 -0.0792 -0.5654
   20CHTO   O76 8082   5.320  10.705   1.122 -0.5377 -0.2004  0.1830
   20CHTO  C122 8083   5.276  10.675   0.992 -0.0822  0.3476  0.0240
   20CHTO  H226 8084   5.222  10.581   0.984 -0.1848  0.5293 -1.5519
   20CHTO  C126 8085   5.407  10.646   0.916  0.2096 -0.3833  0.2773
   20CHTO   O85 8086   5.496  10.756   0.892  0.0700  0.0542  0.3371
   20CHTO  H206 8087   5.558  10.733   0.825 -0.3598 -1.2524  0.3786
   20CHTO  C121 8088   5.188  10.790   0.926  0.0379 -0.7429 -0.3677
   20CHTO  H225 8089   5.222  10.806   0.822 -0.3702  0.0982 -0.3688
   20CHTO   O81 8090   5.049  10.742   0.921 -0.2948 -0.0537  0.0355
   20CHTO  H202 8091   5.039  10.690   0.844 -2.4589 -0.3215  0.4665
   20CHTO  C119 8092   5.190  10.924   1.009 -0.2449  0.0568 -0.5804
   20CHTO  H223 8093   5.293  10.956   1.001 -1.3425  3.9159 -0.0858
   20CHTO  C117 8094   5.169  10.910   1.166  0.1343 -0.3223  0.0548
   20CHTO  H221 8095   5.065  10.920   1.196  0.2610 -0.7682  0.6679
   20CHTO   N20 8096   5.249  11.017   1.242  0.0214 -0.5633 -0.1544
   20CHTO  H209 8097   5.290  10.980   1.335  0.0650  0.6530  0.3198
   20CHTO  H210 8098   5.326  11.061   1.180 -0.1822 -1.0301 -0.7414
   20CHTO   O80 8099   5.109  11.044   0.933  0.0835 -0.3561 -0.3859
   20CHTO  C103 8100   4.951  11.037   0.923 -0.1294 -0.1429 -0.2258
   20CHTO  H190 8101   4.914  10.976   0.840 -1.1062 -0.2080  0.2473
   20CHTO  C101 8102   4.862  10.997   1.047  0.1326  0.0500  0.0169
   20CHTO  H188 8103   4.911  11.051   1.127  3.6569 -0.0883 -1.9664
   20CHTO   O68 8104   4.860  10.852   1.069  0.1908  0.3568 -0.1522
   20CHTO  H168 8105   4.854  10.820   0.981  0.2908  0.1144 -0.0703
   20CHTO   C99 8106   4.711  11.046   1.036 -0.2197  0.0646  0.3805
   20CHTO  H186 8107   4.646  10.981   0.974  0.3239 -0.0121 -0.1046
   20CHTO   N17 8108   4.650  11.043   1.175 -0.1645  0.4148  0.2222
   20CHTO  H174 8109   4.671  11.134   1.229 -1.7647  0.9662 -0.0788
   20CHTO  H175 8110   4.543  11.032   1.180 -0.1102  0.5419  1.7884
   20CHTO   C97 8111   4.707  11.195   0.975  0.6646  0.3037 -0.5133
   20CHTO  H184 8112   4.735  11.268   1.052  0.9383  0.0168 -0.3451
   20CHTO   O64 8113   4.786  11.215   0.856 -0.2709 -0.0983 -0.4607
   20CHTO  C104 8114   4.923  11.186   0.887 -0.1215 -0.1451  0.3630
   20CHTO  H191 8115   4.956  11.253   0.966 -1.9665  2.0996 -0.7162
   20CHTO  C108 8116   4.998  11.230   0.762  0.4160  0.1242 -0.4649
   20CHTO   O71 8117   4.969  11.358   0.696  0.1827  0.6142 -0.0125
   20CHTO  H171 8118   4.899  11.401   0.741  1.7022  2.8390  0.3281
   20CHTO   O62 8119   4.575  11.203   0.913  0.0711  0.0650  0.2646
   20CHTO   C91 8120   4.525  11.339   0.909  0.0783  0.3013  0.1897
   20CHTO  H178 8121   4.605  11.411   0.926 -0.8230  0.9982  1.6772
   20CHTO   C92 8122   4.430  11.370   1.039  0.2252 -0.6843  0.5202
   20CHTO  H179 8123   4.358  11.287   1.044  1.0168 -1.3887  0.3685
   20CHTO   O66 8124   4.510  11.373   1.159  0.1108  0.2794 -0.0889
   20CHTO  H166 8125   4.539  11.286   1.175  0.7439  0.1765 -1.6753
   20CHTO   C93 8126   4.348  11.505   1.026 -0.4138  0.2825  0.8976
   20CHTO  H180 8127   4.415  11.592   1.027  0.8343 -0.6748  1.4520
   20CHTO   N16 8128   4.250  11.520   1.132  0.0322 -0.2287  0.1441
   20CHTO  H172 8129   4.285  11.595   1.202 -0.2947 -2.6512  3.0073
   20CHTO  H173 8130   4.239  11.429   1.188  0.2365 -0.9731 -1.0147
   20CHTO   C94 8131   4.275  11.499   0.887 -0.2949  0.4139  0.3671
   20CHTO  H181 8132   4.206  11.415   0.878 -0.7595  0.9177 -0.9834
   20CHTO   O61 8133   4.369  11.494   0.781 -0.2505 -0.5581 -0.3104
   20CHTO   C95 8134   4.438  11.373   0.776  0.6832 -0.1037  0.6798
   20CHTO  H182 8135   4.366  11.295   0.751  2.2559 -0.4506 -3.1572
   20CHTO  C106 8136   4.540  11.398   0.660  0.1068  0.1244 -0.2004
   20CHTO   O69 8137   4.645  11.487   0.673  0.4409  0.2446  0.0578
   20CHTO  H169 8138   4.701  11.467   0.745 -0.3122  1.0465  0.8818
   20CHTO   O63 8139   4.172  11.639   0.857 -0.4279 -0.2141  0.1362
   20CHTO   C96 8140   4.105  11.636   0.715 -0.6407 -0.0262  0.6224
   20CHTO  H183 8141   4.144  11.539   0.682  1.0533 -0.7264  4.4738
   20CHTO   C98 8142   4.146  11.751   0.612  0.2136 -0.2251  0.7861
   20CHTO  H185 8143   4.123  11.849   0.658 -1.2043 -0.4742  0.6021
   20CHTO   O67 8144   4.290  11.742   0.605  0.3146 -0.1611 -0.4698
   20CHTO  H167 8145   4.324  11.826   0.580 -4.5320  2.0381 -0.2181
   20CHTO  C102 8146   4.067  11.734   0.476 -0.3402  0.3014 -0.1445
   20CHTO  H189 8147   4.093  11.633   0.438 -0.5308  0.0134  0.4875
   20CHTO   N18 8148   4.103  11.830   0.364  0.4603  0.0061 -0.0133
   20CHTO  H176 8149   4.192  11.887   0.388 -0.4081  1.0730  0.7328
   20CHTO  H177 8150   4.020  11.880   0.316  1.8283  1.0628 -1.3524
   20CHTO  C105 8151   3.911  11.724   0.502 -0.8991 -0.3837  0.2736
   20CHTO  H192 8152   3.880  11.812   0.559 -1.1321 -0.2516 -0.0601
   20CHTO   O65 8153   3.888  11.620   0.593  0.3244  0.5018 -0.0678
   20CHTO  C100 8154   3.952  11.622   0.722  0.6411  0.0936  0.3815
   20CHTO  H187 8155   3.922  11.711   0.779  2.4296  1.2979 -0.5193
   20CHTO  C107 8156   3.909  11.499   0.805 -0.2100  0.1972  0.0849
   20CHTO   O70 8157   3.767  11.507   0.838  0.2585  0.2665 -0.0623
   20CHTO  H170 8158   3.732  11.421   0.843 -0.4767  0.5519 -0.2138
   20CHTO   O57 8159   3.831  11.703   0.377  0.4487 -0.0806  0.2246
   20CHTO   C85 8160   3.854  11.590   0.291 -0.5536  0.3230 -0.9218
   20CHTO  H157 8161   3.930  11.529   0.344 -2.9612 -2.6298 -0.6849
   20CHTO   C83 8162   3.909  11.633   0.162  0.7055  0.0323  0.1119
   20CHTO  H155 8163   4.012  11.670   0.172  0.5932  1.1994 -2.5110
   20CHTO   O56 8164   3.835  11.751   0.117  1.1048 -0.0871 -0.0664
   20CHTO  H135 8165   3.862  11.786   0.034  0.6086  0.2753 -0.0727
   20CHTO   C81 8166   3.923  11.517   0.058 -0.2508  0.5307 -0.3799
   20CHTO  H153 8167   3.990  11.442   0.100 -1.5062 -1.1153 -1.2505
   20CHTO   N14 8168   3.988  11.556  -0.064 -0.4248  0.7731  0.2002
   20CHTO  H141 8169   4.012  11.484  -0.139 -1.6974 -0.0254  0.5501
   20CHTO  H142 8170   4.071  11.622  -0.047  0.8467 -0.6060 -0.5619
   20CHTO   C79 8171   3.786  11.448   0.025  0.6004 -0.5795  0.0657
   20CHTO  H151 8172   3.807  11.358  -0.033  0.8318 -0.5024  0.0301
   20CHTO   O52 8173   3.729  11.403   0.151  0.5547  0.2766  0.4956
   20CHTO   C86 8174   3.726  11.505   0.264  0.2786  0.4259 -0.0874
   20CHTO  H158 8175   3.641  11.573   0.242 -0.0767  0.4305  1.2422
   20CHTO   C90 8176   3.671  11.439   0.399  0.9368  0.1307  0.1845
   20CHTO   O60 8177   3.535  11.409   0.395  0.1238 -0.3432 -0.7614
   20CHTO  H138 8178   3.493  11.417   0.312  0.3342  3.5028 -0.6091
   20CHTO   O50 8179   3.690  11.532  -0.043  0.2980 -0.0358 -0.5257
   20CHTO   C73 8180   3.592  11.553  -0.148  0.0262  0.2694  0.6579
   20CHTO  H145 8181   3.603  11.469  -0.218 -1.2709 -0.1058  0.8933
   20CHTO   C74 8182   3.620  11.689  -0.215  0.6314  0.3985 -0.1106
   20CHTO  H146 8183   3.723  11.692  -0.253  1.0588 -0.2890  0.9484
   20CHTO   O54 8184   3.541  11.692  -0.335 -0.6472 -0.1512  0.8361
   20CHTO  H133 8185   3.539  11.779  -0.371 -0.1242  0.3024  1.8785
   20CHTO   C75 8186   3.597  11.817  -0.115 -0.0868  0.5975 -0.3034
   20CHTO  H147 8187   3.683  11.821  -0.046 -0.3305  1.1261 -0.0325
   20CHTO   N13 8188   3.620  11.954  -0.179 -0.1956  0.5303  0.6039
   20CHTO  H139 8189   3.527  12.007  -0.192 -1.0416 -0.5130  2.2426
   20CHTO  H140 8190   3.693  12.020  -0.134 -1.6405  1.5733  1.4521
   20CHTO   C76 8191   3.458  11.801  -0.041  0.2215 -0.5519  0.6651
   20CHTO  H148 8192   3.378  11.818  -0.114 -0.2016  0.4328  1.3501
   20CHTO   O49 8193   3.434  11.668   0.016  0.3120 -0.5311 -0.5087
   20CHTO   C77 8194   3.449  11.571  -0.084  0.0044 -0.0081  1.2715
   20CHTO  H149 8195   3.380  11.586  -0.166  0.4048  0.8691  1.0944
   20CHTO   C88 8196   3.401  11.442  -0.014  0.3049  0.5699  0.1416
   20CHTO   O58 8197   3.279  11.450   0.082  0.1665 -0.6321 -0.2164
   20CHTO  H136 8198   3.208  11.401   0.046 -0.1608 -0.6151  0.3976
   20CHTO   O51 8199   3.444  11.913   0.094  0.5839  0.3139 -0.4208
   20CHTO   C78 8200   3.513  11.863   0.246  0.1563  0.1798  0.0903
   20CHTO  H150 8201   3.598  11.795   0.229  0.4544  1.0099 -1.9491
   20CHTO   C80 8202   3.406  11.799   0.344 -0.3815  0.1580 -0.4407
   20CHTO  H152 8203   3.325  11.873   0.359  0.0595  0.9032 -1.5907
   20CHTO   O55 8204   3.350  11.680   0.281  0.4053  0.3197  0.5195
   20CHTO  H134 8205   3.412  11.618   0.249 -1.1194 -1.2384  0.4940
   20CHTO   C84 8206   3.473  11.760   0.479  1.0458 -0.4903  0.3970
   20CHTO  H156 8207   3.555  11.691   0.461  1.6813  0.3039  0.2433
   20CHTO   N15 8208   3.388  11.695   0.585 -0.3582 -0.4263  0.6119
   20CHTO  H143 8209   3.443  11.666   0.673 -0.3687 -2.6222 -0.0690
   20CHTO  H144 8210   3.351  11.607   0.536  0.3915  0.1469 -1.0199
   20CHTO   C87 8211   3.547  11.880   0.541  0.4534  0.1200 -0.0782
   20CHTO  H159 8212   3.481  11.962   0.568 -0.3729 -0.7593  0.6237
   20CHTO   O53 8213   3.651  11.942   0.434  0.0036  0.0182 -0.0025
   20CHTO   C82 8214   3.575  11.984   0.318  0.3678 -0.2187 -0.7552
   20CHTO  H154 8215   3.493  12.049   0.348 -0.9032 -1.1538 -2.1209
   20CHTO   C89 8216   3.664  12.063   0.223 -0.0719  0.3075  0.1815
   20CHTO   O59 8217   3.738  12.167   0.290 -0.4348  0.3023 -0.0939
   20CHTO  H137 8218   3.717  12.248   0.248  1.3385  0.7335 -0.1795
   20CHTO   O45 8219   3.651  11.823   0.681  0.1660 -0.7488  0.7815
   20CHTO   C67 8220   3.681  11.930   0.769 -0.2792  0.5432  0.2437
   20CHTO  H124 8221   3.729  11.873   0.849  0.6722 -0.5351 -1.0803
   20CHTO   C65 8222   3.781  12.041   0.720  0.7637 -0.2207  0.5109
   20CHTO  H122 8223   3.790  12.048   0.612  0.8708  1.3923  0.6083
   20CHTO   O44 8224   3.906  11.992   0.768 -0.0304 -0.1364  0.2390
   20CHTO  H102 8225   3.966  12.064   0.766  0.6353 -0.7153 -1.8851
   20CHTO   C63 8226   3.729  12.188   0.765 -0.5561 -0.2548 -0.2643
   20CHTO  H120 8227   3.637  12.215   0.714 -0.6536  1.8352  0.9760
   20CHTO   N11 8228   3.823  12.305   0.734  0.3154 -0.0347 -0.3283
   20CHTO  H108 8229   3.806  12.385   0.803  1.8464  0.2643 -0.2837
   20CHTO  H109 8230   3.922  12.265   0.730 -0.1240 -1.1217 -0.3416
   20CHTO   C61 8231   3.705  12.184   0.924  0.1137 -0.5127  0.1234
   20CHTO  H118 8232   3.672  12.283   0.959  1.8336  0.0513  0.1554
   20CHTO   O40 8233   3.587  12.094   0.943 -0.4951  0.2813  0.3267
   20CHTO   C68 8234   3.555  11.993   0.835 -0.1828  0.5386 -0.5396
   20CHTO  H125 8235   3.504  12.053   0.756 -1.0969 -1.8355 -1.8140
   20CHTO   C72 8236   3.454  11.886   0.887 -0.1889 -0.1011 -0.3439
   20CHTO   O48 8237   3.492  11.814   1.007 -0.4086  0.1798  0.4364
   20CHTO  H105 8238   3.413  11.785   1.048  0.7779 -2.4791  0.9898
   20CHTO   O38 8239   3.825  12.139   0.997  0.0439  0.4301 -0.0142
   20CHTO   C55 8240   3.799  12.132   1.135 -0.2886  0.0678 -0.5589
   20CHTO  H112 8241   3.691  12.113   1.149  0.0777 -2.8763 -1.3235
   20CHTO   C56 8242   3.846  12.262   1.217 -0.2681 -0.1658  0.3746
   20CHTO  H113 8243   3.953  12.272   1.198 -0.3110 -0.3620  0.0286
   20CHTO   O42 8244   3.784  12.376   1.160 -0.4577  0.1883 -0.3596
   20CHTO  H100 8245   3.800  12.453   1.210  1.6255  0.1821 -0.9684
   20CHTO   C57 8246   3.818  12.229   1.372 -0.9578 -0.1401  0.5611
   20CHTO  H114 8247   3.710  12.216   1.380 -1.1648  1.2086  0.0886
   20CHTO   N10 8248   3.859  12.340   1.458  0.7177  0.2124 -0.3114
   20CHTO  H106 8249   3.791  12.344   1.541 -2.0402  0.9109 -2.5200
   20CHTO  H107 8250   3.852  12.434   1.405 -0.1946  0.5191  0.3555
   20CHTO   C58 8251   3.892  12.104   1.421 -0.6814  1.3702  0.7159
   20CHTO  H115 8252   3.998  12.118   1.390 -1.1532  2.2489 -0.5610
   20CHTO   O37 8253   3.843  11.992   1.338 -0.0219 -0.0866  0.6752
   20CHTO   C59 8254   3.876  12.010   1.201 -0.2014  0.5190  0.7817
   20CHTO  H116 8255   3.984  12.019   1.193 -0.1415 -1.4805 -0.7998
   20CHTO   C70 8256   3.845  11.882   1.129  0.2425  0.4923 -0.0871
   20CHTO   O46 8257   3.947  11.840   1.041  0.1840  0.3563 -0.0332
   20CHTO  H103 8258   3.932  11.876   0.956  2.4281  1.3093 -0.0439
   20CHTO   O39 8259   3.855  12.062   1.592 -0.8451  0.1474 -0.3425
   20CHTO   C60 8260   3.937  11.955   1.637 -0.1807 -0.0085 -0.6644
   20CHTO  H117 8261   3.969  11.894   1.552 -0.7426  0.0977 -0.9478
   20CHTO   C62 8262   4.071  11.997   1.691  0.1623  0.5955  0.1866
   20CHTO  H119 8263   4.107  12.054   1.603 -1.0714 -1.1742 -1.4904
   20CHTO   O43 8264   4.057  12.083   1.802 -0.0568 -0.1809 -0.0139
   20CHTO  H101 8265   4.124  12.071   1.867 -0.0932 -0.5230 -0.0422
   20CHTO   C66 8266   4.160  11.864   1.720  0.2402 -0.5021 -0.1663
   20CHTO  H123 8267   4.174  11.817   1.623 -1.4101 -0.4006 -0.4775
   20CHTO   N12 8268   4.299  11.907   1.744 -0.4411  0.2219 -0.2500
   20CHTO  H110 8269   4.331  11.985   1.676  0.6988  0.3450  0.4076
   20CHTO  H111 8270   4.359  11.818   1.740 -1.2247 -0.4213  1.6875
   20CHTO   C69 8271   4.106  11.775   1.829 -0.1636  0.0162 -0.4431
   20CHTO  H126 8272   4.120  11.803   1.935 -2.8055 -0.0887 -0.0379
   20CHTO   O41 8273   3.956  11.743   1.795 -0.4236  0.1501 -0.3760
   20CHTO   C64 8274   3.855  11.861   1.733 -0.0486 -0.1532 -0.7556
   20CHTO  H121 8275   3.802  11.916   1.814 -0.6794 -2.0296  0.1453
   20CHTO   C71 8276   3.742  11.787   1.657  0.4541  1.1864  0.2909
   20CHTO   O47 8277   3.667  11.702   1.753  0.2011  0.6566 -0.2696
   20CHTO  H104 8278   3.617  11.640   1.703  0.9207  0.6926 -1.0583
   20CHTO   O34 8279   4.183  11.622   1.822  0.2524  0.1118 -0.1735
   20CHTO   C49 8280   4.196  11.523   1.698  0.3469  0.7136 -0.0506
   20CHTO   H91 8281   4.154  11.573   1.611 -1.2233  1.0337  0.8894
   20CHTO   C47 8282   4.117  11.391   1.720 -0.0187 -0.0388 -0.0673
   20CHTO   H89 8283   4.109  11.339   1.622  1.9399 -0.2198 -0.1555
   20CHTO   O33 8284   3.985  11.425   1.768  0.3744 -0.3726 -0.0871
   20CHTO   H70 8285   3.957  11.514   1.771  2.3211  0.3120 -1.2635
   20CHTO   C45 8286   4.189  11.285   1.814 -0.0102 -0.0832  0.3388
   20CHTO   H87 8287   4.213  11.332   1.911  0.3391  1.8888 -0.6854
   20CHTO    N8 8288   4.114  11.158   1.854 -0.2954 -0.0630  0.8413
   20CHTO   H75 8289   4.039  11.136   1.779  0.3893 -1.4824  0.5625
   20CHTO   H76 8290   4.179  11.075   1.880 -2.1061 -1.9894 -0.6370
   20CHTO   C43 8291   4.331  11.263   1.744 -0.2028 -0.4658 -0.1789
   20CHTO   H85 8292   4.383  11.180   1.792  0.8870  0.2038 -0.1826
   20CHTO   O29 8293   4.406  11.383   1.746  0.0830  0.4393 -0.7583
   20CHTO   C50 8294   4.352  11.493   1.669  0.0403 -0.2143 -0.8156
   20CHTO   H92 8295   4.401  11.585   1.704  0.9580 -1.3346  0.9721
   20CHTO   C54 8296   4.376  11.486   1.522  0.2450  0.1826  0.5438
   20CHTO   O36 8297   4.505  11.457   1.491  0.3903 -0.5771  0.0623
   20CHTO   H72 8298   4.492  11.399   1.418  2.5723  1.2394 -1.8520
   20CHTO   O27 8299   4.318  11.212   1.612  0.7158 -0.3402 -0.3733
   20CHTO   C37 8300   4.267  11.100   1.528  0.3578 -0.0702 -0.1528
   20CHTO   H79 8301   4.249  11.007   1.585  4.1944 -0.2408  0.9444
   20CHTO   C38 8302   4.140  11.146   1.435  0.0960 -0.7923  0.0993
   20CHTO   H80 8303   4.173  11.240   1.390  0.1311 -0.8840 -0.0675
   20CHTO   O31 8304   4.022  11.151   1.512 -0.9070 -0.0451  0.1331
   20CHTO   H68 8305   3.987  11.238   1.515 -0.9962 -0.1119  1.1642
   20CHTO   C39 8306   4.120  11.040   1.323 -0.1101  0.0064 -0.3002
   20CHTO   H81 8307   4.064  10.963   1.376  0.1224 -0.7435 -1.1253
   20CHTO    N7 8308   4.018  11.076   1.218 -0.1172 -0.1800 -0.2907
   20CHTO   H73 8309   4.037  11.032   1.122 -1.4686  0.9394 -1.0938
   20CHTO   H74 8310   3.918  11.066   1.258 -0.5705 -0.2092 -1.4208
   20CHTO   C40 8311   4.252  10.981   1.256  0.2101  0.4095  0.0012
   20CHTO   H82 8312   4.290  11.046   1.177  1.4080 -1.2760 -0.8397
   20CHTO   O26 8313   4.346  10.957   1.356 -0.4454  0.5704 -0.2597
   20CHTO   C41 8314   4.384  11.074   1.432 -0.3169  0.1974 -0.2033
   20CHTO   H83 8315   4.394  11.159   1.363  2.1717 -1.3774 -1.8398
   20CHTO   C52 8316   4.520  11.053   1.499  0.1291  0.1055 -0.5392
   20CHTO   O35 8317   4.591  11.150   1.536 -0.2704 -0.4892  0.4277
   20CHTO   H71 8318   4.674  11.109   1.549 -1.1454 -2.0518  1.3891
   20CHTO   O28 8319   4.223  10.851   1.198 -0.2358  0.4913 -0.2285
   20CHTO   C42 8320   4.315  10.792   1.104 -0.2375 -0.1548  0.8114
   20CHTO   H84 8321   4.255  10.713   1.058 -0.2218  0.5051 -0.3747
   20CHTO   C44 8322   4.436  10.707   1.161  0.1920  0.0349 -0.4224
   20CHTO   H86 8323   4.508  10.771   1.211 -0.1556 -0.0538  0.2011
   20CHTO   O32 8324   4.370  10.615   1.258  0.8220 -0.4053 -0.1315
   20CHTO   H69 8325   4.361  10.654   1.343 -0.6780  0.1098 -0.5161
   20CHTO   C48 8326   4.511  10.622   1.046 -0.7327  0.3205  0.1864
   20CHTO   H90 8327   4.439  10.548   1.012 -0.3005 -1.0428  2.1519
   20CHTO    N9 8328   4.636  10.544   1.087  0.4579  0.1986  0.5825
   20CHTO   H77 8329   4.619  10.438   1.084  2.7513 -0.3132  3.2819
   20CHTO   H78 8330   4.673  10.566   1.186 -0.9571 -2.0930  1.6607
   20CHTO   C51 8331   4.559  10.722   0.932 -0.7396  0.3959  0.8539
   20CHTO   H93 8332   4.652  10.771   0.961  0.8920 -0.7892 -2.0823
   20CHTO   O30 8333   4.467  10.816   0.887 -0.0729 -0.5949  0.7496
   20CHTO   C46 8334   4.370  10.885   0.997 -0.1595 -0.5629 -0.2911
   20CHTO   H88 8335   4.433  10.956   1.050  1.1973 -2.4360  0.6380
   20CHTO   C53 8336   4.259  10.959   0.924  0.7142  0.4193  0.2689
   20CHTO   O72 8337   4.300  11.064   0.832 -0.1700 -0.2627  0.0507
   20CHTO  H199 8338   4.219  11.112   0.831  0.9942  1.8689  2.4708
   20CHTO   O22 8339   4.576  10.648   0.807 -0.1379  0.3271  0.3814
   20CHTO   C31 8340   4.654  10.687   0.691  0.5348  0.2516  0.0164
   20CHTO   H59 8341   4.621  10.624   0.606  0.8445  2.5068 -1.8286
   20CHTO   C29 8342   4.620  10.827   0.639  0.1788 -0.7948 -0.2153
   20CHTO   H57 8343   4.646  10.897   0.719  0.9705 -1.3380  0.0109
   20CHTO   O21 8344   4.482  10.853   0.608 -0.4819  0.1139  0.1394
   20CHTO   H37 8345   4.473  10.943   0.632  1.7449 -0.0332  1.6586
   20CHTO   C27 8346   4.705  10.876   0.512 -0.2987  0.6114  0.6338
   20CHTO   H55 8347   4.674  10.813   0.427 -0.5038  1.1326  0.3215
   20CHTO    N5 8348   4.689  11.025   0.472 -0.0271  0.1998  0.0895
   20CHTO   H43 8349   4.621  11.034   0.389 -0.1196 -0.1113  0.1301
   20CHTO   H44 8350   4.660  11.083   0.558 -3.4394 -0.0257 -0.8209
   20CHTO   C25 8351   4.855  10.843   0.545  0.7023 -0.5125  0.0654
   20CHTO   H53 8352   4.887  10.907   0.628 -1.4002 -0.6462  1.0332
   20CHTO   O17 8353   4.876  10.698   0.593  0.2740  0.4434 -0.1072
   20CHTO   C32 8354   4.803  10.661   0.708 -0.3426  0.9135  0.0404
   20CHTO   H60 8355   4.841  10.726   0.787 -1.4548  0.3883  1.0338
   20CHTO   C36 8356   4.821  10.509   0.740  0.3539  0.0813 -0.2831
   20CHTO   O25 8357   4.964  10.464   0.747  0.2231  0.0004 -0.7483
   20CHTO   H40 8358   4.968  10.420   0.830 -1.5381  0.3890 -0.4263
   20CHTO   O15 8359   4.938  10.850   0.424 -0.0725  0.5783  0.5216
   20CHTO   C19 8360   5.079  10.885   0.415  0.4326 -0.0974 -0.8246
   20CHTO   H47 8361   5.080  10.884   0.305  1.3222 -1.4673 -0.8232
   20CHTO   C20 8362   5.122  11.018   0.483 -0.4484  0.4870  0.0574
   20CHTO   H48 8363   5.113  11.011   0.593 -1.2231 -1.8958 -0.1140
   20CHTO   O19 8364   5.042  11.122   0.425  0.0521  0.3831  0.2857
   20CHTO   H35 8365   4.998  11.179   0.484 -3.7227 -0.0747 -1.9638
   20CHTO   C21 8366   5.273  11.036   0.458 -0.2842  0.0817  0.6393
   20CHTO   H49 8367   5.287  11.041   0.350 -0.4914 -1.9849  0.4969
   20CHTO    N4 8368   5.326  11.166   0.518 -0.2109  0.1716  0.7801
   20CHTO   H41 8369   5.276  11.250   0.472 -0.5620  0.2035  1.2098
   20CHTO   H42 8370   5.352  11.181   0.622  0.6721 -1.2542  0.7764
   20CHTO   C22 8371   5.349  10.913   0.507  0.2112 -1.1182 -0.3542
   20CHTO   H50 8372   5.327  10.895   0.612  0.0534  0.9040 -0.0239
   20CHTO   O14 8373   5.306  10.806   0.433  0.1130  0.6955  0.2366
   20CHTO   C23 8374   5.169  10.770   0.454  0.2143 -0.3961  0.7745
   20CHTO   H51 8375   5.154  10.739   0.559 -0.3388 -0.7730  0.5853
   20CHTO   C34 8376   5.137  10.653   0.361 -0.2870 -0.5275  0.6094
   20CHTO   O23 8377   5.201  10.531   0.398 -0.0469 -0.2455  0.3278
   20CHTO   H38 8378   5.169  10.458   0.349 -0.0726  0.0588 -0.1024
   20CHTO   O16 8379   5.479  10.926   0.469  0.3366  0.2098 -0.0543
   20CHTO   C24 8380   5.586  10.827   0.555 -1.0003  0.7541  0.0966
   20CHTO   H52 8381   5.535  10.754   0.619 -1.3929 -1.5632 -2.7396
   20CHTO   C26 8382   5.690  10.913   0.630  0.8122  0.9552  0.0907
   20CHTO   H54 8383   5.730  10.982   0.553  0.1753  0.7705 -0.4109
   20CHTO   O20 8384   5.619  10.988   0.728  0.5732  0.6182 -0.0253
   20CHTO   H36 8385   5.676  11.057   0.757 -0.3510  1.2147  0.3756
   20CHTO   C30 8386   5.810  10.831   0.694  0.0412 -0.0408  0.3220
   20CHTO   H58 8387   5.771  10.758   0.766  1.9174 -0.1558  1.2447
   20CHTO    N6 8388   5.897  10.928   0.765  0.8266  0.1105 -0.0961
   20CHTO   H45 8389   5.962  10.864   0.821  0.6628 -2.5667 -2.8276
   20CHTO   H46 8390   5.958  10.987   0.698 -0.2175  1.3885  0.0394
   20CHTO   C33 8391   5.879  10.743   0.586  0.4839 -0.6547 -0.2289
   20CHTO   H61 8392   5.933  10.798   0.508  0.5368 -1.4528 -0.7577
   20CHTO   O18 8393   5.778  10.668   0.523 -0.5991  0.6118  0.2905
   20CHTO   C28 8394   5.669  10.741   0.452  0.1978 -0.2674 -0.5871
   20CHTO   H56 8395   5.722  10.814   0.392  1.3354 -0.4315  0.2188
   20CHTO   C35 8396   5.597  10.627   0.375 -0.3684 -0.1312  0.1530
   20CHTO   O24 8397   5.703  10.580   0.289  0.0859  0.0740  0.0195
   20CHTO   H39 8398   5.780  10.540   0.326 -0.8500 -2.4982 -0.7259
   20CHTO    O9 8399   5.983  10.661   0.646  0.4453 -0.0534  0.6640
   20CHTO   C13 8400   6.116  10.642   0.556 -0.1082 -0.0702  0.3250
   20CHTO   H26 8401   6.158  10.741   0.529  2.1319 -1.3555 -1.0862
   20CHTO   C11 8402   6.089  10.551   0.421  0.4406  0.2390 -0.1950
   20CHTO   H24 8403   6.072  10.617   0.335  0.8015 -0.7665 -1.0415
   20CHTO    O8 8404   5.964  10.487   0.437 -0.6478  0.0387 -0.2749
   20CHTO    H3 8405   5.949  10.425   0.368  1.1379 -1.0029  0.2678
   20CHTO    C9 8406   6.209  10.462   0.387  0.2462  0.0320  0.2380
   20CHTO   H22 8407   6.291  10.534   0.368  0.0904  0.0684 -0.3177
   20CHTO    N2 8408   6.206  10.391   0.253  0.2246 -0.0529  0.1263
   20CHTO   H10 8409   6.302  10.344   0.235  0.7061  0.7495  0.5469
   20CHTO   H11 8410   6.128  10.317   0.257  1.6613 -1.5892  0.5551
   20CHTO    C7 8411   6.234  10.374   0.511 -0.2084 -0.0684  0.3233
   20CHTO   H20 8412   6.341  10.342   0.509 -0.5039 -1.3452  2.9429
   20CHTO    O4 8413   6.205  10.436   0.635 -0.1722 -0.1405  0.2801
   20CHTO   C14 8414   6.232  10.573   0.636 -0.1483 -0.1384 -0.5159
   20CHTO   H27 8415   6.331  10.597   0.591  0.8095 -1.9298  0.5583
   20CHTO   C18 8416   6.234  10.625   0.778  0.3961  0.5394 -0.5802
   20CHTO   O13 8417   6.276  10.763   0.791 -0.3327 -0.4212  0.1045
   20CHTO    H7 8418   6.217  10.814   0.738  1.2065 -0.6333 -1.8706
   20CHTO    O2 8419   6.140  10.232   0.492  0.1379  0.9846  0.0368
   20CHTO    C1 8420   6.135  10.150   0.602  0.0885 -0.7782 -0.9546
   20CHTO   H14 8421   6.160  10.208   0.693 -1.0067  0.6809 -1.5601
   20CHTO    C2 8422   6.230  10.027   0.611 -1.0483  0.4594 -0.4162
   20CHTO   H15 8423   6.225   9.973   0.516  0.5282  0.6777 -0.6371
   20CHTO    O6 8424   6.362  10.075   0.623  0.1954  0.1139 -0.0494
   20CHTO    H1 8425   6.400  10.109   0.544  0.3174 -0.2030 -0.1279
   20CHTO    C3 8426   6.185   9.937   0.736  0.2186 -0.0830 -0.2656
   20CHTO   H16 8427   6.194   9.998   0.827 -0.2965  1.6306 -1.3409
   20CHTO    N1 8428   6.265   9.816   0.750 -0.1119  0.0681 -0.2134
   20CHTO    H8 8429   6.246   9.751   0.834 -1.2757 -0.1996 -0.6770
   20CHTO    H9 8430   6.372   9.821   0.733  0.1243 -1.4276  0.7119
   20CHTO    C4 8431   6.033   9.899   0.734 -0.0427 -0.0143 -0.1329
   20CHTO   H17 8432   6.013   9.830   0.652 -2.9602 -0.6234  1.0190
   20CHTO    O1 8433   5.958  10.013   0.713 -0.7796  0.1510 -0.1869
   20CHTO    C5 8434   5.991  10.113   0.614  0.6003 -0.3851  0.9788
   20CHTO   H18 8435   5.972  10.064   0.519  1.7351 -1.8910  1.5036
   20CHTO   C16 8436   5.893  10.232   0.623 -0.1968 -0.6460  0.9115
   20CHTO   O11 8437   5.898  10.289   0.755 -0.1363  0.4020  0.9765
   20CHTO    H5 8438   5.830  10.353   0.762  0.0551  0.9668 -1.7645
   20CHTO    O3 8439   5.995   9.854   0.860  0.0871  0.2624  0.3447
   20CHTO    C6 8440   5.881   9.760   0.844  0.0213 -0.2523 -0.2885
   20CHTO   H19 8441   5.828   9.758   0.748 -1.1720 -0.1505  0.3611
   20CHTO    C8 8442   5.934   9.618   0.883 -0.5506 -0.6272  1.1479
   20CHTO   H21 8443   5.988   9.621   0.978 -0.0349 -0.3992  0.8549
   20CHTO    O7 8444   6.030   9.590   0.779  0.3363 -0.0221 -0.3343
   20CHTO    H2 8445   6.001   9.583   0.690  3.4907  2.7894 -1.6865
   20CHTO   C12 8446   5.815   9.522   0.893 -0.3386  0.7307 -0.2109
   20CHTO   H25 8447   5.763   9.513   0.795 -0.4046  0.8013 -0.1823
   20CHTO    N3 8448   5.865   9.379   0.917  0.1529 -0.3785  0.5802
   20CHTO   H12 8449   5.798   9.311   0.866  0.1333 -0.1165  0.2555
   20CHTO   H13 8450   5.862   9.372   1.024  0.6293 -0.1676  0.6079
   20CHTO   C15 8451   5.711   9.573   0.997 -0.5205 -0.1707 -0.1326
   20CHTO   H28 8452   5.766   9.577   1.091  0.5057  1.1190 -0.7668
   20CHTO   O10 8453   5.581   9.495   1.000  0.1917  0.4681  0.1131
   20CHTO    H4 8454   5.555   9.466   1.086 -2.5617  0.3830 -0.7159
   20CHTO    O5 8455   5.667   9.702   0.959 -0.2599 -0.5235  0.5681
   20CHTO   C10 8456   5.776   9.802   0.951  0.7883 -0.4692 -0.1293
   20CHTO   H23 8457   5.813   9.803   1.054  1.3390 -1.3196 -0.3181
   20CHTO   C17 8458   5.711   9.939   0.919 -0.0505  0.2912 -0.2899
   20CHTO   O12 8459   5.809  10.041   0.930 -0.5863 -0.0685 -0.5022
   20CHTO    H6 8460   5.868  10.020   0.860 -0.0624 -1.0086  0.2030
   21GLOH   H03 8461   3.261   8.040   0.572 -0.9523 -0.4939  0.5810
   21GLOH    O1 8462   3.201   8.090   0.514 -0.1275  0.1002  0.2366
   21GLOH    C1 8463   3.197   8.225   0.571 -0.1963 -0.4409 -0.2604
   21GLOH   H02 8464   3.126   8.239   0.652 -0.4686 -0.7277 -0.4486
   21GLOH   H08 8465   3.161   8.293   0.494 -2.4139  0.3605  1.4311
   21GLOH    C2 8466   3.329   8.261   0.644 -0.2554  0.3612 -0.0464
   21GLOH   H04 8467   3.301   8.359   0.686 -0.4635 -0.7434  2.4335
   21GLOH    O2 8468   3.357   8.179   0.758 -0.6959 -0.5324 -0.3008
   21GLOH   H05 8469   3.287   8.196   0.824 -1.2065  0.3031 -1.0472
   21GLOH    C3 8470   3.453   8.266   0.551 -0.0005 -0.3248  0.5758
   21GLOH   H06 8471   3.542   8.306   0.598  0.9949 -0.8996 -0.7907
   21GLOH   H07 8472   3.426   8.335   0.471 -2.0534  0.0540  1.5387
   21GLOH    O3 8473   3.485   8.146   0.486 -0.1299  0.0283 -0.4992
   21GLOH   H01 8474   3.552   8.104   0.544 -1.7336  0.0616  1.4380
   22GLOH   H03 8475   4.002   8.278   2.346 -1.5669  0.0292  2.1951
   22GLOH    O1 8476   3.931   8.311   2.287 -0.5868 -0.3906  0.7690
   22GLOH    C1 8477   3.940   8.453   2.280  0.7799 -0.3718  0.5302
   22GLOH   H02 8478   3.954   8.474   2.174  0.5499 -0.1234  0.5500
   22GLOH   H08 8479   4.029   8.494   2.328  0.6223  1.0317 -0.3585
   22GLOH    C2 8480   3.807   8.523   2.336 -0.1750 -0.7330  0.4411
   22GLOH   H04 8481   3.811   8.625   2.294 -0.3430 -0.4948  0.9934
   22GLOH    O2 8482   3.687   8.463   2.266  0.4549  0.4872  0.4574
   22GLOH   H05 8483   3.681   8.511   2.182  0.5174 -0.6594 -0.2158
   22GLOH    C3 8484   3.810   8.531   2.494 -0.0034  1.2125  0.5633
   22GLOH   H06 8485   3.843   8.439   2.541 -2.0624 -0.3812 -1.0329
   22GLOH   H07 8486   3.707   8.550   2.523 -0.0502  1.3177  0.3324
   22GLOH    O3 8487   3.897   8.626   2.563 -0.0050 -0.1829 -0.5703
   22GLOH   H01 8488   3.839   8.661   2.633  0.7737 -2.2832  1.1923
   23GLOH   H03 8489   3.072   9.801   2.724 -0.6890  0.4774  0.1362
   23GLOH    O1 8490   3.101   9.802   2.818  0.0095 -0.1754 -0.0653
   23GLOH    C1 8491   3.122   9.675   2.880 -0.4804  0.7828 -0.4687
   23GLOH   H02 8492   3.229   9.652   2.883 -0.5205  0.5958 -0.5084
   23GLOH   H08 8493   3.060   9.599   2.834 -0.9977 -0.1168  1.6728
   23GLOH    C2 8494   3.085   9.696   3.028 -0.3707  0.5415  0.7144
   23GLOH   H04 8495   2.976   9.702   3.043 -0.7624 -1.9011 -0.8823
   23GLOH    O2 8496   3.122   9.569   3.091  0.1734  0.6412 -0.1045
   23GLOH   H05 8497   3.054   9.539   3.153  3.0415 -4.1616  0.9310
   23GLOH    C3 8498   3.149   9.822   3.086 -0.1045  0.0788  1.2851
   23GLOH   H06 8499   3.255   9.795   3.080 -0.1574  0.5039 -2.1410
   23GLOH   H07 8500   3.117   9.823   3.190 -0.7713  2.0659  1.0803
   23GLOH    O3 8501   3.107   9.945   3.020  0.2623  0.2820  0.2431
   23GLOH   H01 8502   3.097   9.921   2.926 -1.8209  1.3754  0.1444
   24GLOH   H03 8503   2.984   9.150   0.013 -1.0767 -1.0954  1.9585
   24GLOH    O1 8504   2.907   9.198  -0.023  0.0139 -0.4237  0.4528
   24GLOH    C1 8505   2.860   9.303   0.055 -0.2097 -0.2910 -0.6914
   24GLOH   H02 8506   2.760   9.334   0.027 -0.2547 -1.8595 -2.4202
   24GLOH   H08 8507   2.922   9.393   0.055  0.0601 -0.4445  2.3143
   24GLOH    C2 8508   2.843   9.252   0.203 -0.1724  0.9248 -0.1457
   24GLOH   H04 8509   2.804   9.149   0.203  0.4109  0.6101  3.6926
   24GLOH    O2 8510   2.970   9.239   0.262  0.4633 -0.0224 -0.0060
   24GLOH   H05 8511   3.030   9.200   0.196  1.7686  0.3270  0.9618
   24GLOH    C3 8512   2.722   9.327   0.268  0.2076  0.1182 -0.3274
   24GLOH   H06 8513   2.710   9.289   0.370 -0.8956 -0.8196 -0.7919
   24GLOH   H07 8514   2.634   9.296   0.211 -2.5460  1.8016  2.8386
   24GLOH    O3 8515   2.734   9.470   0.263  0.0520  0.1607  0.2122
   24GLOH   H01 8516   2.827   9.490   0.284 -0.3065  0.6932  1.3853
   25GLOH   H03 8517   3.948   8.350   0.548 -0.6524  0.6544 -0.4204
   25GLOH    O1 8518   3.948   8.323   0.455  0.0226  0.4733 -0.3726
   25GLOH    C1 8519   3.814   8.357   0.399 -0.0171 -0.7754  0.1500
   25GLOH   H02 8520   3.815   8.454   0.349 -1.1099 -0.7314  0.1895
   25GLOH   H08 8521   3.744   8.369   0.483  1.5192  0.8797  1.2273
   25GLOH    C2 8522   3.765   8.261   0.293  0.7580  0.6477 -0.7720
   25GLOH   H04 8523   3.842   8.254   0.215 -0.3302 -2.4061 -1.6613
   25GLOH    O2 8524   3.729   8.129   0.338  0.0863  0.6396 -0.4020
   25GLOH   H05 8525   3.743   8.126   0.434 -1.0814  3.3724 -0.1265
   25GLOH    C3 8526   3.635   8.316   0.230 -0.0277 -0.3434  0.3841
   25GLOH   H06 8527   3.558   8.332   0.306  0.5772  1.0010  0.7337
   25GLOH   H07 8528   3.598   8.244   0.157 -0.7286 -0.5474  0.9286
   25GLOH    O3 8529   3.661   8.443   0.169 -0.3913  0.2092 -0.1747
   25GLOH   H01 8530   3.690   8.432   0.077  1.7814  1.0258  0.3972
   26GLOH   H03 8531   4.724   9.443   0.494  2.1916 -1.1342 -1.0847
   26GLOH    O1 8532   4.665   9.365   0.487  0.4385  0.0809 -0.2595
   26GLOH    C1 8533   4.589   9.373   0.611 -0.4537  0.5268  0.5012
   26GLOH   H02 8534   4.545   9.470   0.635 -1.0986  0.2144  0.6185
   26GLOH   H08 8535   4.657   9.350   0.693 -1.3168  1.9713  1.6670
   26GLOH    C2 8536   4.476   9.263   0.611  0.3193 -0.6547  0.2742
   26GLOH   H04 8537   4.519   9.162   0.606 -0.5283 -1.2944  4.3782
   26GLOH    O2 8538   4.416   9.282   0.739 -0.3900 -0.6813  0.1737
   26GLOH   H05 8539   4.330   9.236   0.740 -1.2659  0.8586 -0.7930
   26GLOH    C3 8540   4.370   9.291   0.508  0.3232  0.4097  0.4723
   26GLOH   H06 8541   4.411   9.320   0.411  1.8227  0.9702  1.2696
   26GLOH   H07 8542   4.304   9.377   0.519 -3.4878 -2.1507 -1.1939
   26GLOH    O3 8543   4.274   9.187   0.493 -0.8076  0.3056  0.1534
   26GLOH   H01 8544   4.265   9.171   0.397  1.6500 -0.4351  0.0077
   27GLOH   H03 8545   3.950   8.268   0.766 -1.1224  1.1088  0.9643
   27GLOH    O1 8546   3.969   8.340   0.703 -0.2596  0.2203  0.1886
   27GLOH    C1 8547   3.878   8.444   0.719 -0.2786 -0.1787  0.0677
   27GLOH   H02 8548   3.780   8.428   0.673  0.2048 -1.6410 -0.4708
   27GLOH   H08 8549   3.913   8.537   0.673 -2.1550  0.0304 -1.0065
   27GLOH    C2 8550   3.850   8.486   0.865 -0.0606 -0.1044 -0.5708
   27GLOH   H04 8551   3.775   8.566   0.870  0.8857  0.8112 -0.8352
   27GLOH    O2 8552   3.810   8.371   0.941 -0.4737  0.1614  0.0013
   27GLOH   H05 8553   3.718   8.350   0.919 -0.8744  1.0852  0.7475
   27GLOH    C3 8554   3.976   8.555   0.920  0.4183  0.2414  0.5435
   27GLOH   H06 8555   4.061   8.488   0.925  0.2989  0.2230  3.7143
   27GLOH   H07 8556   3.958   8.570   1.027 -0.7477  0.7641  0.2837
   27GLOH    O3 8557   4.010   8.682   0.857 -0.3875 -0.8909  0.6197
   27GLOH   H01 8558   4.084   8.662   0.798 -0.5295  0.3378  0.0248
   28GLOH   H03 8559   3.963   0.352   1.605  0.5399  1.8640 -2.1904
   28GLOH    O1 8560   3.920   0.419   1.660  0.5359  0.0227  0.1229
   28GLOH    C1 8561   3.930   0.388   1.801  0.3224  0.2633 -0.2264
   28GLOH   H02 8562   3.937   0.478   1.862  0.1717  0.8011 -0.9944
   28GLOH   H08 8563   4.010   0.316   1.817 -1.1588 -1.3172  0.3055
   28GLOH    C2 8564   3.798   0.329   1.857  0.6986 -0.3105  0.0685
   28GLOH   H04 8565   3.782   0.225   1.825 -1.9232  0.7647 -2.3523
   28GLOH    O2 8566   3.805   0.323   2.000 -0.1694  0.9174  0.1163
   28GLOH   H05 8567   3.864   0.249   2.023 -0.3018  0.6500 -0.3927
   28GLOH    C3 8568   3.665   0.402   1.812  0.9456 -1.1133  0.1585
   28GLOH   H06 8569   3.659   0.501   1.856  0.5770 -1.0057 -0.1395
   28GLOH   H07 8570   3.587   0.335   1.848  0.3996 -0.8478 -0.5372
   28GLOH    O3 8571   3.670   0.414   1.671  0.2277 -0.0703  0.3835
   28GLOH   H01 8572   3.766   0.430   1.661 -0.2883  2.0733 -1.5786
   29GLOH   H03 8573   3.655   0.893   0.261 -1.2801 -1.5547 -2.9179
   29GLOH    O1 8574   3.731   0.833   0.272  0.0274  0.4862  0.1434
   29GLOH    C1 8575   3.739   0.750   0.154 -0.0619  0.0661 -0.0380
   29GLOH   H02 8576   3.639   0.723   0.120 -0.2108 -0.3653  0.7334
   29GLOH   H08 8577   3.781   0.651   0.165  2.5748  1.1231 -0.2888
   29GLOH    C2 8578   3.835   0.829   0.060  0.3780 -0.4358  0.9326
   29GLOH   H04 8579   3.845   0.781  -0.038  0.5141 -1.4843  1.4461
   29GLOH    O2 8580   3.795   0.971   0.043  0.1042 -0.4187  0.8742
   29GLOH   H05 8581   3.698   0.978   0.033  0.1117 -2.9321 -1.5942
   29GLOH    C3 8582   3.981   0.822   0.113  0.4894  0.4629 -0.8376
   29GLOH   H06 8583   3.996   0.887   0.200  1.9688 -1.9248  0.7458
   29GLOH   H07 8584   4.049   0.859   0.036  0.7683  1.6492 -0.0552
   29GLOH    O3 8585   4.027   0.693   0.118  0.3978  0.1673 -0.8399
   29GLOH   H01 8586   4.104   0.678   0.060 -0.6956 -2.7456 -1.6034
   30GLOH   H03 8587   3.551   9.143   0.744  0.1337 -0.1711  0.4673
   30GLOH    O1 8588   3.575   9.062   0.695 -0.4488 -0.4207  0.5955
   30GLOH    C1 8589   3.715   9.070   0.682  0.4772  0.4409  0.2047
   30GLOH   H02 8590   3.769   9.089   0.775 -0.5401 -0.3006  0.9613
   30GLOH   H08 8591   3.748   9.155   0.621  0.2612 -0.5660 -1.3250
   30GLOH    C2 8592   3.770   8.946   0.616 -0.8786  0.5570  0.0669
   30GLOH   H04 8593   3.727   8.857   0.664 -2.1678 -0.7502 -3.4082
   30GLOH    O2 8594   3.735   8.936   0.477 -0.5698 -0.2662 -0.5135
   30GLOH   H05 8595   3.788   8.865   0.436  2.8253  0.3293  2.5596
   30GLOH    C3 8596   3.927   8.928   0.630 -0.2436  0.2679 -0.3675
   30GLOH   H06 8597   3.978   9.011   0.581  0.9503 -0.7225 -0.8356
   30GLOH   H07 8598   3.961   8.834   0.588  2.3388  0.5419  0.9888
   30GLOH    O3 8599   3.973   8.922   0.768  0.0995 -0.1162  0.0473
   30GLOH   H01 8600   3.983   8.829   0.793 -1.3104  0.2502  2.0915
   31GLOH   H03 8601   3.506   0.134   0.653 -1.1409 -0.3988  0.7182
   31GLOH    O1 8602   3.526   0.051   0.606 -0.0598  0.0078  0.4374
   31GLOH    C1 8603   3.536   0.072   0.462 -0.1450  0.1837  0.0256
   31GLOH   H02 8604   3.631   0.120   0.438 -0.0609 -0.7224 -1.5045
   31GLOH   H08 8605   3.456   0.132   0.420  0.4807  0.2563 -1.0743
   31GLOH    C2 8606   3.533  -0.066   0.391  0.0203  0.2234  0.5350
   31GLOH   H04 8607   3.615  -0.129   0.428 -1.7080 -1.7634  1.0844
   31GLOH    O2 8608   3.403  -0.128   0.414  0.1525 -0.3037 -0.2462
   31GLOH   H05 8609   3.406  -0.220   0.384 -0.9132 -0.6490  0.6505
   31GLOH    C3 8610   3.562  -0.068   0.239 -0.5769 -0.4606 -0.2662
   31GLOH   H06 8611   3.490  -0.002   0.191 -0.2324  0.5686  0.6290
   31GLOH   H07 8612   3.552  -0.172   0.206  2.4890 -0.0560 -2.6606
   31GLOH    O3 8613   3.699  -0.026   0.218 -0.3002  0.5650 -0.4189
   31GLOH   H01 8614   3.730  -0.049   0.128 -0.4472  3.4814 -1.2486
   32GLOH   H03 8615   2.961   9.971   0.472  0.0880 -0.8053 -1.3750
   32GLOH    O1 8616   2.901   9.932   0.538  0.2563  0.4853 -0.4241
   32GLOH    C1 8617   2.863   9.806   0.490 -0.1454  0.0271  0.1210
   32GLOH   H02 8618   2.894   9.778   0.390  3.2596  0.5792  0.9391
   32GLOH   H08 8619   2.754   9.804   0.483 -0.3253  1.5434  2.0215
   32GLOH    C2 8620   2.912   9.696   0.587  0.5790 -0.1933 -0.1065
   32GLOH   H04 8621   3.021   9.694   0.601  0.2934 -1.6740  2.1988
   32GLOH    O2 8622   2.847   9.691   0.715  0.2002  0.9342  0.5960
   32GLOH   H05 8623   2.863   9.607   0.760 -2.5443  0.0425 -0.0305
   32GLOH    C3 8624   2.880   9.566   0.517  0.1279  0.2374 -0.8898
   32GLOH   H06 8625   2.774   9.560   0.494 -0.6477  4.1775  1.2716
   32GLOH   H07 8626   2.886   9.482   0.586  0.9823  0.1169 -1.1044
   32GLOH    O3 8627   2.960   9.534   0.404  0.5531 -0.1509 -0.3747
   32GLOH   H01 8628   3.041   9.496   0.442  1.7497  1.6551 -1.0458
   33GLOH   H03 8629   4.116   9.437   2.156 -1.2973 -1.0033  1.0790
   33GLOH    O1 8630   4.036   9.470   2.110 -0.2490  0.0947  0.0351
   33GLOH    C1 8631   3.992   9.597   2.166  0.1692 -0.0099 -0.5193
   33GLOH   H02 8632   4.075   9.667   2.180 -1.0045  1.1956  0.5489
   33GLOH   H08 8633   3.938   9.574   2.258  0.9906 -2.6842 -0.6603
   33GLOH    C2 8634   3.899   9.663   2.066 -0.3687 -0.1393 -0.4446
   33GLOH   H04 8635   3.813   9.599   2.042  1.1664 -1.0774 -3.6186
   33GLOH    O2 8636   3.857   9.790   2.111  0.7842 -0.3899 -0.5598
   33GLOH   H05 8637   3.822   9.843   2.038  2.0888  0.0269 -0.9104
   33GLOH    C3 8638   3.967   9.680   1.932 -0.3809  1.4722 -0.0531
   33GLOH   H06 8639   4.059   9.737   1.941 -0.2382  1.7311 -2.6525
   33GLOH   H07 8640   3.895   9.734   1.869 -0.5431  2.7291  1.1893
   33GLOH    O3 8641   4.008   9.554   1.871 -0.0908  0.0794 -0.4753
   33GLOH   H01 8642   4.066   9.510   1.937 -1.1100  1.4692  1.3726
   34GLOH   H03 8643   4.261   9.097   0.173  0.2385  1.5728 -1.6268
   34GLOH    O1 8644   4.247   9.162   0.243 -0.2556  0.0242 -0.2540
   34GLOH    C1 8645   4.159   9.265   0.190 -0.4663  0.1140 -0.3525
   34GLOH   H02 8646   4.179   9.284   0.085  0.7538 -3.2029 -0.7660
   34GLOH   H08 8647   4.178   9.360   0.241 -0.1903 -0.3153  0.3549
   34GLOH    C2 8648   4.010   9.230   0.207 -0.5915  0.8259  0.3488
   34GLOH   H04 8649   3.950   9.321   0.195 -2.6664 -0.5068  0.1419
   34GLOH    O2 8650   3.969   9.133   0.105  0.1639  0.3079 -0.4426
   34GLOH   H05 8651   3.880   9.147   0.069  1.1890 -0.4919 -3.4482
   34GLOH    C3 8652   3.982   9.175   0.355 -0.3675  0.5603 -0.9427
   34GLOH   H06 8653   4.034   9.083   0.382 -1.3085  0.6042  1.1408
   34GLOH   H07 8654   3.876   9.152   0.355 -0.6424  1.8243 -0.6180
   34GLOH    O3 8655   4.022   9.278   0.451  0.2400 -0.2487  0.8782
   34GLOH   H01 8656   4.110   9.265   0.492  1.0531 -0.5493 -0.9287
   35GLOH   H03 8657   4.084   0.890   2.508 -2.8017  0.3087  1.9056
   35GLOH    O1 8658   4.080   0.793   2.501  0.5544  0.2370 -0.1195
   35GLOH    C1 8659   4.075   0.731   2.633 -1.0296  0.5236 -0.1333
   35GLOH   H02 8660   4.013   0.642   2.623 -1.6679  1.0933 -1.3136
   35GLOH   H08 8661   4.026   0.784   2.714  1.2974  1.7304  0.5156
   35GLOH    C2 8662   4.211   0.692   2.698 -0.4808  0.1291 -0.4928
   35GLOH   H04 8663   4.273   0.781   2.716  0.9760 -1.2419  1.5359
   35GLOH    O2 8664   4.197   0.628   2.831  0.2496 -0.4096  0.8470
   35GLOH   H05 8665   4.284   0.600   2.864 -0.1056 -0.6297  1.5891
   35GLOH    C3 8666   4.301   0.599   2.608  0.2227 -0.6204 -0.1175
   35GLOH   H06 8667   4.400   0.582   2.649 -0.0127  1.8366  1.6023
   35GLOH   H07 8668   4.331   0.675   2.537  1.7304  2.1433  3.3230
   35GLOH    O3 8669   4.241   0.482   2.547  0.4434 -0.1229 -0.0274
   35GLOH   H01 8670   4.173   0.501   2.479 -1.0691  0.1597  1.5350
   36GLOH   H03 8671   4.064   9.578   1.702 -1.2933  2.0677  0.4309
   36GLOH    O1 8672   4.072   9.614   1.612  0.1298 -0.2112 -0.4180
   36GLOH    C1 8673   4.069   9.761   1.611  0.5759  0.6311 -0.3174
   36GLOH   H02 8674   4.162   9.799   1.653  0.0645  0.6875  0.7801
   36GLOH   H08 8675   3.988   9.814   1.662  1.6504  1.9058  0.1049
   36GLOH    C2 8676   4.074   9.807   1.461  0.7343  0.0715  0.1157
   36GLOH   H04 8677   4.000   9.755   1.398  0.6491 -1.6977  1.6222
   36GLOH    O2 8678   4.068   9.954   1.456 -0.6615  0.1086  0.1433
   36GLOH   H05 8679   4.080   9.983   1.364  0.8202 -0.2721  0.1952
   36GLOH    C3 8680   4.211   9.769   1.404  0.0204  0.3385 -0.5255
   36GLOH   H06 8681   4.213   9.660   1.410 -0.5695  0.2396 -1.9235
   36GLOH   H07 8682   4.282   9.818   1.471 -0.6101  1.7379 -0.8698
   36GLOH    O3 8683   4.220   9.821   1.272 -0.3640 -0.1581 -0.0935
   36GLOH   H01 8684   4.154   9.778   1.214  1.6463 -1.2426 -1.6687
   37GLOH   H03 8685   3.850   0.438   0.680  0.4577  0.8970  0.8111
   37GLOH    O1 8686   3.771   0.474   0.725  0.0280  0.1047  0.6998
   37GLOH    C1 8687   3.699   0.376   0.802  0.1626 -0.1915  0.1023
   37GLOH   H02 8688   3.745   0.375   0.900  0.3093  0.3599  0.0431
   37GLOH   H08 8689   3.710   0.275   0.763 -0.0225 -0.2968  0.3250
   37GLOH    C2 8690   3.547   0.413   0.826 -0.1137  0.3011 -0.5606
   37GLOH   H04 8691   3.501   0.330   0.882  1.1853  0.5418  0.9079
   37GLOH    O2 8692   3.526   0.528   0.911 -0.0056 -0.0804 -0.0394
   37GLOH   H05 8693   3.504   0.605   0.856 -0.3629  2.3949  3.4057
   37GLOH    C3 8694   3.471   0.420   0.692 -0.2677 -0.1615 -0.3975
   37GLOH   H06 8695   3.532   0.481   0.626 -2.3529 -0.5128 -2.7297
   37GLOH   H07 8696   3.375   0.468   0.715 -1.4826 -2.1265 -1.2398
   37GLOH    O3 8697   3.446   0.286   0.644 -0.5959 -0.0624  0.3099
   37GLOH   H01 8698   3.353   0.264   0.664 -1.1841 -0.1430 -2.3394
   38GLOH   H03 8699   3.484   8.025   1.871 -0.5594  0.3543 -0.5188
   38GLOH    O1 8700   3.553   7.994   1.809  0.3397  0.7044  0.2946
   38GLOH    C1 8701   3.628   8.109   1.766  0.3401 -0.3579 -0.6673
   38GLOH   H02 8702   3.702   8.126   1.844  1.2034  1.2551 -1.7991
   38GLOH   H08 8703   3.582   8.207   1.760  1.3314  0.1720  0.1132
   38GLOH    C2 8704   3.707   8.070   1.640  0.4275 -0.6048  0.1889
   38GLOH   H04 8705   3.762   8.161   1.611  0.5229 -0.3284  1.2465
   38GLOH    O2 8706   3.795   7.959   1.670  0.7824 -0.7980 -0.3125
   38GLOH   H05 8707   3.742   7.879   1.684 -0.9771  0.6615  1.7298
   38GLOH    C3 8708   3.617   8.029   1.525  0.1864  0.6548  0.0323
   38GLOH   H06 8709   3.561   7.940   1.555  0.5015  0.1823 -0.7784
   38GLOH   H07 8710   3.690   8.009   1.447 -0.3798 -1.3298 -0.0149
   38GLOH    O3 8711   3.532   8.132   1.483 -0.2277  0.5715  0.0219
   38GLOH   H01 8712   3.457   8.099   1.431  0.7763  0.3734 -1.3063
   39GLOH   H03 8713   4.261   8.414   2.114  1.4973  1.4674  0.8214
   39GLOH    O1 8714   4.310   8.438   2.033 -0.2014 -0.1973 -0.7456
   39GLOH    C1 8715   4.355   8.316   1.970  0.2895  0.4081  0.2132
   39GLOH   H02 8716   4.359   8.226   2.031 -0.8815 -0.2918 -0.7213
   39GLOH   H08 8717   4.458   8.322   1.935  0.0812  1.6873 -0.2140
   39GLOH    C2 8718   4.261   8.276   1.852  0.3085 -0.6390 -0.1114
   39GLOH   H04 8719   4.279   8.349   1.772 -1.0221  0.7193  0.7897
   39GLOH    O2 8720   4.313   8.146   1.806 -0.3898 -0.0318  0.0796
   39GLOH   H05 8721   4.292   8.124   1.714 -1.2205  1.7483 -0.1723
   39GLOH    C3 8722   4.115   8.282   1.900 -0.6974  0.3455 -0.0469
   39GLOH   H06 8723   4.051   8.261   1.814  0.8779  1.8824 -1.6397
   39GLOH   H07 8724   4.101   8.387   1.928  1.2985  0.7455 -0.4972
   39GLOH    O3 8725   4.090   8.191   2.013  0.3242 -0.3150 -0.2265
   39GLOH   H01 8726   4.153   8.119   1.997  0.9376 -0.0986  1.1539
   40GLOH   H03 8727   2.869   8.632   2.612 -2.2968  1.3750 -1.1232
   40GLOH    O1 8728   2.865   8.565   2.541  0.2361  0.6045 -0.6075
   40GLOH    C1 8729   2.901   8.440   2.599 -0.0009 -0.1989  0.0991
   40GLOH   H02 8730   2.862   8.356   2.541 -2.6295 -1.3150  3.3481
   40GLOH   H08 8731   2.841   8.434   2.689  0.5026  2.3613  0.6470
   40GLOH    C2 8732   3.048   8.418   2.633 -0.1354  1.0698 -0.5914
   40GLOH   H04 8733   3.106   8.470   2.555 -0.2344  0.9705 -0.7317
   40GLOH    O2 8734   3.092   8.488   2.757  0.4572  0.0821  0.0444
   40GLOH   H05 8735   3.119   8.577   2.729  1.1612  0.2340  1.1765
   40GLOH    C3 8736   3.078   8.264   2.633 -0.1450  0.4431 -0.8627
   40GLOH   H06 8737   3.044   8.209   2.544 -4.1252 -2.0670  2.0184
   40GLOH   H07 8738   3.018   8.218   2.712 -0.8502 -0.0794 -1.6760
   40GLOH    O3 8739   3.218   8.230   2.651 -0.2351 -0.4542 -0.8428
   40GLOH   H01 8740   3.278   8.298   2.688 -0.6673 -1.0488  0.9625
   41GLOH   H03 8741   3.265   0.689   1.851  1.6433  1.7290 -0.6956
   41GLOH    O1 8742   3.273   0.618   1.785  0.5526  0.4558  0.5097
   41GLOH    C1 8743   3.303   0.693   1.662 -0.0106  0.5283  0.1000
   41GLOH   H02 8744   3.398   0.746   1.670  0.4606  0.1498 -2.4382
   41GLOH   H08 8745   3.220   0.762   1.648  0.7732  1.6089  0.6964
   41GLOH    C2 8746   3.301   0.598   1.541  0.1170 -0.5208 -0.5084
   41GLOH   H04 8747   3.194   0.584   1.518  0.4993 -0.0220 -2.7408
   41GLOH    O2 8748   3.355   0.670   1.432 -0.5156  0.1095 -0.9337
   41GLOH   H05 8749   3.289   0.668   1.360  0.0514 -1.9963 -1.4305
   41GLOH    C3 8750   3.365   0.467   1.560  0.0550  1.4859 -0.6700
   41GLOH   H06 8751   3.474   0.475   1.561  0.0550  1.4786  0.6812
   41GLOH   H07 8752   3.336   0.408   1.473  0.2346 -0.0422  0.2857
   41GLOH    O3 8753   3.304   0.397   1.671 -0.7524  0.3245  0.3021
   41GLOH   H01 8754   3.291   0.469   1.736  2.2849  1.4801 -0.2776
   42GLOH   H03 8755   3.935   9.968   2.309  0.6931 -1.0100 -0.8912
   42GLOH    O1 8756   3.913  10.044   2.252  0.0004 -0.4700  0.0759
   42GLOH    C1 8757   3.889  10.161   2.330 -0.3132 -0.0296  0.3155
   42GLOH   H02 8758   3.817  10.134   2.407  0.0609 -0.3878  0.5482
   42GLOH   H08 8759   3.856  10.247   2.273 -0.1098  0.1131  0.4115
   42GLOH    C2 8760   4.017  10.194   2.410  0.6028  0.4634  1.1686
   42GLOH   H04 8761   4.053  10.092   2.430 -2.1030 -1.2734 -2.3043
   42GLOH    O2 8762   4.106  10.262   2.330  0.0552 -0.3384  1.2286
   42GLOH   H05 8763   4.088  10.358   2.331 -0.3572 -0.3129 -2.5245
   42GLOH    C3 8764   3.989  10.276   2.534 -0.0566 -0.1834 -0.1506
   42GLOH   H06 8765   3.941  10.369   2.505  1.0487  0.9028  1.4025
   42GLOH   H07 8766   4.077  10.308   2.590 -1.1226  1.0819  0.8269
   42GLOH    O3 8767   3.891  10.210   2.615 -0.4655  0.5414  0.2854
   42GLOH   H01 8768   3.855  10.263   2.688 -1.3566  1.7388 -0.9982
   43GLOH   H03 8769   3.842   9.624   2.443  3.4147  1.1733 -2.7550
   43GLOH    O1 8770   3.792   9.703   2.417  0.0418  0.3680  0.8025
   43GLOH    C1 8771   3.650   9.696   2.454 -0.2251 -0.1200  0.1957
   43GLOH   H02 8772   3.602   9.793   2.439  0.5279  0.3901  1.0611
   43GLOH   H08 8773   3.634   9.672   2.559  1.0699  1.1275  0.6856
   43GLOH    C2 8774   3.573   9.590   2.369 -0.5854 -0.3501  0.2637
   43GLOH   H04 8775   3.602   9.616   2.267  2.2300  1.0584  1.3914
   43GLOH    O2 8776   3.611   9.451   2.388  0.4382  0.4334  0.3453
   43GLOH   H05 8777   3.691   9.438   2.333 -1.6237 -1.8210 -2.2184
   43GLOH    C3 8778   3.423   9.605   2.386  0.5928 -0.7092  0.2300
   43GLOH   H06 8779   3.388   9.573   2.484  1.3422  2.3566  1.5747
   43GLOH   H07 8780   3.382   9.539   2.310 -0.6671 -0.0475  0.3143
   43GLOH    O3 8781   3.371   9.738   2.374 -0.0015 -0.2732 -0.2236
   43GLOH   H01 8782   3.364   9.774   2.284 -0.7331  0.1573  0.0054
   44GLOH   H03 8783   4.083   9.074   0.729  1.4608 -0.8665 -0.7070
   44GLOH    O1 8784   4.124   9.162   0.737 -0.5840  0.0875 -0.1630
   44GLOH    C1 8785   4.029   9.250   0.807  0.8156  0.4480 -0.3392
   44GLOH   H02 8786   4.041   9.237   0.915  3.4462  1.4008 -0.4876
   44GLOH   H08 8787   3.931   9.211   0.779  1.0643  0.2659 -0.9447
   44GLOH    C2 8788   4.041   9.402   0.765 -0.1983 -0.1962 -0.4570
   44GLOH   H04 8789   4.146   9.433   0.754 -0.5620  1.9766  1.6526
   44GLOH    O2 8790   3.971   9.423   0.642  1.0977 -0.3379 -0.4784
   44GLOH   H05 8791   3.988   9.375   0.560  0.1476  2.2907 -2.2690
   44GLOH    C3 8792   3.994   9.487   0.885 -0.1329  0.1280  0.2998
   44GLOH   H06 8793   4.050   9.464   0.975 -0.7583 -0.0144  0.6544
   44GLOH   H07 8794   3.893   9.455   0.910 -0.7231  1.2658 -0.5894
   44GLOH    O3 8795   3.997   9.632   0.875 -0.4685  0.0756 -0.3228
   44GLOH   H01 8796   3.977   9.660   0.784  1.7838  0.4352 -0.7337
   45GLOH   H03 8797   4.381   8.861   2.672  3.1504  0.4086  0.8871
   45GLOH    O1 8798   4.366   8.802   2.748 -0.3827 -0.3980 -0.3512
   45GLOH    C1 8799   4.228   8.754   2.752 -0.2170 -0.0924 -0.2977
   45GLOH   H02 8800   4.177   8.796   2.665 -0.2210 -2.6482 -1.5553
   45GLOH   H08 8801   4.179   8.796   2.840 -2.7095  1.3199 -2.2996
   45GLOH    C2 8802   4.200   8.600   2.744 -0.6093  0.3517  0.0241
   45GLOH   H04 8803   4.248   8.545   2.827  0.8568 -0.9741 -1.6620
   45GLOH    O2 8804   4.062   8.575   2.760  0.1680 -0.4094  0.3372
   45GLOH   H05 8805   4.007   8.580   2.680  1.1241  0.0236 -0.3085
   45GLOH    C3 8806   4.262   8.540   2.619 -0.0506  0.1387  0.1182
   45GLOH   H06 8807   4.279   8.433   2.622  1.8684  0.4015 -1.0648
   45GLOH   H07 8808   4.355   8.586   2.586 -1.1969  1.9082 -0.7180
   45GLOH    O3 8809   4.180   8.563   2.499 -0.5707 -0.1443  0.3115
   45GLOH   H01 8810   4.150   8.474   2.472  2.8650 -0.6885 -2.1116
   46GLOH   H03 8811   3.381   8.862   2.443 -0.9398  0.1361 -0.0094
   46GLOH    O1 8812   3.356   8.783   2.493 -0.5701 -0.1536 -0.2770
   46GLOH    C1 8813   3.421   8.671   2.432 -0.4662  0.0253 -0.8671
   46GLOH   H02 8814   3.493   8.635   2.507  0.9295 -0.1838 -2.2767
   46GLOH   H08 8815   3.475   8.696   2.341 -4.3124  0.8976 -2.9824
   46GLOH    C2 8816   3.333   8.543   2.396 -0.2565 -0.1057 -0.4005
   46GLOH   H04 8817   3.273   8.522   2.485  1.0954 -0.7629  0.3633
   46GLOH    O2 8818   3.264   8.582   2.283  1.2734  0.5683 -0.0506
   46GLOH   H05 8819   3.170   8.557   2.292  1.0577  1.4183  0.1148
   46GLOH    C3 8820   3.403   8.407   2.365  0.2945  0.2417 -1.0186
   46GLOH   H06 8821   3.450   8.422   2.268  0.5625 -0.2819 -0.9706
   46GLOH   H07 8822   3.323   8.333   2.361  1.6043 -1.1733 -1.5172
   46GLOH    O3 8823   3.500   8.380   2.467  0.1889 -0.8491  1.0555
   46GLOH   H01 8824   3.589   8.381   2.429  0.6677 -0.2047  2.1586
   47GLOH   H03 8825   3.058   9.569   2.243 -1.6800  1.9703 -2.4985
   47GLOH    O1 8826   3.123   9.544   2.174  0.5080  0.1813  0.0877
   47GLOH    C1 8827   3.064   9.443   2.098  0.8751  0.0758 -0.4085
   47GLOH   H02 8828   2.974   9.477   2.047 -0.2077  0.9400  2.0271
   47GLOH   H08 8829   3.035   9.363   2.166 -0.7106  1.0897  0.1396
   47GLOH    C2 8830   3.156   9.381   1.991 -0.4504 -0.4225  0.3946
   47GLOH   H04 8831   3.218   9.302   2.037  0.3459  0.3542  0.6601
   47GLOH    O2 8832   3.083   9.310   1.891  0.1304  0.4681 -0.4999
   47GLOH   H05 8833   3.078   9.220   1.928  1.4729  1.1456  1.4019
   47GLOH    C3 8834   3.240   9.484   1.926  0.0846 -0.3258  0.1271
   47GLOH   H06 8835   3.179   9.552   1.866  1.3232  0.6202 -0.0681
   47GLOH   H07 8836   3.323   9.453   1.863  1.2564  0.2768  1.3625
   47GLOH    O3 8837   3.310   9.565   2.023 -0.1250 -0.1666  0.0679
   47GLOH   H01 8838   3.243   9.592   2.089 -1.5873  1.3342 -1.9331
   48GLOH   H03 8839   3.697   8.759   2.819 -0.9102  0.7450  0.1546
   48GLOH    O1 8840   3.735   8.742   2.730 -0.2402  0.1169  0.5482
   48GLOH    C1 8841   3.683   8.851   2.649  0.6464 -0.7726  0.1132
   48GLOH   H02 8842   3.581   8.880   2.675  0.0828 -3.1177  0.5861
   48GLOH   H08 8843   3.673   8.815   2.546  2.1576 -0.2637 -0.2287
   48GLOH    C2 8844   3.771   8.969   2.653 -0.0455  0.4582  0.1782
   48GLOH   H04 8845   3.737   9.048   2.584  1.5015  0.9718 -0.0226
   48GLOH    O2 8846   3.778   9.014   2.795 -0.1653 -0.2707  0.4445
   48GLOH   H05 8847   3.709   9.082   2.808 -0.8752 -0.9607  0.3380
   48GLOH    C3 8848   3.918   8.940   2.602 -0.7332  0.2147  0.2634
   48GLOH   H06 8849   3.908   8.885   2.508  0.8180 -1.6188  1.1349
   48GLOH   H07 8850   3.963   8.864   2.666 -0.2279 -1.7989 -2.4142
   48GLOH    O3 8851   3.996   9.063   2.590 -0.7838 -0.8642  0.3568
   48GLOH   H01 8852   4.053   9.069   2.669 -3.8105  1.1898  2.4775
   49GLOH   H03 8853   2.726   9.736   1.199 -2.3354  0.0311  1.2845
   49GLOH    O1 8854   2.783   9.764   1.272  0.0012  0.3877 -0.6023
   49GLOH    C1 8855   2.907   9.699   1.242  0.2547  0.5011  0.5050
   49GLOH   H02 8856   2.995   9.755   1.271  2.1001 -2.7768  1.4992
   49GLOH   H08 8857   2.916   9.681   1.135  1.5420 -1.7034  0.9544
   49GLOH    C2 8858   2.909   9.570   1.323 -0.1669  0.3949 -0.0404
   49GLOH   H04 8859   2.832   9.500   1.288 -1.3618  1.4664  0.4057
   49GLOH    O2 8860   3.034   9.500   1.295 -0.3745 -0.3210  0.0827
   49GLOH   H05 8861   3.006   9.407   1.301  1.0129 -0.8514 -1.1837
   49GLOH    C3 8862   2.882   9.581   1.477 -0.3722  0.2461  0.7328
   49GLOH   H06 8863   2.884   9.479   1.514 -1.5158  0.1956  0.6603
   49GLOH   H07 8864   2.781   9.611   1.507 -0.5701  2.4975 -1.8979
   49GLOH    O3 8865   2.981   9.665   1.540 -1.1706  0.2267 -0.1638
   49GLOH   H01 8866   2.978   9.752   1.495 -0.4648  0.1030 -0.4663
   50GLOH   H03 8867   3.602   8.796   1.088  0.5663 -0.4244 -0.5165
   50GLOH    O1 8868   3.675   8.840   1.135 -0.2507  0.0040  0.3788
   50GLOH    C1 8869   3.806   8.793   1.091 -0.2461 -0.0837 -0.7842
   50GLOH   H02 8870   3.813   8.802   0.983 -2.1623 -3.2611 -1.2327
   50GLOH   H08 8871   3.824   8.693   1.131  2.2237  0.2217 -1.0712
   50GLOH    C2 8872   3.926   8.870   1.138  0.0971 -0.7141 -0.0982
   50GLOH   H04 8873   3.927   8.876   1.248 -0.8706  1.0902 -0.1694
   50GLOH    O2 8874   4.048   8.808   1.093 -0.4765 -0.5476  0.2534
   50GLOH   H05 8875   4.029   8.772   1.005 -1.0038 -1.7301  0.8327
   50GLOH    C3 8876   3.929   9.018   1.090 -0.6729 -0.2769  0.0082
   50GLOH   H06 8877   3.920   9.023   0.981 -1.1697  1.2559  0.0988
   50GLOH   H07 8878   4.028   9.058   1.109  0.1679 -1.2767 -2.0747
   50GLOH    O3 8879   3.826   9.104   1.146  0.5453  0.2492  0.5623
   50GLOH   H01 8880   3.799   9.065   1.231  0.1477  0.1638  0.3935
   51GLOH   H03 8881   3.221   8.054   1.746 -1.9196  1.1848 -0.4375
   51GLOH    O1 8882   3.213   8.048   1.649 -0.0368  0.3520 -0.5660
   51GLOH    C1 8883   3.084   8.087   1.598 -0.4129 -0.3324  0.7632
   51GLOH   H02 8884   3.092   8.193   1.571  2.3079 -1.0113 -1.3606
   51GLOH   H08 8885   3.003   8.057   1.663 -0.7203 -0.8232  0.1555
   51GLOH    C2 8886   3.058   8.010   1.466 -0.0355  0.3883  0.0131
   51GLOH   H04 8887   3.044   7.901   1.477  2.7937  0.1001  1.3663
   51GLOH    O2 8888   2.942   8.069   1.406  0.1275 -0.1972  0.3611
   51GLOH   H05 8889   2.854   8.030   1.420 -0.8698  2.0294  0.5658
   51GLOH    C3 8890   3.178   8.027   1.374  0.1793 -0.5949  0.2920
   51GLOH   H06 8891   3.175   8.132   1.346  1.6606 -0.8486 -0.8769
   51GLOH   H07 8892   3.146   7.971   1.286  0.0291  0.4538 -0.3214
   51GLOH    O3 8893   3.307   8.006   1.428  0.7309  0.5234 -0.1717
   51GLOH   H01 8894   3.302   8.002   1.526  1.8882 -1.3441 -0.1433
   52GLOH   H03 8895   3.358   8.985   1.871  0.6744 -0.5539 -0.9917
   52GLOH    O1 8896   3.275   9.035   1.860  0.4036 -0.7440  0.1309
   52GLOH    C1 8897   3.183   8.949   1.788 -0.1357  0.3625 -0.0569
   52GLOH   H02 8898   3.173   8.846   1.824 -2.6563  0.8454  0.7181
   52GLOH   H08 8899   3.212   8.943   1.683 -1.0120  0.5694 -0.3154
   52GLOH    C2 8900   3.038   8.993   1.786 -0.3626  0.0252  0.3837
   52GLOH   H04 8901   3.029   9.089   1.732  0.4526 -0.2655 -0.2885
   52GLOH    O2 8902   2.975   8.891   1.707  0.2571  0.4736 -0.3518
   52GLOH   H05 8903   2.978   8.920   1.614 -0.6703 -0.0795 -0.5688
   52GLOH    C3 8904   2.971   9.000   1.927  0.1638  0.1037 -0.5014
   52GLOH   H06 8905   2.959   8.912   1.991  1.6757  2.3175  2.9880
   52GLOH   H07 8906   2.868   9.033   1.915  0.2417  0.6387  0.2304
   52GLOH    O3 8907   3.029   9.101   2.011 -0.4327  0.5143  0.2159
   52GLOH   H01 8908   3.054   9.054   2.094  4.7300  0.5162 -1.1497
   53GLOH   H03 8909   3.806   7.836   2.083 -1.3582 -0.0306  0.9094
   53GLOH    O1 8910   3.863   7.779   2.138  0.1438 -0.1659 -0.7213
   53GLOH    C1 8911   3.811   7.763   2.270  0.5453 -0.5120  0.7557
   53GLOH   H02 8912   3.894   7.724   2.330  1.6479 -1.6272 -1.4176
   53GLOH   H08 8913   3.745   7.677   2.258 -0.2488  0.1912  0.0787
   53GLOH    C2 8914   3.733   7.877   2.335 -0.0701 -0.0422  0.0025
   53GLOH   H04 8915   3.641   7.892   2.278  0.0391 -0.9736 -0.4310
   53GLOH    O2 8916   3.700   7.848   2.469 -0.0705 -0.1674 -0.0871
   53GLOH   H05 8917   3.611   7.810   2.472  0.1127 -0.7119 -1.2751
   53GLOH    C3 8918   3.823   8.002   2.334 -0.7103  0.2832  0.0833
   53GLOH   H06 8919   3.875   7.997   2.238  1.3001  2.1012  1.0455
   53GLOH   H07 8920   3.897   8.002   2.414  0.0897 -1.8601 -0.6052
   53GLOH    O3 8921   3.748   8.128   2.338 -0.7195  0.2167  0.3335
   53GLOH   H01 8922   3.785   8.210   2.301 -0.1468 -0.5527 -0.8582
   54GLOH   H03 8923   3.474   7.755   1.131 -0.6700 -2.4290  4.4742
   54GLOH    O1 8924   3.537   7.685   1.107  0.1437 -0.1808 -0.5781
   54GLOH    C1 8925   3.671   7.746   1.102  0.3243 -0.1278 -0.5023
   54GLOH   H02 8926   3.683   7.782   1.000 -2.0396 -2.1650 -1.5504
   54GLOH   H08 8927   3.758   7.681   1.104  1.7110  1.6252 -1.6442
   54GLOH    C2 8928   3.677   7.869   1.194  0.7960  0.7176 -0.4947
   54GLOH   H04 8929   3.683   7.824   1.295  1.3576 -1.7439 -1.5848
   54GLOH    O2 8930   3.804   7.924   1.161 -0.2302  0.9767  0.4951
   54GLOH   H05 8931   3.825   8.004   1.212  2.2267  0.6286  0.1113
   54GLOH    C3 8932   3.560   7.968   1.169  0.1357 -0.3405  0.2113
   54GLOH   H06 8933   3.570   8.014   1.070  0.4126 -2.7039 -0.9064
   54GLOH   H07 8934   3.576   8.042   1.247  1.7820  1.3628 -1.6959
   54GLOH    O3 8935   3.432   7.905   1.189  0.0328 -0.1630  0.0640
   54GLOH   H01 8936   3.398   7.934   1.276  1.6018  1.0697  0.2843
   55GLOH   H03 8937   4.726   0.121   1.174 -0.1534 -0.3033 -0.5019
   55GLOH    O1 8938   4.681   0.194   1.128 -0.2873  0.2230  0.4495
   55GLOH    C1 8939   4.544   0.148   1.109  0.1719 -0.3023 -0.4401
   55GLOH   H02 8940   4.538   0.070   1.033 -0.0935 -0.9121  0.2083
   55GLOH   H08 8941   4.479   0.232   1.088  2.7021  1.6275 -0.7865
   55GLOH    C2 8942   4.484   0.079   1.234 -0.7823  1.1486  0.3400
   55GLOH   H04 8943   4.470   0.155   1.312 -1.3918 -0.4915  1.8375
   55GLOH    O2 8944   4.350   0.036   1.193 -0.2131 -0.0746 -0.0454
   55GLOH   H05 8945   4.314  -0.042   1.238  1.3094 -1.3751 -1.0288
   55GLOH    C3 8946   4.572  -0.037   1.286  0.0227  0.0857 -0.3999
   55GLOH   H06 8947   4.559  -0.117   1.214 -1.5204 -1.3243  1.3805
   55GLOH   H07 8948   4.543  -0.059   1.389 -1.5342  2.1790 -0.3737
   55GLOH    O3 8949   4.713   0.002   1.288  0.1124  0.5395 -0.1157
   55GLOH   H01 8950   4.763  -0.078   1.314 -1.0301 -0.9286 -2.3018
   56GLOH   H03 8951   2.831   8.733   0.383 -0.4768 -0.5070 -0.2926
   56GLOH    O1 8952   2.823   8.775   0.295  0.1111  0.4509  0.1093
   56GLOH    C1 8953   2.934   8.864   0.275 -0.0194 -0.3578 -0.0126
   56GLOH   H02 8954   2.936   8.955   0.336  0.3656 -1.1110  1.1119
   56GLOH   H08 8955   2.944   8.909   0.176  1.0855  0.0304  0.2627
   56GLOH    C2 8956   3.067   8.789   0.295 -0.2786 -0.7323  0.4064
   56GLOH   H04 8957   3.080   8.707   0.223  0.5020  0.8292 -1.2777
   56GLOH    O2 8958   3.179   8.882   0.275 -0.0400 -0.0931  0.4495
   56GLOH   H05 8959   3.260   8.850   0.319 -0.4029 -1.9622 -0.2060
   56GLOH    C3 8960   3.067   8.733   0.441 -0.1940  0.1705 -0.1487
   56GLOH   H06 8961   3.065   8.814   0.514 -2.1242  1.4253 -1.5534
   56GLOH   H07 8962   3.164   8.687   0.460 -0.9829 -0.8515  1.4959
   56GLOH    O3 8963   2.977   8.628   0.466  0.5002 -0.5857  0.2682
   56GLOH   H01 8964   3.015   8.560   0.407 -0.1325 -0.8654  0.1836
   57GLOH   H03 8965   3.005   9.140   2.499  1.6949 -1.3376  1.7866
   57GLOH    O1 8966   3.012   9.052   2.457 -0.2575 -0.7868  0.2301
   57GLOH    C1 8967   3.016   8.956   2.557  0.8289  0.1554 -0.6472
   57GLOH   H02 8968   2.999   8.858   2.513 -1.4901 -0.3899  1.3456
   57GLOH   H08 8969   2.933   8.972   2.627 -0.3441 -1.5223 -1.6267
   57GLOH    C2 8970   3.150   8.950   2.638  1.0012  0.5299  0.5628
   57GLOH   H04 8971   3.239   8.952   2.572 -1.1183  1.4892 -2.4029
   57GLOH    O2 8972   3.167   9.073   2.715 -0.3574  0.3337  0.0693
   57GLOH   H05 8973   3.170   9.140   2.645  2.0792  1.9334  1.6586
   57GLOH    C3 8974   3.161   8.825   2.723 -0.3160  0.7787  0.2129
   57GLOH   H06 8975   3.082   8.811   2.797  0.1991 -1.0991  0.4339
   57GLOH   H07 8976   3.250   8.833   2.786 -0.5478  2.5185  0.3541
   57GLOH    O3 8977   3.164   8.703   2.645  0.0993  0.4560  0.1486
   57GLOH   H01 8978   3.239   8.718   2.586 -0.6389  1.1835 -0.6222
   58GLOH   H03 8979   4.239   8.060   1.245 -1.9114  0.3760 -0.1757
   58GLOH    O1 8980   4.244   7.970   1.282  0.2851  0.5352 -0.0139
   58GLOH    C1 8981   4.123   7.899   1.242 -0.5278 -0.0835  0.2383
   58GLOH   H02 8982   4.034   7.955   1.270 -0.3605  0.5061 -0.4082
   58GLOH   H08 8983   4.110   7.808   1.301 -0.5498 -0.0651  0.2627
   58GLOH    C2 8984   4.121   7.860   1.093  0.4138  0.1839  0.1056
   58GLOH   H04 8985   4.197   7.781   1.080  0.8663  0.5287  0.6679
   58GLOH    O2 8986   3.993   7.794   1.063 -0.1238 -0.2809 -0.1197
   58GLOH   H05 8987   3.920   7.844   1.103 -1.3992 -0.5383 -2.0576
   58GLOH    C3 8988   4.172   7.962   0.990 -0.5730  0.8579  0.4225
   58GLOH   H06 8989   4.171   7.915   0.892 -1.7551  0.7607  0.4753
   58GLOH   H07 8990   4.277   7.978   1.017 -0.9103  2.2110  1.0008
   58GLOH    O3 8991   4.112   8.087   1.000  0.3712 -0.2232  0.1872
   58GLOH   H01 8992   4.023   8.096   0.961 -0.1597 -2.9348  0.6863
   59GLOH   H03 8993   4.389   8.502   1.018  0.8545 -0.7509 -0.5858
   59GLOH    O1 8994   4.333   8.471   0.944 -0.4946  1.1175 -0.3864
   59GLOH    C1 8995   4.286   8.344   1.000  0.3911  0.2497  1.4806
   59GLOH   H02 8996   4.367   8.270   1.003  1.6434  1.5375  0.0964
   59GLOH   H08 8997   4.196   8.311   0.949  1.4803 -2.4387  1.2054
   59GLOH    C2 8998   4.252   8.354   1.155 -0.3345 -0.3289  0.0930
   59GLOH   H04 8999   4.173   8.431   1.153 -0.1680 -0.1809 -1.6827
   59GLOH    O2 9000   4.225   8.220   1.195 -0.0058  0.4945  0.3321
   59GLOH   H05 9001   4.165   8.184   1.127 -0.4431 -0.5876  1.2777
   59GLOH    C3 9002   4.365   8.417   1.243  0.2984 -0.9004  0.4290
   59GLOH   H06 9003   4.456   8.357   1.245 -0.0070 -1.3762  3.2073
   59GLOH   H07 9004   4.333   8.430   1.347 -0.6908 -2.3065  0.3125
   59GLOH    O3 9005   4.403   8.546   1.191 -0.4375  0.0790 -0.3178
   59GLOH   H01 9006   4.346   8.617   1.224  0.7975  1.4514 -1.0997
   60GLOH   H03 9007   3.439   9.818   2.556  2.8994 -3.5200  0.8770
   60GLOH    O1 9008   3.400   9.819   2.645 -0.0316 -0.1860 -0.3098
   60GLOH    C1 9009   3.375   9.961   2.674 -0.3627 -0.2810  0.4590
   60GLOH   H02 9010   3.314   9.970   2.764 -1.3207  0.4810 -0.2541
   60GLOH   H08 9011   3.317  10.002   2.591  1.5565  1.3115 -0.1265
   60GLOH    C2 9012   3.508  10.047   2.682 -0.6041 -0.6570 -0.5182
   60GLOH   H04 9013   3.580  10.004   2.753  1.9581  1.0146 -1.9917
   60GLOH    O2 9014   3.577  10.029   2.555  0.0428 -0.6598 -0.1645
   60GLOH   H05 9015   3.666   9.994   2.574  1.7850  3.2664 -0.4531
   60GLOH    C3 9016   3.483  10.200   2.707 -0.1575  0.3212 -0.1236
   60GLOH   H06 9017   3.577  10.253   2.690 -0.4548  0.2498 -2.1076
   60GLOH   H07 9018   3.459  10.210   2.813 -1.4045 -2.4577 -0.1059
   60GLOH    O3 9019   3.391  10.264   2.616  0.4540 -0.0459  0.8361
   60GLOH   H01 9020   3.306  10.278   2.661  1.0145  0.8525  1.6296
   61GLOH   H03 9021   3.610   8.451   1.657 -1.0298 -0.8608  2.3475
   61GLOH    O1 9022   3.669   8.524   1.683 -0.4470 -0.3492 -0.3129
   61GLOH    C1 9023   3.754   8.459   1.775 -1.0120  0.5463 -0.0056
   61GLOH   H02 9024   3.834   8.405   1.725 -0.1803  1.1631  0.6283
   61GLOH   H08 9025   3.698   8.384   1.829  2.2507 -1.2758  1.0096
   61GLOH    C2 9026   3.835   8.556   1.867 -0.1132 -0.5759  0.1794
   61GLOH   H04 9027   3.892   8.495   1.939 -0.5114  0.3796  1.3194
   61GLOH    O2 9028   3.920   8.645   1.794  0.1155  0.2088  0.1101
   61GLOH   H05 9029   3.890   8.736   1.806  1.1854  0.5582  0.1481
   61GLOH    C3 9030   3.735   8.640   1.945  0.4218  0.0327 -0.3163
   61GLOH   H06 9031   3.672   8.696   1.876  1.5723  4.3523  1.9478
   61GLOH   H07 9032   3.794   8.706   2.009  0.7586 -1.1962  0.6454
   61GLOH    O3 9033   3.656   8.563   2.034  0.6032  0.0013  0.3588
   61GLOH   H01 9034   3.572   8.533   1.996 -0.5412  2.4651  0.8650
   62GLOH   H03 9035   2.927   8.572   1.628  0.7570  1.8255 -0.7324
   62GLOH    O1 9036   2.983   8.520   1.568  0.1122  0.4883 -0.1738
   62GLOH    C1 9037   2.896   8.424   1.508 -0.0626  0.6007 -0.2606
   62GLOH   H02 9038   2.793   8.458   1.519 -0.9267 -1.1559 -2.4752
   62GLOH   H08 9039   2.894   8.327   1.557 -0.9368  0.5114 -0.4772
   62GLOH    C2 9040   2.916   8.400   1.354  0.5560 -0.1044 -0.2083
   62GLOH   H04 9041   3.024   8.388   1.338  0.8717  1.7422  0.3492
   62GLOH    O2 9042   2.848   8.282   1.309 -0.1945 -0.5759  0.5173
   62GLOH   H05 9043   2.898   8.206   1.345  1.9115  0.7288  0.4609
   62GLOH    C3 9044   2.873   8.528   1.272 -0.5798 -0.0672  0.6053
   62GLOH   H06 9045   2.787   8.577   1.319 -0.4298 -0.4349  1.2672
   62GLOH   H07 9046   2.853   8.496   1.170  1.5450 -0.7452  0.3866
   62GLOH    O3 9047   2.973   8.630   1.270 -0.4008 -0.1868 -0.3860
   62GLOH   H01 9048   3.005   8.655   1.359 -1.6285  1.0696 -0.2926
   63GLOH   H03 9049   4.784   9.750   0.968  1.1084 -1.0370  1.5995
   63GLOH    O1 9050   4.808   9.796   1.050  0.3069  0.6354  0.9452
   63GLOH    C1 9051   4.936   9.857   1.017  0.4549 -0.0162 -0.9375
   63GLOH   H02 9052   4.919   9.960   0.987 -0.0760 -0.4221 -2.0696
   63GLOH   H08 9053   4.984   9.805   0.934  0.9726 -1.0361 -0.0142
   63GLOH    C2 9054   5.042   9.847   1.131  0.9271  0.9270 -0.3555
   63GLOH   H04 9055   5.064   9.740   1.140 -0.9882  0.5873  0.5039
   63GLOH    O2 9056   5.161   9.926   1.094 -0.5993 -0.5521  0.0750
   63GLOH   H05 9057   5.226   9.869   1.051  0.2821 -0.1249  0.8294
   63GLOH    C3 9058   4.977   9.884   1.263 -0.4635  0.1280 -0.1616
   63GLOH   H06 9059   4.958   9.991   1.263  0.3827  0.2808  0.2256
   63GLOH   H07 9060   5.053   9.862   1.339 -2.1669  1.0847  1.8466
   63GLOH    O3 9061   4.857   9.799   1.293 -0.3572  0.5135  0.0426
   63GLOH   H01 9062   4.820   9.795   1.203 -1.0566 -0.5263  0.3714
   64GLOH   H03 9063   4.297   0.316   2.597 -0.7250 -1.3315 -0.8432
   64GLOH    O1 9064   4.329   0.269   2.676 -0.1257  0.1133 -0.2174
   64GLOH    C1 9065   4.338   0.128   2.661  0.1006 -0.1530  0.1848
   64GLOH   H02 9066   4.442   0.102   2.640 -0.0518 -2.7816  2.3865
   64GLOH   H08 9067   4.283   0.091   2.574 -0.7526  0.1228  0.6040
   64GLOH    C2 9068   4.286   0.063   2.796  0.1640  0.0383  0.3781
   64GLOH   H04 9069   4.198   0.119   2.832  0.7308  0.8158  0.5821
   64GLOH    O2 9070   4.257  -0.078   2.787 -0.2771  0.6817 -0.2955
   64GLOH   H05 9071   4.340  -0.114   2.823  0.0865  0.6646 -1.1228
   64GLOH    C3 9072   4.392   0.102   2.902  0.3139  0.3998 -0.2524
   64GLOH   H06 9073   4.490   0.071   2.868 -1.0110 -1.3481 -2.6960
   64GLOH   H07 9074   4.367   0.058   2.999  4.2475 -1.9831 -0.2168
   64GLOH    O3 9075   4.400   0.243   2.907  0.2362 -0.3251 -0.3216
   64GLOH   H01 9076   4.379   0.263   2.813  0.0001  1.2095  0.0369
   65GLOH   H03 9077   3.812   7.739   0.719 -0.7802  0.5202 -0.0201
   65GLOH    O1 9078   3.788   7.829   0.692 -0.3681  0.5324 -0.3525
   65GLOH    C1 9079   3.883   7.918   0.764  0.0409 -0.2645  0.8474
   65GLOH   H02 9080   3.963   7.961   0.704 -0.2311  1.5757  1.7637
   65GLOH   H08 9081   3.936   7.867   0.844  0.1363  0.4659  1.2618
   65GLOH    C2 9082   3.811   8.046   0.802 -1.0536 -0.1251  0.2240
   65GLOH   H04 9083   3.718   8.026   0.857 -2.9411  0.3548 -2.6877
   65GLOH    O2 9084   3.891   8.143   0.876  0.1150 -0.2303 -0.3265
   65GLOH   H05 9085   3.831   8.195   0.932  0.5860 -0.2166  0.1716
   65GLOH    C3 9086   3.763   8.108   0.667  0.1222  0.2433  0.6353
   65GLOH   H06 9087   3.849   8.119   0.601 -0.6585  0.4907 -0.3482
   65GLOH   H07 9088   3.725   8.207   0.693  0.7737  0.8749 -0.7623
   65GLOH    O3 9089   3.669   8.031   0.598 -0.3226  0.2591 -0.3443
   65GLOH   H01 9090   3.684   7.936   0.614 -1.0421  0.2337  0.1959
   66GLOH   H03 9091   4.458   8.548   0.204 -0.9399  0.4843  0.2680
   66GLOH    O1 9092   4.432   8.482   0.271 -0.4360  0.4672  0.4504
   66GLOH    C1 9093   4.324   8.414   0.213 -0.0220  0.3457 -0.2562
   66GLOH   H02 9094   4.335   8.306   0.223  0.4953  0.5284  1.1919
   66GLOH   H08 9095   4.317   8.440   0.107 -0.4115  0.2884 -0.2452
   66GLOH    C2 9096   4.202   8.442   0.299 -0.4058 -0.5384  0.1851
   66GLOH   H04 9097   4.166   8.543   0.274  1.7105 -0.1679 -1.4435
   66GLOH    O2 9098   4.094   8.358   0.258 -0.4953 -0.8464 -0.1942
   66GLOH   H05 9099   4.026   8.337   0.325 -1.6117 -1.1990 -1.4207
   66GLOH    C3 9100   4.232   8.425   0.448  0.6470  0.3916 -0.7949
   66GLOH   H06 9101   4.264   8.322   0.459 -1.1931 -0.0207  1.0898
   66GLOH   H07 9102   4.139   8.441   0.503 -0.2515 -1.6442 -1.6655
   66GLOH    O3 9103   4.331   8.516   0.494 -0.2636 -0.1917 -0.3670
   66GLOH   H01 9104   4.393   8.523   0.418  0.5247 -0.0174  0.2935
   67GLOH   H03 9105   3.764   9.346   1.439  0.3019  0.4501  1.2193
   67GLOH    O1 9106   3.861   9.339   1.439  0.2449 -0.6368 -0.2660
   67GLOH    C1 9107   3.902   9.459   1.371  0.2896  0.7124  0.9575
   67GLOH   H02 9108   3.904   9.545   1.437 -1.6501  1.1910  0.4215
   67GLOH   H08 9109   3.825   9.489   1.300  2.2472  0.9013 -1.1479
   67GLOH    C2 9110   4.041   9.446   1.312 -0.0554  0.1601 -0.6419
   67GLOH   H04 9111   4.063   9.537   1.256  2.5169  0.7838  1.2851
   67GLOH    O2 9112   4.129   9.438   1.426  0.1525  0.1066 -0.2447
   67GLOH   H05 9113   4.116   9.504   1.496  0.5962 -0.7628  0.6702
   67GLOH    C3 9114   4.053   9.316   1.233 -0.2573 -0.3903  0.5863
   67GLOH   H06 9115   3.961   9.320   1.174  0.9842 -1.5796 -1.4758
   67GLOH   H07 9116   4.039   9.228   1.296  0.7520 -0.3006  0.9353
   67GLOH    O3 9117   4.167   9.311   1.142  0.2616  0.0466 -0.0998
   67GLOH   H01 9118   4.249   9.287   1.190  0.2532  0.1599 -0.0308
   68GLOH   H03 9119   3.267   9.964   1.530  0.8392 -0.3346 -1.0019
   68GLOH    O1 9120   3.257   9.874   1.495 -0.2067 -0.2501 -0.9559
   68GLOH    C1 9121   3.325   9.800   1.596 -0.3529 -1.0500  0.0303
   68GLOH   H02 9122   3.272   9.830   1.686  1.1479 -1.0230  0.9309
   68GLOH   H08 9123   3.426   9.839   1.606 -1.2902  0.9851  1.9804
   68GLOH    C2 9124   3.336   9.653   1.574  0.0015 -0.0431  0.0561
   68GLOH   H04 9125   3.417   9.618   1.640 -1.7717 -1.2322  1.6621
   68GLOH    O2 9126   3.213   9.592   1.619 -0.4614  0.7007 -0.7708
   68GLOH   H05 9127   3.129   9.624   1.581 -0.3574  0.5099 -1.1702
   68GLOH    C3 9128   3.367   9.621   1.419 -0.4484 -0.3511  0.1916
   68GLOH   H06 9129   3.276   9.658   1.374 -0.7347 -3.0623 -1.5379
   68GLOH   H07 9130   3.370   9.514   1.399 -3.4927 -0.9243  2.4486
   68GLOH    O3 9131   3.485   9.673   1.355 -0.0880  0.4077 -0.4445
   68GLOH   H01 9132   3.480   9.637   1.265 -1.3560 -0.7806  0.0868
   69GLOH   H03 9133   4.039   0.142   1.488 -2.5736  0.2456 -2.2600
   69GLOH    O1 9134   4.054   0.238   1.493 -0.4657 -0.1177 -0.6157
   69GLOH    C1 9135   4.157   0.271   1.393  0.1948  0.1241  0.4727
   69GLOH   H02 9136   4.241   0.203   1.387  1.0173  1.2614 -1.1612
   69GLOH   H08 9137   4.199   0.369   1.417  1.5657  0.3777 -2.8241
   69GLOH    C2 9138   4.112   0.280   1.248 -0.3579 -0.0819  0.1555
   69GLOH   H04 9139   4.069   0.381   1.255  0.2915  0.1227  1.2693
   69GLOH    O2 9140   4.232   0.276   1.160  0.2649  0.1816  0.2817
   69GLOH   H05 9141   4.259   0.183   1.164 -2.8006 -0.6736  1.7139
   69GLOH    C3 9142   4.002   0.188   1.210  0.5730 -0.2091  0.1803
   69GLOH   H06 9143   3.955   0.214   1.115  0.3331  1.0053  0.6222
   69GLOH   H07 9144   3.920   0.208   1.279  1.0139 -1.3244  1.0494
   69GLOH    O3 9145   4.037   0.053   1.216  0.7266  0.2445  0.0471
   69GLOH   H01 9146   3.959  -0.000   1.193  1.8854 -0.9284 -1.2825
   70GLOH   H03 9147   3.793   9.174   1.968  1.2472 -0.5628 -2.2123
   70GLOH    O1 9148   3.812   9.089   2.013  0.6293  0.6149  0.3701
   70GLOH    C1 9149   3.733   9.074   2.126  0.1061 -0.0071  0.4749
   70GLOH   H02 9150   3.746   8.970   2.156  2.2749  0.3994  0.9782
   70GLOH   H08 9151   3.630   9.094   2.095  0.1360 -0.0187  0.3678
   70GLOH    C2 9152   3.769   9.156   2.252 -0.1671 -0.1306  0.0319
   70GLOH   H04 9153   3.761   9.260   2.216  2.2248 -0.0075 -0.2419
   70GLOH    O2 9154   3.674   9.111   2.348  0.5459  0.1965 -0.8293
   70GLOH   H05 9155   3.606   9.176   2.372  0.4186 -0.1478 -0.2429
   70GLOH    C3 9156   3.919   9.142   2.300  0.2559 -0.0644 -0.2989
   70GLOH   H06 9157   3.988   9.161   2.218 -0.3468  0.7630 -0.6276
   70GLOH   H07 9158   3.937   9.040   2.334 -1.7201  0.5553  2.8339
   70GLOH    O3 9159   3.955   9.224   2.408 -0.2849 -0.3442 -0.5037
   70GLOH   H01 9160   3.960   9.164   2.484 -1.8204 -0.8984 -0.8317
   71GLOH   H03 9161   4.120   8.737   1.231  0.7407  2.7549  1.0833
   71GLOH    O1 9162   4.184   8.714   1.301  0.4189 -0.3504  0.4387
   71GLOH    C1 9163   4.148   8.789   1.418  0.1562 -0.0992 -0.9396
   71GLOH   H02 9164   4.091   8.881   1.403 -1.7345 -0.6797  2.0988
   71GLOH   H08 9165   4.230   8.819   1.483 -1.1479  1.2880  0.1141
   71GLOH    C2 9166   4.046   8.704   1.502 -0.4020  0.5016  0.1983
   71GLOH   H04 9167   4.010   8.750   1.595 -1.4161 -1.1746  0.6604
   71GLOH    O2 9168   3.921   8.684   1.422 -0.7961 -0.4851 -0.3855
   71GLOH   H05 9169   3.924   8.596   1.380  0.2645 -0.9814  0.7006
   71GLOH    C3 9170   4.126   8.581   1.548 -0.1625  0.3955 -0.0412
   71GLOH   H06 9171   4.208   8.621   1.608 -0.2866 -1.2104  1.2527
   71GLOH   H07 9172   4.150   8.522   1.460  1.3158  1.1819 -0.1794
   71GLOH    O3 9173   4.042   8.490   1.633  0.5972 -0.5447  0.0974
   71GLOH   H01 9174   3.993   8.552   1.690  0.7938 -0.0581 -0.2609
   72GLOH   H03 9175   3.461   8.096   2.132 -1.7552 -1.7286  0.2415
   72GLOH    O1 9176   3.469   8.122   2.038 -0.5275 -0.6254  0.6578
   72GLOH    C1 9177   3.489   8.266   2.046  0.5361  0.3940 -0.2706
   72GLOH   H02 9178   3.549   8.283   1.957 -1.2639  0.4865 -1.4951
   72GLOH   H08 9179   3.540   8.289   2.140 -0.5881 -0.3815  0.5520
   72GLOH    C2 9180   3.356   8.342   2.030 -0.0189  0.0313  0.1802
   72GLOH   H04 9181   3.300   8.323   2.123  1.6655 -0.3318  1.1491
   72GLOH    O2 9182   3.383   8.485   2.043 -0.3345 -0.1692  1.0592
   72GLOH   H05 9183   3.353   8.508   2.132 -2.0498 -2.8372  1.2393
   72GLOH    C3 9184   3.269   8.298   1.906  0.2818 -0.5303  1.0450
   72GLOH   H06 9185   3.344   8.312   1.828 -0.8462  0.6930  0.1612
   72GLOH   H07 9186   3.190   8.372   1.894  0.2340 -0.9847 -1.6892
   72GLOH    O3 9187   3.211   8.162   1.906 -0.0277 -1.2522  0.2115
   72GLOH   H01 9188   3.163   8.151   1.989  0.1331  0.6228  0.5605
   73GLOH   H03 9189   3.949   0.687   0.853  0.1387 -0.9795  0.9397
   73GLOH    O1 9190   4.043   0.662   0.858  0.3940 -0.2674 -0.1419
   73GLOH    C1 9191   4.047   0.528   0.902  0.1900 -0.1627  0.1102
   73GLOH   H02 9192   3.975   0.472   0.842  0.3951 -0.4659  0.1459
   73GLOH   H08 9193   4.010   0.530   1.005  1.0424  2.3223  0.3955
   73GLOH    C2 9194   4.182   0.459   0.882 -0.6543  1.1207  0.1039
   73GLOH   H04 9195   4.253   0.503   0.953  0.9246 -1.0169 -0.1289
   73GLOH    O2 9196   4.174   0.317   0.908 -0.5977 -0.3336  0.2699
   73GLOH   H05 9197   4.183   0.307   1.005  2.0173 -0.8236  0.0189
   73GLOH    C3 9198   4.247   0.488   0.752  0.1831  0.0876  0.7023
   73GLOH   H06 9199   4.221   0.427   0.665  1.6066  1.2509 -0.5858
   73GLOH   H07 9200   4.355   0.474   0.759  0.0556 -1.0123  0.5676
   73GLOH    O3 9201   4.238   0.624   0.706 -0.0483  0.2423 -0.0436
   73GLOH   H01 9202   4.161   0.651   0.759  0.5961  0.7848  0.6297
   74GLOH   H03 9203   3.650   8.058   0.242  1.9882 -0.6842 -0.8889
   74GLOH    O1 9204   3.593   8.009   0.180 -0.0686  0.2139  0.2542
   74GLOH    C1 9205   3.467   7.950   0.232  0.2095  0.2102  0.1316
   74GLOH   H02 9206   3.474   7.926   0.338  0.4933 -0.9523 -0.1460
   74GLOH   H08 9207   3.442   7.852   0.190  3.1172 -0.7429  0.4890
   74GLOH    C2 9208   3.341   8.034   0.218 -0.2261 -0.8171 -0.0026
   74GLOH   H04 9209   3.255   7.980   0.260 -0.8620 -0.6944 -1.1315
   74GLOH    O2 9210   3.346   8.164   0.289 -0.2979 -1.1345  0.5331
   74GLOH   H05 9211   3.411   8.150   0.359  0.5983 -0.8508 -0.2275
   74GLOH    C3 9212   3.315   8.059   0.065  0.1277  0.8023 -0.9289
   74GLOH   H06 9213   3.311   7.968   0.005  2.4833  1.0918 -1.5972
   74GLOH   H07 9214   3.402   8.112   0.025  0.2808 -0.0235 -1.7171
   74GLOH    O3 9215   3.197   8.133   0.044  0.2551 -0.6524 -0.7095
   74GLOH   H01 9216   3.196   8.157  -0.051  1.7931 -1.9424 -1.0742
   75GLOH   H03 9217   3.167   0.066   0.701 -0.7604  2.4516 -0.1157
   75GLOH    O1 9218   3.168   0.064   0.799 -0.8951  0.0815 -0.1545
   75GLOH    C1 9219   3.101   0.173   0.861 -1.1691 -0.2821 -0.4815
   75GLOH   H02 9220   3.092   0.148   0.967 -2.0748 -0.8602 -0.6873
   75GLOH   H08 9221   2.998   0.166   0.826 -0.0840 -1.1992 -3.5680
   75GLOH    C2 9222   3.167   0.312   0.830  0.9013  0.2661  0.2020
   75GLOH   H04 9223   3.269   0.303   0.869  0.4711  0.5090  1.4320
   75GLOH    O2 9224   3.168   0.352   0.691 -0.1809  0.8976 -0.8818
   75GLOH   H05 9225   3.080   0.352   0.649 -0.7784 -1.7187  0.2553
   75GLOH    C3 9226   3.088   0.409   0.920  0.1435 -0.9764  0.0896
   75GLOH   H06 9227   2.984   0.383   0.901  0.3171 -0.2240 -1.9694
   75GLOH   H07 9228   3.101   0.506   0.872  1.6960 -2.6073 -2.9558
   75GLOH    O3 9229   3.120   0.398   1.053  0.4041 -0.3199 -0.1078
   75GLOH   H01 9230   3.207   0.435   1.075  0.2535  0.2217 -0.4294
   76GLOH   H03 9231   3.300   0.275   2.131 -0.8429 -1.6968  0.1315
   76GLOH    O1 9232   3.397   0.270   2.143 -0.7369 -0.1950  0.0849
   76GLOH    C1 9233   3.449   0.401   2.119  0.0457 -0.5684 -0.6850
   76GLOH   H02 9234   3.367   0.471   2.106  2.3053  1.9779 -1.6306
   76GLOH   H08 9235   3.514   0.405   2.032  0.0167 -0.7761 -0.7173
   76GLOH    C2 9236   3.529   0.451   2.240 -0.4486 -0.3312 -0.5430
   76GLOH   H04 9237   3.589   0.365   2.273  0.6110  0.1367 -1.2581
   76GLOH    O2 9238   3.605   0.568   2.209  0.2508 -0.0426  0.5518
   76GLOH   H05 9239   3.570   0.642   2.262 -0.0963 -0.0851  0.3799
   76GLOH    C3 9240   3.425   0.477   2.355 -0.3697 -0.6608 -0.5268
   76GLOH   H06 9241   3.335   0.417   2.346 -1.8440  1.5032 -0.7389
   76GLOH   H07 9242   3.388   0.577   2.333 -2.0072 -1.3609 -1.0056
   76GLOH    O3 9243   3.467   0.489   2.495  0.4891  0.0343 -0.3830
   76GLOH   H01 9244   3.446   0.402   2.532  1.4362  0.1297  0.3650
   77GLOH   H03 9245   3.977   0.121   2.144 -1.9058  2.0801  0.6193
   77GLOH    O1 9246   4.020   0.177   2.077 -0.0593 -0.5754 -0.5115
   77GLOH    C1 9247   4.079   0.088   1.981 -0.3911 -0.0893 -0.1357
   77GLOH   H02 9248   4.144   0.141   1.911 -1.6154  1.7056  0.0315
   77GLOH   H08 9249   4.009   0.022   1.930 -2.2580  1.7613 -0.0350
   77GLOH    C2 9250   4.180  -0.016   2.037  0.1689 -0.2247  0.1512
   77GLOH   H04 9251   4.125  -0.083   2.105  1.0812 -1.3148 -0.1820
   77GLOH    O2 9252   4.229  -0.107   1.938 -0.3520  0.3705  0.3545
   77GLOH   H05 9253   4.271  -0.188   1.970 -0.1457 -0.8043 -2.7509
   77GLOH    C3 9254   4.305   0.037   2.113  0.2824 -0.1599 -0.1501
   77GLOH   H06 9255   4.319   0.137   2.071 -1.6408  1.4915  2.9427
   77GLOH   H07 9256   4.386  -0.033   2.093  0.4439 -0.3369  1.1250
   77GLOH    O3 9257   4.283   0.045   2.258  0.5022 -0.4953  0.3501
   77GLOH   H01 9258   4.218   0.115   2.279  0.8492 -0.0390 -0.0975
   78GLOH   H03 9259   3.178   9.520   1.223 -0.8132 -1.9422 -0.5452
   78GLOH    O1 9260   3.262   9.523   1.173 -0.1357  0.2857  0.6464
   78GLOH    C1 9261   3.265   9.641   1.095 -0.9453  0.4255  0.4339
   78GLOH   H02 9262   3.368   9.674   1.086 -0.3385 -1.6152 -0.3178
   78GLOH   H08 9263   3.197   9.712   1.143  1.3841  1.9129  1.6172
   78GLOH    C2 9264   3.206   9.619   0.948  0.0499 -1.0397  0.2114
   78GLOH   H04 9265   3.282   9.553   0.903 -0.4571 -1.4364 -0.0652
   78GLOH    O2 9266   3.082   9.553   0.947 -0.0580 -0.0397 -0.1784
   78GLOH   H05 9267   3.082   9.485   1.017  0.0631 -0.2375 -0.3703
   78GLOH    C3 9268   3.196   9.749   0.863  0.3234  0.1944 -0.8098
   78GLOH   H06 9269   3.107   9.740   0.801  1.8023 -0.5211 -2.9141
   78GLOH   H07 9270   3.283   9.752   0.796  1.0588  0.2143  0.1410
   78GLOH    O3 9271   3.188   9.869   0.941  0.4788 -0.0368 -0.4222
   78GLOH   H01 9272   3.180   9.947   0.884  1.0468 -0.4125 -1.0173
   79GLOH   H03 9273   4.369   9.741   1.205 -2.0147  1.7951 -3.8938
   79GLOH    O1 9274   4.377   9.655   1.158  0.7258 -0.0468 -0.2977
   79GLOH    C1 9275   4.480   9.632   1.060  0.4596 -0.2131 -0.6384
   79GLOH   H02 9276   4.576   9.622   1.111  0.0375 -0.8164  0.0498
   79GLOH   H08 9277   4.483   9.720   0.996  0.8928  2.4097  2.8282
   79GLOH    C2 9278   4.455   9.495   0.995  0.1031 -0.1559 -0.4380
   79GLOH   H04 9279   4.349   9.496   0.963 -0.4085  0.0164  1.1982
   79GLOH    O2 9280   4.543   9.469   0.884  0.2026  0.5018  0.4995
   79GLOH   H05 9281   4.505   9.408   0.818 -0.4565  1.2190  0.2214
   79GLOH    C3 9282   4.474   9.383   1.104  0.2563 -0.7965 -0.4639
   79GLOH   H06 9283   4.577   9.399   1.134 -0.1155  2.0138 -0.5281
   79GLOH   H07 9284   4.477   9.290   1.048  0.8177 -0.3493 -1.1898
   79GLOH    O3 9285   4.399   9.392   1.232 -0.3149 -0.0781  0.2194
   79GLOH   H01 9286   4.352   9.477   1.224  0.7862  0.5316 -0.0088
   80GLOH   H03 9287   3.825   8.381   2.791  0.4523  2.6186  0.4109
   80GLOH    O1 9288   3.731   8.384   2.819  0.2601  0.4272  0.0914
   80GLOH    C1 9289   3.666   8.276   2.753  0.2229 -0.1242  0.3494
   80GLOH   H02 9290   3.675   8.300   2.647  1.6360 -0.1477  0.4630
   80GLOH   H08 9291   3.559   8.271   2.775  0.0258  0.6939 -0.3715
   80GLOH    C2 9292   3.730   8.142   2.792 -0.1686  0.3243 -0.5304
   80GLOH   H04 9293   3.784   8.147   2.888  2.7158  0.7349 -2.1188
   80GLOH    O2 9294   3.631   8.032   2.801 -0.2728  0.1806  0.7848
   80GLOH   H05 9295   3.656   7.989   2.884  0.9932  0.0730  0.3637
   80GLOH    C3 9296   3.828   8.092   2.679 -0.3035 -0.1409  0.2152
   80GLOH   H06 9297   3.778   8.088   2.582  1.1142 -0.0893 -0.5327
   80GLOH   H07 9298   3.864   7.991   2.695 -0.2740 -0.3347 -1.0642
   80GLOH    O3 9299   3.935   8.188   2.674  0.6592  0.0313 -0.1969
   80GLOH   H01 9300   3.961   8.216   2.764  0.1924  0.3883 -0.1741
   81GLOH   H03 9301   3.374   9.346   0.213 -0.0541 -0.3500  0.2496
   81GLOH    O1 9302   3.314   9.340   0.290  0.2768  0.2052  0.5523
   81GLOH    C1 9303   3.322   9.204   0.350 -0.4813 -0.0834 -0.8317
   81GLOH   H02 9304   3.294   9.131   0.275  1.0603 -1.0625 -0.4855
   81GLOH   H08 9305   3.246   9.189   0.427 -1.4985  2.6889 -1.2178
   81GLOH    C2 9306   3.458   9.175   0.403 -0.0474  0.0696 -0.2170
   81GLOH   H04 9307   3.486   9.247   0.482  4.3593  0.4263 -1.9884
   81GLOH    O2 9308   3.455   9.044   0.466 -0.0778 -0.0710 -0.0898
   81GLOH   H05 9309   3.517   9.042   0.540  1.0571 -1.7052 -1.0417
   81GLOH    C3 9310   3.555   9.205   0.287  1.4179  0.0982 -0.1396
   81GLOH   H06 9311   3.659   9.195   0.317  1.0311  2.5495  2.2605
   81GLOH   H07 9312   3.551   9.312   0.266 -0.5255  0.5703  2.3108
   81GLOH    O3 9313   3.530   9.125   0.175 -0.5863  0.1304 -0.1202
   81GLOH   H01 9314   3.509   9.031   0.191  0.3409  0.0459  0.6323
   82GLOH   H03 9315   3.102   8.640   1.872  0.3125 -1.5693 -0.3519
   82GLOH    O1 9316   3.031   8.650   1.938  0.4099 -0.6654 -0.3711
   82GLOH    C1 9317   3.047   8.607   2.073  0.7604  0.0391  0.4779
   82GLOH   H02 9318   3.069   8.696   2.133 -1.0745 -1.0108  2.7994
   82GLOH   H08 9319   3.135   8.543   2.080 -0.1207 -0.9400  3.7689
   82GLOH    C2 9320   2.924   8.541   2.127 -0.4671  0.3760  0.0976
   82GLOH   H04 9321   2.840   8.612   2.132 -2.0026 -1.4447  1.4580
   82GLOH    O2 9322   2.886   8.447   2.027 -0.3899  1.4046 -0.2327
   82GLOH   H05 9323   2.865   8.485   1.940  1.4742  2.6472 -0.1619
   82GLOH    C3 9324   2.953   8.475   2.264 -0.2407  0.6986 -0.4532
   82GLOH   H06 9325   3.014   8.386   2.251  1.5600  1.7630  0.5039
   82GLOH   H07 9326   2.861   8.445   2.314 -0.8167  1.5490 -0.9964
   82GLOH    O3 9327   3.026   8.557   2.352 -0.5293 -0.1673  0.5790
   82GLOH   H01 9328   2.954   8.577   2.415 -2.4734 -0.7637 -1.3861
   83GLOH   H03 9329   3.511   9.871   0.617  3.7684  0.4229  0.0529
   83GLOH    O1 9330   3.534   9.805   0.685 -0.2842 -0.7903  0.4050
   83GLOH    C1 9331   3.674   9.824   0.714 -0.5895  0.3244  0.0619
   83GLOH   H02 9332   3.725   9.859   0.624  1.0139  0.8623  1.1651
   83GLOH   H08 9333   3.726   9.732   0.740 -1.3737  0.1955  1.2040
   83GLOH    C2 9334   3.698   9.921   0.832  0.2208  0.1885  0.0415
   83GLOH   H04 9335   3.650  10.016   0.804 -1.4244 -1.2020 -1.9742
   83GLOH    O2 9336   3.652   9.874   0.961 -0.3296 -0.6353 -0.0333
   83GLOH   H05 9337   3.557   9.887   0.974 -0.4544 -0.9870 -0.5582
   83GLOH    C3 9338   3.845   9.949   0.834 -0.0060 -0.1115  0.4784
   83GLOH   H06 9339   3.904   9.860   0.857  1.5018  1.5756  3.4456
   83GLOH   H07 9340   3.864  10.006   0.925  3.7489 -1.8235  0.8832
   83GLOH    O3 9341   3.888  10.014   0.714 -0.4213 -0.1370  0.0212
   83GLOH   H01 9342   3.975  10.054   0.732 -1.5128  2.4684 -0.2360
   84GLOH   H03 9343   3.809   9.941   2.747 -0.5751  1.7128 -0.1143
   84GLOH    O1 9344   3.801   9.914   2.841  0.0349 -0.0616 -0.5656
   84GLOH    C1 9345   3.925   9.958   2.908 -0.0247  0.3820  0.6977
   84GLOH   H02 9346   3.897  10.049   2.962  2.7772  2.8644 -1.9064
   84GLOH   H08 9347   3.999   9.986   2.834 -0.5031 -1.9073 -0.7196
   84GLOH    C2 9348   3.990   9.850   2.992 -0.6178  0.1158  0.1545
   84GLOH   H04 9349   3.908   9.789   3.032  0.2108 -0.2792  1.2587
   84GLOH    O2 9350   4.079   9.784   2.902  0.2730  0.9530 -0.0983
   84GLOH   H05 9351   4.121   9.852   2.846  0.7710  1.0143  0.3363
   84GLOH    C3 9352   4.070   9.906   3.114  0.4441 -0.2057  0.5235
   84GLOH   H06 9353   4.142   9.985   3.094  0.3242 -0.5939 -1.4637
   84GLOH   H07 9354   4.126   9.823   3.159  0.2186  1.0402  3.2257
   84GLOH    O3 9355   3.964   9.958   3.197  0.4303 -0.8690 -0.2459
   84GLOH   H01 9356   3.876   9.933   3.163  0.0725  1.0452 -0.8089
   85GLOH   H03 9357   3.963   9.837   0.667  2.1549  0.9441 -1.3903
   85GLOH    O1 9358   3.978   9.742   0.653 -0.4138  0.3222 -0.2105
   85GLOH    C1 9359   4.104   9.711   0.582  0.2797 -0.1577 -0.5966
   85GLOH   H02 9360   4.099   9.755   0.482  1.4162 -1.4477 -1.2424
   85GLOH   H08 9361   4.112   9.603   0.569 -1.5319 -0.6092  1.7381
   85GLOH    C2 9362   4.229   9.761   0.662 -0.3813 -0.6429  0.1370
   85GLOH   H04 9363   4.206   9.861   0.701 -0.6832  0.0507 -1.7821
   85GLOH    O2 9364   4.273   9.676   0.776 -0.4526 -0.4018 -0.1034
   85GLOH   H05 9365   4.266   9.734   0.854 -2.4111 -0.7267 -0.0010
   85GLOH    C3 9366   4.347   9.767   0.563  0.0471 -0.0529  0.0434
   85GLOH   H06 9367   4.373   9.670   0.520  1.8604  0.5873 -0.3455
   85GLOH   H07 9368   4.429   9.807   0.623 -0.3516  0.6571  0.1141
   85GLOH    O3 9369   4.328   9.854   0.454 -0.1286  0.4781  1.1751
   85GLOH   H01 9370   4.359   9.943   0.479 -0.2565  1.6374 -2.4897
   86GLOH   H03 9371   3.464   9.510   0.052 -2.9016  0.2340  0.1183
   86GLOH    O1 9372   3.445   9.418   0.075  0.0921 -0.6462 -0.6674
   86GLOH    C1 9373   3.409   9.348  -0.041  0.6281 -0.0080  0.2736
   86GLOH   H02 9374   3.355   9.421  -0.102 -0.2426  0.9764  2.1625
   86GLOH   H08 9375   3.338   9.266  -0.032 -1.2203  1.2176 -2.3246
   86GLOH    C2 9376   3.537   9.302  -0.111 -0.0410  0.0947  0.2160
   86GLOH   H04 9377   3.601   9.388  -0.131  0.5094 -0.2365  0.5331
   86GLOH    O2 9378   3.604   9.187  -0.039  0.5277 -0.1275  0.1660
   86GLOH   H05 9379   3.559   9.184   0.047 -1.7534  2.9323 -0.8182
   86GLOH    C3 9380   3.507   9.236  -0.242 -0.3414  0.6737  0.0615
   86GLOH   H06 9381   3.431   9.160  -0.225  3.0113 -2.8495  0.0321
   86GLOH   H07 9382   3.597   9.193  -0.286  0.0346  0.2604  1.2159
   86GLOH    O3 9383   3.452   9.331  -0.337 -0.3932 -0.6440 -0.3003
   86GLOH   H01 9384   3.516   9.351  -0.407 -0.4642 -0.2021 -0.2384
   87GLOH   H03 9385   3.015   9.650   2.435 -2.0204  1.6587 -0.2354
   87GLOH    O1 9386   2.979   9.579   2.378  0.1912  0.3371 -0.0483
   87GLOH    C1 9387   2.907   9.468   2.444 -0.1158  0.3365  0.5690
   87GLOH   H02 9388   2.862   9.405   2.367 -0.4711 -0.0332  1.0758
   87GLOH   H08 9389   2.822   9.504   2.502 -0.6664 -1.0440  0.6167
   87GLOH    C2 9390   2.999   9.382   2.534  0.2044 -0.0766 -0.2144
   87GLOH   H04 9391   3.036   9.445   2.616 -0.9953 -0.4935  0.6606
   87GLOH    O2 9392   2.947   9.257   2.587 -0.1917  0.4718  0.4213
   87GLOH   H05 9393   2.945   9.250   2.684  0.4419  0.5296  0.4368
   87GLOH    C3 9394   3.130   9.350   2.454  0.3858 -0.1446  0.7145
   87GLOH   H06 9395   3.184   9.445   2.446 -2.4023  1.4136 -0.3151
   87GLOH   H07 9396   3.110   9.322   2.351 -2.2376 -0.1445  1.1872
   87GLOH    O3 9397   3.205   9.245   2.514 -0.1199 -0.4475  0.0764
   87GLOH   H01 9398   3.297   9.276   2.522 -0.1440 -1.1322  3.7259
   88GLOH   H03 9399   4.440   9.569   1.560  2.6461 -1.6104  2.1303
   88GLOH    O1 9400   4.499   9.635   1.520 -0.3189 -0.2200 -0.1879
   88GLOH    C1 9401   4.630   9.606   1.563 -0.1674  0.5575  0.0429
   88GLOH   H02 9402   4.664   9.621   1.665 -1.0624  2.0858  0.1213
   88GLOH   H08 9403   4.693   9.678   1.510  0.6095 -1.0052 -1.2110
   88GLOH    C2 9404   4.695   9.467   1.530 -0.1763  0.1739  0.3124
   88GLOH   H04 9405   4.793   9.472   1.581  0.0933  0.0024 -0.1844
   88GLOH    O2 9406   4.625   9.365   1.595  0.4962 -0.0971 -0.0031
   88GLOH   H05 9407   4.547   9.341   1.542 -1.2539 -0.2338  2.5623
   88GLOH    C3 9408   4.696   9.451   1.376 -0.4610 -0.6629  1.1759
   88GLOH   H06 9409   4.597   9.480   1.341 -0.0497  1.8372  2.0273
   88GLOH   H07 9410   4.701   9.344   1.355 -0.9962 -0.6083  0.7398
   88GLOH    O3 9411   4.801   9.523   1.309  0.2013 -0.4975 -0.3124
   88GLOH   H01 9412   4.807   9.617   1.334  1.3087 -0.5356 -0.4221
   89GLOH   H03 9413   4.165   8.275   2.240 -0.1303  0.7620 -0.6640
   89GLOH    O1 9414   4.247   8.327   2.247  0.1458  0.2734 -0.2459
   89GLOH    C1 9415   4.318   8.276   2.366  0.8776  0.1150  0.0189
   89GLOH   H02 9416   4.362   8.361   2.419 -2.3161  0.8474  1.5885
   89GLOH   H08 9417   4.401   8.210   2.339 -0.4934 -1.3224 -0.7826
   89GLOH    C2 9418   4.216   8.206   2.463 -0.0564  0.2740 -0.9994
   89GLOH   H04 9419   4.270   8.181   2.556 -1.3907 -2.5787 -0.9553
   89GLOH    O2 9420   4.100   8.283   2.492 -1.1266 -0.3918 -0.1161
   89GLOH   H05 9421   4.033   8.234   2.544 -0.1019 -1.0334  0.6249
   89GLOH    C3 9422   4.176   8.076   2.390  0.4666 -0.4944  0.2259
   89GLOH   H06 9423   4.120   8.006   2.453 -0.0303  0.1161  0.4720
   89GLOH   H07 9424   4.269   8.026   2.365  0.3151 -0.5095 -0.3282
   89GLOH    O3 9425   4.108   8.109   2.268 -0.8439 -0.0376 -0.2578
   89GLOH   H01 9426   4.098   8.025   2.220 -1.2239  0.9461 -1.9249
   90GLOH   H03 9427   3.221   9.381   0.407 -0.0942  1.1356 -0.6471
   90GLOH    O1 9428   3.175   9.430   0.477  0.1669 -0.0511  0.3763
   90GLOH    C1 9429   3.264   9.435   0.587  0.5871 -0.8237 -0.3764
   90GLOH   H02 9430   3.331   9.349   0.591 -0.6807 -1.7277  5.6054
   90GLOH   H08 9431   3.203   9.432   0.677 -0.5293  2.8264 -0.9516
   90GLOH    C2 9432   3.349   9.567   0.582 -0.5270 -0.2444 -0.6309
   90GLOH   H04 9433   3.279   9.651   0.593  1.8288  1.4262  2.3581
   90GLOH    O2 9434   3.452   9.562   0.680  0.2821  0.0505 -0.3224
   90GLOH   H05 9435   3.488   9.653   0.680  1.0540 -0.2483 -0.1907
   90GLOH    C3 9436   3.423   9.575   0.447 -0.5837 -0.3726  1.0321
   90GLOH   H06 9437   3.454   9.474   0.421  2.0909  0.6813  0.0506
   90GLOH   H07 9438   3.509   9.641   0.448 -0.7941 -0.1006  1.4856
   90GLOH    O3 9439   3.333   9.628   0.350  0.1631  0.1878  0.3017
   90GLOH   H01 9440   3.275   9.558   0.316  1.3570 -1.5557  1.7532
   91GLOH   H03 9441   3.577   9.356   1.422 -0.7713  2.4495 -0.7062
   91GLOH    O1 9442   3.632   9.354   1.341 -0.5101 -0.5154 -0.5142
   91GLOH    C1 9443   3.561   9.378   1.212 -0.0740 -0.5142  0.1111
   91GLOH   H02 9444   3.489   9.459   1.214  0.5280  0.1402 -2.7465
   91GLOH   H08 9445   3.505   9.290   1.181  0.2000 -0.6531  0.0002
   91GLOH    C2 9446   3.661   9.408   1.100  0.3384  1.5560 -0.1139
   91GLOH   H04 9447   3.762   9.428   1.138  0.8898  0.7889 -1.1692
   91GLOH    O2 9448   3.675   9.294   1.017  0.2987  0.3081  0.0005
   91GLOH   H05 9449   3.738   9.244   1.072  0.6489  0.4733 -0.2534
   91GLOH    C3 9450   3.620   9.530   1.018  0.0096  0.5874 -0.8158
   91GLOH   H06 9451   3.515   9.519   0.989 -0.3256 -1.0670  0.9685
   91GLOH   H07 9452   3.686   9.517   0.932 -1.3370 -1.0081 -1.6387
   91GLOH    O3 9453   3.633   9.655   1.098 -0.0279  0.5376 -0.1029
   91GLOH   H01 9454   3.639   9.737   1.046  2.0141 -0.2924 -1.2563
   92GLOH   H03 9455   3.228   8.017   2.571 -1.5515 -1.5617  2.0066
   92GLOH    O1 9456   3.182   7.982   2.493  0.0390  0.2218  0.2379
   92GLOH    C1 9457   3.253   8.036   2.382  0.5568  0.1708  0.2738
   92GLOH   H02 9458   3.239   8.144   2.375  1.0905  0.1206 -1.9621
   92GLOH   H08 9459   3.223   7.985   2.291  3.2503 -1.2580  0.1138
   92GLOH    C2 9460   3.405   8.022   2.389 -1.0737  0.9878 -0.3671
   92GLOH   H04 9461   3.418   7.913   2.379 -0.1729  1.0959 -0.4355
   92GLOH    O2 9462   3.481   8.090   2.287  0.5390 -0.2662  0.3503
   92GLOH   H05 9463   3.577   8.074   2.284  0.5736  0.1459 -2.7705
   92GLOH    C3 9464   3.466   8.068   2.520 -1.1181 -0.2067  0.3683
   92GLOH   H06 9465   3.426   8.167   2.544 -1.1480 -0.2630  0.5551
   92GLOH   H07 9466   3.573   8.063   2.502 -1.3139  1.6039 -1.4459
   92GLOH    O3 9467   3.436   7.983   2.634 -0.2306 -0.1777  0.1751
   92GLOH   H01 9468   3.507   7.989   2.700  2.3135 -0.9805 -2.3728
   93GLOH   H03 9469   2.817   9.861   1.408  0.8124 -1.5505  0.3883
   93GLOH    O1 9470   2.869   9.914   1.471  0.1295 -0.2458 -0.1180
   93GLOH    C1 9471   2.895  10.049   1.430 -0.5913 -0.9556 -0.3621
   93GLOH   H02 9472   3.001  10.062   1.451 -0.7949  0.7604 -0.3800
   93GLOH   H08 9473   2.847  10.133   1.481 -1.1968 -1.3591 -0.2619
   93GLOH    C2 9474   2.882  10.079   1.279  0.1283 -0.4658 -0.3073
   93GLOH   H04 9475   2.955  10.022   1.220  0.4229 -0.7227  0.2996
   93GLOH    O2 9476   2.748  10.047   1.227 -0.0245 -0.3237 -1.2823
   93GLOH   H05 9477   2.739   9.950   1.229  0.4678 -0.3797  4.0243
   93GLOH    C3 9478   2.925  10.227   1.250  0.4016  0.6240  0.6964
   93GLOH   H06 9479   2.902  10.284   1.340  1.5079 -1.1191  2.1030
   93GLOH   H07 9480   2.875  10.265   1.160 -0.2277  0.2558  0.8835
   93GLOH    O3 9481   3.070  10.232   1.241 -0.4339  0.1007 -0.3509
   93GLOH   H01 9482   3.093  10.298   1.173 -1.3719  1.1225  0.3209
   94GLOH   H03 9483   3.471   0.940   2.205  2.3026  0.1044 -0.1408
   94GLOH    O1 9484   3.504   0.871   2.266 -0.2234 -1.0372  0.0165
   94GLOH    C1 9485   3.640   0.907   2.311 -0.3993 -0.2452  0.0978
   94GLOH   H02 9486   3.707   0.951   2.237 -0.8543  0.6317  0.1876
   94GLOH   H08 9487   3.684   0.813   2.342  0.4054 -0.1841 -0.8309
   94GLOH    C2 9488   3.642   0.994   2.437  0.4680  0.6450 -0.4453
   94GLOH   H04 9489   3.632   1.101   2.414 -1.7926 -0.0399 -2.8990
   94GLOH    O2 9490   3.528   0.957   2.517 -0.0712  0.1779 -0.2591
   94GLOH   H05 9491   3.469   0.902   2.462 -2.7772  0.8378  1.8572
   94GLOH    C3 9492   3.765   0.983   2.525  0.7441 -0.5489  0.3733
   94GLOH   H06 9493   3.779   0.876   2.543  0.2684 -0.3570  2.0012
   94GLOH   H07 9494   3.757   1.037   2.620 -1.7022 -0.8317  0.3511
   94GLOH    O3 9495   3.875   1.030   2.454 -0.1923  0.2474  0.1834
   94GLOH   H01 9496   3.939   1.059   2.522 -0.0774  3.1345 -1.0518
   95GLOH   H03 9497   3.616   9.754   1.367  0.4048 -1.0300 -1.0668
   95GLOH    O1 9498   3.696   9.810   1.359  0.0374 -0.3177  0.0193
   95GLOH    C1 9499   3.720   9.871   1.487 -0.4086  0.1592 -0.0921
   95GLOH   H02 9500   3.826   9.894   1.480 -0.0359 -0.5951  2.4703
   95GLOH   H08 9501   3.708   9.799   1.569  2.3369 -0.6042 -0.3299
   95GLOH    C2 9502   3.634  10.002   1.517  0.2269 -0.7144 -0.5166
   95GLOH   H04 9503   3.536   9.972   1.477 -0.1657 -0.5029  0.2577
   95GLOH    O2 9504   3.627  10.037   1.660  0.0520  0.3553  0.5811
   95GLOH   H05 9505   3.532  10.054   1.669  0.1818  1.4499 -0.1456
   95GLOH    C3 9506   3.679  10.120   1.434 -0.6153 -0.7014  0.8194
   95GLOH   H06 9507   3.679  10.090   1.329  0.5318  3.3649 -0.4367
   95GLOH   H07 9508   3.784  10.142   1.452 -0.7072  0.9729 -0.5061
   95GLOH    O3 9509   3.602  10.246   1.442 -0.0216  0.3337 -0.6365
   95GLOH   H01 9510   3.597  10.276   1.535  0.0034  2.0705 -1.1687
   96GLOH   H03 9511   3.260   0.389   0.208  0.9144 -1.2466  0.4546
   96GLOH    O1 9512   3.171   0.358   0.185  0.4584  0.3491  0.0067
   96GLOH    C1 9513   3.084   0.344   0.302  0.5146 -0.5877  0.1048
   96GLOH   H02 9514   3.037   0.442   0.312 -0.9135 -1.2133 -0.4592
   96GLOH   H08 9515   3.141   0.335   0.395  0.6578  0.3773  0.1159
   96GLOH    C2 9516   2.978   0.226   0.315  0.2632  0.1065  0.5215
   96GLOH   H04 9517   2.927   0.219   0.218  0.0118 -0.2008  0.6773
   96GLOH    O2 9518   3.036   0.097   0.339  0.6120  0.3419 -0.2386
   96GLOH   H05 9519   3.069   0.050   0.261  2.2335 -0.4602  0.9092
   96GLOH    C3 9520   2.867   0.266   0.419 -0.6637  0.2355 -0.6953
   96GLOH   H06 9521   2.796   0.183   0.408 -0.4795  0.1024 -0.8797
   96GLOH   H07 9522   2.820   0.355   0.377  2.0899  2.3565  0.5948
   96GLOH    O3 9523   2.927   0.289   0.548  0.2203  0.6130 -0.0307
   96GLOH   H01 9524   2.868   0.236   0.605  2.6635 -1.9460  0.2402
   97GLOH   H03 9525   2.911   9.892   1.621 -0.4794  1.7747 -0.1600
   97GLOH    O1 9526   2.945   9.910   1.710 -0.5763 -0.1349  0.2838
   97GLOH    C1 9527   2.928   9.801   1.801 -0.0309 -0.0368 -0.4684
   97GLOH   H02 9528   2.989   9.714   1.778 -0.4314 -0.5416  0.3459
   97GLOH   H08 9529   2.823   9.773   1.791  0.3291 -0.9134 -1.9055
   97GLOH    C2 9530   2.959   9.830   1.952  0.7687  0.2566  0.8116
   97GLOH   H04 9531   2.875   9.895   1.978  0.0098 -0.6720  0.7031
   97GLOH    O2 9532   2.951   9.711   2.037  0.4083  0.1850 -0.2273
   97GLOH   H05 9533   3.041   9.687   2.066  0.9753  2.3005 -0.1881
   97GLOH    C3 9534   3.095   9.907   1.950 -0.4219 -0.5406  0.1871
   97GLOH   H06 9535   3.174   9.853   1.899  2.2866  1.8990  1.6199
   97GLOH   H07 9536   3.129   9.926   2.052 -0.1871 -0.5585  0.1142
   97GLOH    O3 9537   3.085  10.033   1.879  0.2791 -0.1982 -1.0214
   97GLOH   H01 9538   3.035  10.024   1.796 -0.8532 -0.0160 -0.3681
   98GLOH   H03 9539   3.517   0.658   1.395  0.4217 -1.7594  1.7710
   98GLOH    O1 9540   3.611   0.677   1.373 -0.3297  0.5205  0.3377
   98GLOH    C1 9541   3.637   0.585   1.258  0.4621 -0.3481 -0.3097
   98GLOH   H02 9542   3.617   0.637   1.165  0.2720 -0.3971 -0.2971
   98GLOH   H08 9543   3.579   0.493   1.261  2.8759 -1.8844 -0.0186
   98GLOH    C2 9544   3.782   0.553   1.255  0.2657  0.1235  0.9753
   98GLOH   H04 9545   3.808   0.482   1.334 -3.3889 -1.1382  1.1127
   98GLOH    O2 9546   3.803   0.483   1.123 -0.2207  0.0608 -0.4948
   98GLOH   H05 9547   3.725   0.428   1.105  0.0150 -0.3730 -0.2087
   98GLOH    C3 9548   3.872   0.675   1.258 -0.2503  0.2233 -0.4476
   98GLOH   H06 9549   3.835   0.744   1.182 -1.3847  0.0165 -0.0956
   98GLOH   H07 9550   3.970   0.636   1.229  0.4790  0.8203  1.1672
   98GLOH    O3 9551   3.880   0.723   1.387 -0.3297 -0.0019 -0.2313
   98GLOH   H01 9552   3.793   0.750   1.421 -0.5861  0.7441 -1.4512
   99GLOH   H03 9553   4.310   9.374   2.293  1.0344 -1.3361 -1.6095
   99GLOH    O1 9554   4.284   9.449   2.236  0.4096 -0.2248  0.0927
   99GLOH    C1 9555   4.378   9.479   2.134  0.2716 -0.1158  0.4730
   99GLOH   H02 9556   4.412   9.383   2.095  1.1740  1.4881 -2.8900
   99GLOH   H08 9557   4.467   9.526   2.175 -0.8958 -0.0393  3.0012
   99GLOH    C2 9558   4.341   9.577   2.023 -0.7429  1.3845  0.4581
   99GLOH   H04 9559   4.243   9.556   1.977 -0.7058 -1.1628  1.4408
   99GLOH    O2 9560   4.330   9.707   2.067 -0.2487 -0.1654 -0.7463
   99GLOH   H05 9561   4.337   9.722   2.162  1.6001  2.4165 -1.2122
   99GLOH    C3 9562   4.445   9.565   1.911  0.1428  0.5011  0.6161
   99GLOH   H06 9563   4.545   9.585   1.949  1.7000 -1.6801 -2.0483
   99GLOH   H07 9564   4.422   9.636   1.831  1.0064 -1.6766 -1.6410
   99GLOH    O3 9565   4.455   9.436   1.857  0.7769 -0.0665  0.2114
   99GLOH   H01 9566   4.544   9.424   1.817 -0.9683 -0.0129 -3.9996
  100GLOH   H03 9567   2.959   8.929   0.926  0.7257  0.1727 -0.3498
  100GLOH    O1 9568   2.899   8.987   0.875  0.6351 -0.0215 -0.4642
  100GLOH    C1 9569   2.882   8.944   0.736  0.1219 -0.3230 -0.2126
  100GLOH   H02 9570   2.977   8.919   0.689  1.2611 -0.4257  2.0797
  100GLOH   H08 9571   2.856   9.030   0.675  0.3405  0.3385  0.6116
  100GLOH    C2 9572   2.788   8.824   0.721  0.1703  0.7822  0.6630
  100GLOH   H04 9573   2.696   8.855   0.773 -0.8381  1.7157 -1.6074
  100GLOH    O2 9574   2.742   8.788   0.590 -0.2026  0.1635 -0.1939
  100GLOH   H05 9575   2.718   8.870   0.544  1.6873  1.2968  0.8129
  100GLOH    C3 9576   2.844   8.695   0.788 -0.2733 -0.0283  0.1637
  100GLOH   H06 9577   2.768   8.617   0.783 -0.1382 -0.1195 -0.5429
  100GLOH   H07 9578   2.851   8.707   0.896 -0.7015  0.7797  0.1048
  100GLOH    O3 9579   2.958   8.634   0.730 -0.2407 -0.0575 -0.9811
  100GLOH   H01 9580   2.950   8.621   0.634  1.7288 -5.5048 -0.6227
  101GLOH   H03 9581   4.114   9.264   2.465 -1.7296  0.9997  1.1187
  101GLOH    O1 9582   4.188   9.319   2.498 -0.1925 -0.3268 -0.0216
  101GLOH    C1 9583   4.302   9.230   2.538 -0.2786 -0.0495  0.3405
  101GLOH   H02 9584   4.288   9.177   2.632 -3.6203  0.0208 -0.0608
  101GLOH   H08 9585   4.388   9.292   2.564  0.5033 -1.2714  0.7226
  101GLOH    C2 9586   4.333   9.137   2.422 -0.7009 -0.0708 -0.2280
  101GLOH   H04 9587   4.244   9.088   2.379 -0.8087 -0.2440  0.1861
  101GLOH    O2 9588   4.388   9.219   2.320  0.1703 -0.4473  0.4074
  101GLOH   H05 9589   4.341   9.193   2.239  0.5238  0.5948 -0.1396
  101GLOH    C3 9590   4.431   9.032   2.460  0.0227  0.3394  0.6831
  101GLOH   H06 9591   4.511   9.076   2.519 -0.7233 -1.5805  3.2083
  101GLOH   H07 9592   4.483   8.993   2.372  0.8463 -0.9523  1.7039
  101GLOH    O3 9593   4.369   8.927   2.534  0.1244 -0.1971  0.3466
  101GLOH   H01 9594   4.308   8.891   2.467 -0.9470  1.2988  0.4946
  102GLOH   H03 9595   3.425   8.591   1.049  0.5778 -0.1801 -0.4496
  102GLOH    O1 9596   3.434   8.495   1.030 -0.4202 -0.2651 -0.4946
  102GLOH    C1 9597   3.296   8.441   1.045 -0.1565 -0.3256 -0.9228
  102GLOH   H02 9598   3.256   8.457   0.945 -2.2869  1.0444  0.1183
  102GLOH   H08 9599   3.240   8.499   1.118 -2.3647 -2.6629 -0.7160
  102GLOH    C2 9600   3.296   8.295   1.088  0.2439 -0.6203  0.3936
  102GLOH   H04 9601   3.370   8.234   1.033  0.3471 -1.2929  1.2628
  102GLOH    O2 9602   3.325   8.288   1.229  0.4203  0.3387  0.0908
  102GLOH   H05 9603   3.421   8.297   1.242  0.7534  0.3630 -2.2243
  102GLOH    C3 9604   3.154   8.232   1.053  0.1479  0.2328 -0.0085
  102GLOH   H06 9605   3.086   8.298   1.107 -0.8758 -1.1475  0.4224
  102GLOH   H07 9606   3.147   8.131   1.094  0.1474  0.5477  0.7690
  102GLOH    O3 9607   3.125   8.226   0.913 -0.2319 -0.3599 -0.3700
  102GLOH   H01 9608   3.028   8.230   0.910 -0.2613 -1.4843 -1.0331
  103GLOH   H03 9609   3.954   7.973   1.740 -0.2653 -0.9716 -1.3748
  103GLOH    O1 9610   4.040   7.945   1.777 -0.3961 -0.0459 -0.3484
  103GLOH    C1 9611   4.027   7.896   1.910 -0.4003 -0.0248 -0.5777
  103GLOH   H02 9612   3.960   7.809   1.909 -1.6922  0.9613 -2.6962
  103GLOH   H08 9613   3.989   7.972   1.977  0.6778 -0.1844  0.2212
  103GLOH    C2 9614   4.163   7.855   1.962 -0.1128 -0.5902 -0.3886
  103GLOH   H04 9615   4.212   7.788   1.890  0.9311 -0.9816  0.6658
  103GLOH    O2 9616   4.245   7.976   1.983  0.5000  0.0956  0.1288
  103GLOH   H05 9617   4.274   8.018   1.900  0.4166  0.7866  0.4500
  103GLOH    C3 9618   4.163   7.784   2.096 -0.5305 -0.0391  0.2538
  103GLOH   H06 9619   4.269   7.774   2.122 -0.1395  2.3409 -0.3096
  103GLOH   H07 9620   4.133   7.682   2.074 -0.6068  0.6511 -3.1111
  103GLOH    O3 9621   4.083   7.842   2.205  0.8070  0.3979 -0.5087
  103GLOH   H01 9622   3.989   7.823   2.186  0.7766  0.7496 -0.7119
  104GLOH   H03 9623   3.076   9.153   0.689  0.8772 -2.3990 -0.4123
  104GLOH    O1 9624   3.118   9.156   0.777 -0.5655  0.0239  0.2366
  104GLOH    C1 9625   3.233   9.068   0.773  0.2834  0.2582  0.2977
  104GLOH   H02 9626   3.281   9.083   0.676  0.5489 -0.9716  0.2330
  104GLOH   H08 9627   3.197   8.966   0.782 -1.1248  0.7703  0.6762
  104GLOH    C2 9628   3.321   9.082   0.898  0.0642 -0.1894  0.6813
  104GLOH   H04 9629   3.266   9.068   0.992 -0.7839  1.1778  0.3921
  104GLOH    O2 9630   3.427   8.981   0.883  0.4464  0.1021  0.2890
  104GLOH   H05 9631   3.472   8.994   0.798  1.5950  1.7405  1.1162
  104GLOH    C3 9632   3.385   9.222   0.911  0.2448  0.6799 -0.9076
  104GLOH   H06 9633   3.437   9.220   1.007  0.8971  2.6934 -1.1937
  104GLOH   H07 9634   3.306   9.295   0.923 -1.5643 -1.7132  2.8159
  104GLOH    O3 9635   3.471   9.259   0.806  0.0629  0.6365  0.4805
  104GLOH   H01 9636   3.547   9.308   0.843 -0.3691  1.4154  0.3438
  105GLOH   H03 9637   3.352   8.307   0.268 -2.1879  1.3250  2.8947
  105GLOH    O1 9638   3.351   8.396   0.228 -0.2175 -0.1958 -0.7816
  105GLOH    C1 9639   3.369   8.399   0.086  0.7878  0.6123 -0.7880
  105GLOH   H02 9640   3.285   8.354   0.033  1.4701 -0.5701 -0.8843
  105GLOH   H08 9641   3.456   8.340   0.058 -0.4930 -1.2120 -1.0259
  105GLOH    C2 9642   3.375   8.546   0.040  0.0560  0.3061  0.1672
  105GLOH   H04 9643   3.268   8.567   0.031 -0.2389 -0.5468  1.5296
  105GLOH    O2 9644   3.451   8.642   0.122 -0.0080 -0.3099  0.0312
  105GLOH   H05 9645   3.465   8.595   0.206 -1.3392  2.0910  1.6669
  105GLOH    C3 9646   3.434   8.542  -0.105 -1.0629 -0.2670 -0.4899
  105GLOH   H06 9647   3.543   8.546  -0.103 -1.0102 -1.7816  1.4418
  105GLOH   H07 9648   3.410   8.634  -0.157 -0.5091  1.7915  2.7712
  105GLOH    O3 9649   3.387   8.434  -0.183 -0.0817  0.3410  0.4507
  105GLOH   H01 9650   3.434   8.434  -0.268 -1.2293 -0.8069 -0.2116
  106GLOH   H03 9651   3.924   8.174   1.370  2.2924 -0.2779 -0.8928
  106GLOH    O1 9652   3.880   8.139   1.290  0.1873  0.5758 -0.1429
  106GLOH    C1 9653   3.815   8.247   1.224  0.5284 -0.5967  0.6857
  106GLOH   H02 9654   3.725   8.208   1.177  0.2879  0.8681 -0.1306
  106GLOH   H08 9655   3.865   8.284   1.134 -2.4545  1.5611 -0.1493
  106GLOH    C2 9656   3.797   8.374   1.311  0.4002  0.4203 -0.2878
  106GLOH   H04 9657   3.748   8.345   1.405  1.8599 -0.5452  0.1786
  106GLOH    O2 9658   3.915   8.448   1.339  0.2662  0.6278  0.4431
  106GLOH   H05 9659   3.972   8.388   1.389 -0.2457 -1.2262 -1.1562
  106GLOH    C3 9660   3.688   8.457   1.239 -0.6209 -0.0477  0.5235
  106GLOH   H06 9661   3.717   8.503   1.145  0.5331 -1.2440  0.2831
  106GLOH   H07 9662   3.658   8.539   1.305 -0.9997  0.0571  0.2263
  106GLOH    O3 9663   3.569   8.385   1.213 -0.9379  0.6987  0.7865
  106GLOH   H01 9664   3.522   8.432   1.142 -2.2456 -1.3241  0.2932
  107GLOH   H03 9665   4.150   8.709   2.442 -0.8515 -0.0810 -0.6310
  107GLOH    O1 9666   4.171   8.788   2.389  0.0138 -0.0956 -0.3141
  107GLOH    C1 9667   4.083   8.809   2.286  0.4186  0.0549 -0.3481
  107GLOH   H02 9668   4.053   8.913   2.273 -2.1237 -0.4596  1.0830
  107GLOH   H08 9669   3.993   8.747   2.286  0.9162 -0.7122 -1.9975
  107GLOH    C2 9670   4.154   8.771   2.153  0.2628  0.2393  0.1924
  107GLOH   H04 9671   4.257   8.809   2.153  0.1708  0.5036  1.1717
  107GLOH    O2 9672   4.161   8.632   2.119 -0.0016 -0.4687 -0.5517
  107GLOH   H05 9673   4.231   8.608   2.057  1.1228 -0.6346  0.7602
  107GLOH    C3 9674   4.074   8.841   2.032  0.6472 -0.4085 -0.3025
  107GLOH   H06 9675   3.976   8.796   2.015  1.0687 -2.3264  2.1187
  107GLOH   H07 9676   4.132   8.845   1.939  1.5607 -1.8773  0.1780
  107GLOH    O3 9677   4.037   8.978   2.050  0.3952  0.5423 -0.2223
  107GLOH   H01 9678   3.940   8.982   2.044 -0.0112 -1.4739  3.6472
  108GLOH   H03 9679   4.034   9.012   1.617 -0.2731 -0.1854  1.7006
  108GLOH    O1 9680   4.101   8.950   1.653  0.4334 -0.3755  0.0689
  108GLOH    C1 9681   4.200   9.032   1.723  0.1682 -0.0111  0.1163
  108GLOH   H02 9682   4.275   9.076   1.657  0.8251  1.1768  1.6257
  108GLOH   H08 9683   4.258   8.971   1.792  5.2354  0.3454 -3.5579
  108GLOH    C2 9684   4.146   9.157   1.789  0.7946 -0.1259 -0.3651
  108GLOH   H04 9685   4.067   9.115   1.854  1.4886 -0.1984  0.4514
  108GLOH    O2 9686   4.243   9.233   1.860  0.1683 -0.0316  0.0196
  108GLOH   H05 9687   4.312   9.273   1.805 -1.3175 -0.9501 -2.6174
  108GLOH    C3 9688   4.087   9.247   1.675 -0.1614 -0.0627  0.1828
  108GLOH   H06 9689   4.170   9.262   1.606  0.0027  1.0070  0.5991
  108GLOH   H07 9690   4.075   9.345   1.722  3.9290  0.9879 -0.6933
  108GLOH    O3 9691   3.982   9.182   1.601  0.0107 -0.1132 -0.2957
  108GLOH   H01 9692   3.958   9.243   1.529  1.7653  1.1435  0.1524
  109GLOH   H03 9693   4.429   0.442   0.026  0.2295 -0.6283  1.9234
  109GLOH    O1 9694   4.391   0.529   0.052  0.1002  0.2017 -0.8777
  109GLOH    C1 9695   4.435   0.559   0.186 -0.5550 -0.8788 -0.3505
  109GLOH   H02 9696   4.402   0.659   0.213  0.0951 -0.5773 -0.6684
  109GLOH   H08 9697   4.543   0.559   0.200 -0.8562 -0.8633  2.3720
  109GLOH    C2 9698   4.381   0.467   0.290  0.2800 -0.0696 -0.7177
  109GLOH   H04 9699   4.275   0.461   0.261  0.1355  1.0896 -0.4388
  109GLOH    O2 9700   4.435   0.329   0.274 -0.4119  0.3616 -0.1803
  109GLOH   H05 9701   4.412   0.296   0.186  1.3502 -4.8186  1.1341
  109GLOH    C3 9702   4.394   0.521   0.432 -0.0151 -0.0147 -0.0714
  109GLOH   H06 9703   4.499   0.544   0.450 -0.2621  0.8037  0.3610
  109GLOH   H07 9704   4.359   0.443   0.500 -1.4198 -0.4400 -1.2631
  109GLOH    O3 9705   4.312   0.636   0.453  0.3936 -0.4330  0.4119
  109GLOH   H01 9706   4.288   0.643   0.547 -0.5184  0.2896  0.1328
  110GLOH   H03 9707   3.838   0.662   2.019 -0.3803 -0.1278 -0.1416
  110GLOH    O1 9708   3.786   0.723   1.963 -0.3686  0.4299  0.4460
  110GLOH    C1 9709   3.861   0.755   1.845  0.1506 -0.6725  0.7184
  110GLOH   H02 9710   3.865   0.662   1.788 -0.6473 -1.1259  1.3910
  110GLOH   H08 9711   3.960   0.782   1.881 -0.8268  1.1702  2.1337
  110GLOH    C2 9712   3.805   0.870   1.759  0.3364 -0.6863  0.4680
  110GLOH   H04 9713   3.828   0.962   1.815  1.4551 -1.0930  0.6723
  110GLOH    O2 9714   3.852   0.878   1.626 -0.5576 -0.0554  0.2466
  110GLOH   H05 9715   3.947   0.857   1.622 -0.6867 -0.5549 -0.4870
  110GLOH    C3 9716   3.650   0.858   1.746 -0.4106 -0.3861  0.4318
  110GLOH   H06 9717   3.621   0.767   1.694  1.2162  0.0898 -1.3761
  110GLOH   H07 9718   3.624   0.945   1.684  0.1399  0.7606  1.7853
  110GLOH    O3 9719   3.595   0.881   1.872 -0.2984  0.0649  0.4388
  110GLOH   H01 9720   3.650   0.829   1.934 -2.2637 -1.8062  0.6643
  111GLOH   H03 9721   3.943   9.801   2.372  0.1756 -0.0314 -0.7951
  111GLOH    O1 9722   4.020   9.855   2.395  0.0240  0.2005 -0.8267
  111GLOH    C1 9723   4.123   9.803   2.485  0.2117  0.1099  0.2317
  111GLOH   H02 9724   4.068   9.731   2.547 -1.0536 -0.8450 -1.9438
  111GLOH   H08 9725   4.157   9.891   2.540 -3.6806 -0.0912  3.2421
  111GLOH    C2 9726   4.231   9.711   2.431  0.3525  0.1631  0.4493
  111GLOH   H04 9727   4.180   9.628   2.380 -1.0991 -0.4086  2.7540
  111GLOH    O2 9728   4.316   9.780   2.338  0.7473  0.3862  0.3065
  111GLOH   H05 9729   4.283   9.871   2.328 -0.3978  0.1945  2.1561
  111GLOH    C3 9730   4.318   9.645   2.545  0.0616  0.7693 -0.3813
  111GLOH   H06 9731   4.351   9.724   2.612  0.0831  0.2337  0.2491
  111GLOH   H07 9732   4.400   9.583   2.508 -1.2771 -1.1052 -0.2865
  111GLOH    O3 9733   4.236   9.552   2.617  0.0224 -0.3738 -0.4305
  111GLOH   H01 9734   4.242   9.463   2.578 -0.6622 -1.1181  1.1053
  112GLOH   H03 9735   3.890   8.898   0.009 -0.1606 -4.1210 -2.5730
  112GLOH    O1 9736   3.956   8.859   0.069 -0.0400  0.0325  0.2023
  112GLOH    C1 9737   3.920   8.726   0.118 -0.0806  1.1172  0.1128
  112GLOH   H02 9738   4.007   8.665   0.141 -1.1369  0.4106  2.3351
  112GLOH   H08 9739   3.865   8.668   0.043  0.0326 -1.0098  1.6258
  112GLOH    C2 9740   3.826   8.723   0.237  0.3454  0.0062 -0.2494
  112GLOH   H04 9741   3.787   8.621   0.243 -0.2545  0.3264  2.0570
  112GLOH    O2 9742   3.881   8.766   0.363 -0.0576 -0.5435 -0.3100
  112GLOH   H05 9743   3.975   8.744   0.372 -0.5176 -2.0162  1.0180
  112GLOH    C3 9744   3.711   8.818   0.199 -0.3938  1.2008  1.1168
  112GLOH   H06 9745   3.759   8.916   0.196  0.9916  0.5186 -3.1992
  112GLOH   H07 9746   3.639   8.819   0.280 -1.1805 -0.1936  0.4522
  112GLOH    O3 9747   3.637   8.785   0.077 -0.3240 -0.3261 -0.1617
  112GLOH   H01 9748   3.560   8.727   0.091  0.4665 -0.8368  2.0922
  113GLOH   H03 9749   3.297   8.629   0.770 -1.4356  1.5858 -2.8108
  113GLOH    O1 9750   3.371   8.613   0.708 -0.0415  0.0738 -0.8757
  113GLOH    C1 9751   3.381   8.731   0.623 -0.4013  0.3126  0.3723
  113GLOH   H02 9752   3.452   8.802   0.665 -0.5321 -0.0332  1.1761
  113GLOH   H08 9753   3.279   8.772   0.630 -1.1366 -1.3819 -0.2148
  113GLOH    C2 9754   3.428   8.687   0.480  0.1402  0.0687 -0.8060
  113GLOH   H04 9755   3.357   8.611   0.445  1.6041 -2.3290  1.3351
  113GLOH    O2 9756   3.412   8.799   0.392 -0.2408 -0.4862  0.2221
  113GLOH   H05 9757   3.451   8.880   0.429 -2.1022  0.0017  1.1669
  113GLOH    C3 9758   3.571   8.629   0.489 -0.6595  0.1705 -0.3445
  113GLOH   H06 9759   3.645   8.709   0.487 -3.3292  2.6848 -0.8268
  113GLOH   H07 9760   3.588   8.571   0.399  2.9647 -2.8652  2.1144
  113GLOH    O3 9761   3.590   8.539   0.600 -0.1932 -0.3602  0.2041
  113GLOH   H01 9762   3.526   8.567   0.667 -0.1602  1.0238 -0.3208
  114GLOH   H03 9763   3.446   9.933   2.228 -0.6261  0.6356 -0.2239
  114GLOH    O1 9764   3.433   9.860   2.164 -0.3157 -0.1767  0.6312
  114GLOH    C1 9765   3.561   9.829   2.104  0.0619  0.1585 -0.0064
  114GLOH   H02 9766   3.579   9.723   2.084 -3.5238 -0.8571  1.8095
  114GLOH   H08 9767   3.628   9.872   2.178  0.2294  0.5739 -0.3934
  114GLOH    C2 9768   3.578   9.908   1.972  0.5287  0.0913 -0.1000
  114GLOH   H04 9769   3.573  10.015   1.997 -0.2269 -0.0273  0.2468
  114GLOH    O2 9770   3.713   9.898   1.911 -0.1516 -0.6567  1.0259
  114GLOH   H05 9771   3.733   9.951   1.832  2.4065  0.5089  2.3683
  114GLOH    C3 9772   3.465   9.862   1.883  0.0813 -0.8620  0.2983
  114GLOH   H06 9773   3.458   9.932   1.799 -0.6050 -1.0056  0.2347
  114GLOH   H07 9774   3.373   9.874   1.940 -1.1919  0.5928 -1.9854
  114GLOH    O3 9775   3.483   9.726   1.844 -0.5046 -0.1219  0.1247
  114GLOH   H01 9776   3.424   9.669   1.897 -0.3548 -0.1159  0.2934
  115GLOH   H03 9777   3.498   0.239   1.277  2.9115  0.4255 -0.4494
  115GLOH    O1 9778   3.513   0.264   1.184  0.0366 -0.1523 -1.1017
  115GLOH    C1 9779   3.528   0.142   1.114  0.0483 -0.6466  0.3384
  115GLOH   H02 9780   3.610   0.084   1.157  1.1163 -0.2862 -1.1827
  115GLOH   H08 9781   3.542   0.163   1.008 -0.2277  1.4368  0.7123
  115GLOH    C2 9782   3.392   0.059   1.102 -0.3882 -0.5041 -0.4498
  115GLOH   H04 9783   3.316   0.124   1.057  1.1347  0.6091 -1.4684
  115GLOH    O2 9784   3.418  -0.058   1.023  0.2282 -0.5439  0.2458
  115GLOH   H05 9785   3.331  -0.095   0.999  0.8614 -3.7095  2.5015
  115GLOH    C3 9786   3.342   0.023   1.245 -0.1243 -0.5343  0.4468
  115GLOH   H06 9787   3.421  -0.040   1.286  1.3632  0.5606 -0.6722
  115GLOH   H07 9788   3.259  -0.048   1.245  1.6016 -2.6246  2.1145
  115GLOH    O3 9789   3.314   0.132   1.337  0.3870 -0.6670  0.7011
  115GLOH   H01 9790   3.225   0.165   1.316  0.2895 -0.7515  0.9717
  116GLOH   H03 9791   3.646   9.675   1.796 -1.4682 -0.4593 -2.7986
  116GLOH    O1 9792   3.720   9.621   1.762  0.3756  0.3008 -0.1595
  116GLOH    C1 9793   3.690   9.522   1.663  0.1238  0.7504 -0.0156
  116GLOH   H02 9794   3.789   9.489   1.633 -1.1632 -0.7999 -2.7947
  116GLOH   H08 9795   3.639   9.554   1.572  0.3717 -2.0186 -1.1961
  116GLOH    C2 9796   3.611   9.394   1.714 -0.6782  0.2760 -0.2478
  116GLOH   H04 9797   3.513   9.424   1.755 -0.7722  0.1234 -0.3600
  116GLOH    O2 9798   3.577   9.316   1.599  0.2319  0.0045 -0.2192
  116GLOH   H05 9799   3.502   9.261   1.627 -0.4296  2.2318  2.4974
  116GLOH    C3 9800   3.697   9.298   1.805  0.1883 -0.0615  0.9312
  116GLOH   H06 9801   3.775   9.273   1.734  0.6211  2.2529  0.5572
  116GLOH   H07 9802   3.633   9.211   1.820 -0.2460  0.2851  1.1046
  116GLOH    O3 9803   3.757   9.344   1.932  0.0824  0.2265 -0.5219
  116GLOH   H01 9804   3.807   9.427   1.921  0.1641  0.5664  2.1927
  117GLOH   H03 9805   3.055   9.011   2.326  0.6082 -1.6531  1.3676
  117GLOH    O1 9806   3.089   8.977   2.241 -0.8409  0.0391  0.0688
  117GLOH    C1 9807   3.221   8.924   2.238  0.7883 -0.1037 -0.0840
  117GLOH   H02 9808   3.260   8.918   2.137  2.6988 -0.1153  0.6296
  117GLOH   H08 9809   3.235   8.829   2.288  0.2983  0.5959  1.4153
  117GLOH    C2 9810   3.314   9.023   2.308 -0.2016 -0.6289  0.4915
  117GLOH   H04 9811   3.268   9.054   2.403  1.3183  1.7391  0.5051
  117GLOH    O2 9812   3.442   8.965   2.351  0.9990  0.5253  0.0157
  117GLOH   H05 9813   3.502   9.041   2.361  0.7179  0.7374  0.0763
  117GLOH    C3 9814   3.338   9.147   2.218  0.2626 -0.1399  0.3601
  117GLOH   H06 9815   3.243   9.198   2.218 -1.0826 -2.5017  2.2356
  117GLOH   H07 9816   3.361   9.125   2.114 -2.0698  0.9918 -0.4154
  117GLOH    O3 9817   3.443   9.228   2.275  0.7481 -0.5033 -0.2718
  117GLOH   H01 9818   3.485   9.297   2.222  1.1228  0.5501  1.3627
  118GLOH   H03 9819   4.467   9.796   0.143 -0.1379 -0.9762  0.3050
  118GLOH    O1 9820   4.444   9.802   0.049  0.0480 -0.7045  0.2774
  118GLOH    C1 9821   4.414   9.667   0.005 -0.0419  0.1844 -0.4182
  118GLOH   H02 9822   4.505   9.620  -0.032 -0.0804  0.3456 -0.7216
  118GLOH   H08 9823   4.344   9.670  -0.079 -0.7475 -2.9006  0.0063
  118GLOH    C2 9824   4.350   9.576   0.110  0.1581 -0.1150  0.6668
  118GLOH   H04 9825   4.244   9.597   0.129 -0.3290  0.5707 -2.6014
  118GLOH    O2 9826   4.351   9.439   0.065  0.1367  0.1718 -0.4998
  118GLOH   H05 9827   4.423   9.383   0.100 -2.7926 -2.6230  1.3430
  118GLOH    C3 9828   4.434   9.589   0.244  0.2799 -0.3188 -0.0259
  118GLOH   H06 9829   4.523   9.526   0.244 -0.7059 -1.7642 -1.4888
  118GLOH   H07 9830   4.369   9.555   0.325 -0.9419  0.9270 -0.4664
  118GLOH    O3 9831   4.463   9.727   0.272 -0.0914 -0.6331  0.0006
  118GLOH   H01 9832   4.397   9.761   0.336 -0.1768  0.4577 -0.6566
  119GLOH   H03 9833   4.059   0.464   0.154 -2.0265 -0.3814  3.0501
  119GLOH    O1 9834   4.046   0.369   0.140 -0.2440 -0.2070 -0.2847
  119GLOH    C1 9835   3.980   0.343   0.016  0.5905  0.1881  1.3557
  119GLOH   H02 9836   3.974   0.235  -0.000  1.1557  0.2015  1.0085
  119GLOH   H08 9837   4.040   0.374  -0.070 -0.8730 -2.8041 -0.8325
  119GLOH    C2 9838   3.834   0.403   0.015  0.1396 -0.0690  0.0099
  119GLOH   H04 9839   3.845   0.509   0.043 -1.5867 -0.2485  1.4004
  119GLOH    O2 9840   3.776   0.382  -0.120 -0.0733  0.3154 -0.0620
  119GLOH   H05 9841   3.732   0.462  -0.155 -1.3542  0.1799  1.1784
  119GLOH    C3 9842   3.755   0.329   0.121  0.1675  0.4036 -0.2213
  119GLOH   H06 9843   3.817   0.284   0.199  1.8711  0.7402 -1.3698
  119GLOH   H07 9844   3.719   0.235   0.079  1.5921 -0.0562 -0.4631
  119GLOH    O3 9845   3.648   0.399   0.182  0.6640  0.7495  0.6735
  119GLOH   H01 9846   3.672   0.446   0.263 -0.2536  0.2518  1.2530
  120GLOH   H03 9847   4.792   9.842   0.552 -1.7576 -0.7773 -0.1597
  120GLOH    O1 9848   4.735   9.823   0.629 -0.4884 -0.1628  0.9474
  120GLOH    C1 9849   4.675   9.942   0.684 -0.3061 -0.2492  0.5160
  120GLOH   H02 9850   4.606   9.913   0.763 -1.1757 -0.6248 -0.3683
  120GLOH   H08 9851   4.616   9.985   0.603 -1.2386  3.5884  3.0807
  120GLOH    C2 9852   4.783  10.054   0.731 -0.4877 -0.3560  0.0323
  120GLOH   H04 9853   4.847  10.003   0.804 -1.5569 -0.7689  0.6987
  120GLOH    O2 9854   4.866  10.110   0.622  0.3164 -0.0590 -0.6518
  120GLOH   H05 9855   4.959  10.126   0.646  0.6524 -3.1860  0.3656
  120GLOH    C3 9856   4.702  10.166   0.786  0.2901 -0.2156  0.1891
  120GLOH   H06 9857   4.757  10.248   0.831 -1.7034  0.4469  1.5128
  120GLOH   H07 9858   4.659  10.111   0.870 -0.2391 -2.3178 -1.4037
  120GLOH    O3 9859   4.600  10.210   0.697  0.5304  0.2294 -0.8178
  120GLOH   H01 9860   4.636  10.269   0.628  0.7841 -0.5459 -1.3574
  121ACOH    H4 9861   3.947   1.076   0.021 -2.4055  1.3685 -1.7956
  121ACOH    O2 9862   4.025   1.128  -0.002 -0.6885 -0.2695  0.1865
  121ACOH    C2 9863   4.071   1.114  -0.128 -0.4139  0.3122  0.6508
  121ACOH    O1 9864   4.038   1.029  -0.206  0.9170  0.6644 -0.2505
  121ACOH    C1 9865   4.177   1.210  -0.158 -0.2556  0.1860  0.5141
  121ACOH    H1 9866   4.265   1.163  -0.202 -0.7529  0.7940 -1.1872
  121ACOH    H2 9867   4.208   1.274  -0.076  3.0739 -1.7677  0.8753
  121ACOH    H3 9868   4.135   1.267  -0.241 -0.2379 -0.0271  0.3574
  122ACOH    H4 9869   4.810   0.117   0.459  0.7239 -1.0332  0.1854
  122ACOH    O2 9870   4.778   0.104   0.368 -0.3830  0.1461  0.3917
  122ACOH    C2 9871   4.792  -0.026   0.333 -0.1553  0.1937  0.6329
  122ACOH    O1 9872   4.855  -0.109   0.397 -0.2845 -0.0625  0.4536
  122ACOH    C1 9873   4.764  -0.045   0.189  0.2348  0.5593  0.8343
  122ACOH    H1 9874   4.857  -0.045   0.132  0.1823  1.7160  0.7412
  122ACOH    H2 9875   4.694   0.028   0.146  0.5989  0.8777  0.7801
  122ACOH    H3 9876   4.716  -0.142   0.181 -0.7039  1.0711  0.0838
  123ACOH    H4 9877   2.841   8.279   2.061 -1.0428  1.6764  1.5688
  123ACOH    O2 9878   2.827   8.208   2.125  0.0468  0.0942  0.0753
  123ACOH    C2 9879   2.927   8.128   2.167  0.2316 -0.8239  0.0192
  123ACOH    O1 9880   3.042   8.137   2.135 -0.2189 -0.0919 -0.1164
  123ACOH    C1 9881   2.875   8.026   2.257 -0.2691 -0.1415 -0.1656
  123ACOH    H1 9882   2.886   8.049   2.363  0.8277  0.2790 -0.3637
  123ACOH    H2 9883   2.917   7.929   2.232  0.1169  0.6581 -2.7896
  123ACOH    H3 9884   2.770   8.003   2.238 -0.0390 -1.4608  0.1539
  124ACOH    H4 9885   2.781   8.273   1.139  2.2645  2.7449 -0.2554
  124ACOH    O2 9886   2.764   8.289   1.044  0.0418  0.2874 -0.3103
  124ACOH    C2 9887   2.771   8.183   0.965 -0.4225 -0.1350  0.8871
  124ACOH    O1 9888   2.858   8.101   0.991 -0.4251 -0.1605 -0.9126
  124ACOH    C1 9889   2.722   8.204   0.832 -0.1756 -0.0066 -0.1723
  124ACOH    H1 9890   2.731   8.122   0.761  0.3690  0.4438 -0.6291
  124ACOH    H2 9891   2.788   8.284   0.797  1.1569 -0.9875  0.0648
  124ACOH    H3 9892   2.620   8.243   0.835 -0.4656 -0.6994 -0.9411
  125ACOH    H4 9893   3.602   7.557   1.018 -0.1358 -0.7930  1.1638
  125ACOH    O2 9894   3.623   7.466   0.991  0.5744 -0.3286  0.1280
  125ACOH    C2 9895   3.723   7.469   0.907 -0.4879 -0.2666 -0.0096
  125ACOH    O1 9896   3.778   7.567   0.860  0.1997 -0.0455 -0.0290
  125ACOH    C1 9897   3.758   7.333   0.863 -0.4155 -0.3159 -0.0813
  125ACOH    H1 9898   3.821   7.336   0.775 -0.2741  0.5491  0.0431
  125ACOH    H2 9899   3.668   7.273   0.847 -1.4812  1.8522 -2.5697
  125ACOH    H3 9900   3.822   7.287   0.939  2.9345  1.1481 -1.9017
  126ACOH    H4 9901   5.170   0.086   0.989 -1.1132  2.7597  1.6676
  126ACOH    O2 9902   5.242   0.134   0.945 -0.1925 -0.3699 -0.4508
  126ACOH    C2 9903   5.205   0.172   0.823 -0.6223  0.7721  0.4053
  126ACOH    O1 9904   5.098   0.144   0.769 -0.1355  0.1290 -0.1216
  126ACOH    C1 9905   5.300   0.263   0.757  0.8060  1.1311  0.2541
  126ACOH    H1 9906   5.330   0.227   0.659 -0.1478 -2.8051  1.3364
  126ACOH    H2 9907   5.390   0.273   0.817  2.0942  1.0714 -1.6307
  126ACOH    H3 9908   5.258   0.363   0.754  0.0266  0.7725 -1.1323
  127ACOH    H4 9909   3.881   1.189   2.353 -2.8733 -2.0569 -0.3442
  127ACOH    O2 9910   3.826   1.265   2.330 -0.1185  0.1997  0.2147
  127ACOH    C2 9911   3.829   1.353   2.430 -0.5460  0.7234  0.0135
  127ACOH    O1 9912   3.852   1.320   2.548 -0.1106  0.3434 -0.1676
  127ACOH    C1 9913   3.745   1.468   2.389  0.3801  0.5232  0.5315
  127ACOH    H1 9914   3.786   1.527   2.307  0.6651  2.7151  2.2238
  127ACOH    H2 9915   3.744   1.526   2.481  2.2195  1.5199 -0.0462
  127ACOH    H3 9916   3.643   1.430   2.377  1.3331 -1.7625 -0.7236
  128ACOH    H4 9917   2.841   8.841   1.787  0.7855  5.0262  1.6671
  128ACOH    O2 9918   2.768   8.817   1.846  0.6053  0.2551 -0.2332
  128ACOH    C2 9919   2.739   8.690   1.831 -0.5710  0.0883  0.4690
  128ACOH    O1 9920   2.799   8.620   1.755 -0.7106 -0.4411 -0.7996
  128ACOH    C1 9921   2.633   8.639   1.921 -0.3070  0.5632  0.6772
  128ACOH    H1 9922   2.620   8.532   1.934 -2.7467  0.9517  1.9272
  128ACOH    H2 9923   2.536   8.668   1.880  0.9189  0.1445 -2.6813
  128ACOH    H3 9924   2.645   8.687   2.019  1.7825  0.7704  0.3393
  129ACOH    H4 9925   4.035   0.710   1.428 -0.1122 -0.8153 -0.8493
  129ACOH    O2 9926   4.115   0.659   1.448 -0.2214 -0.5343  0.3115
  129ACOH    C2 9927   4.165   0.709   1.557 -0.1886  0.0263 -0.2139
  129ACOH    O1 9928   4.109   0.793   1.630 -0.3962  0.0611  0.0044
  129ACOH    C1 9929   4.301   0.663   1.603 -0.2610  0.1306  0.0939
  129ACOH    H1 9930   4.331   0.686   1.705 -2.1194  1.1023  0.4449
  129ACOH    H2 9931   4.365   0.720   1.537 -0.2160 -0.3454 -0.2752
  129ACOH    H3 9932   4.309   0.559   1.572 -2.5298 -0.5008  1.5406
  130ACOH    H4 9933   2.987   9.277   1.489 -1.7829  2.6517 -0.9487
  130ACOH    O2 9934   2.964   9.254   1.398  0.4239 -0.5932 -0.7587
  130ACOH    C2 9935   2.962   9.116   1.383 -0.1742 -0.1625  0.7565
  130ACOH    O1 9936   2.970   9.027   1.464  0.1736 -0.6083 -0.4118
  130ACOH    C1 9937   2.901   9.084   1.256  0.6001  0.3756 -0.0664
  130ACOH    H1 9938   2.879   8.978   1.242 -0.5698  0.3898  1.5242
  130ACOH    H2 9939   2.968   9.116   1.176 -2.1272 -0.8137 -2.9328
  130ACOH    H3 9940   2.806   9.136   1.244 -0.5286 -1.1425  2.0058
  131ACOH    H4 9941   4.670   9.233   0.408 -0.1918 -1.2017  2.5922
  131ACOH    O2 9942   4.634   9.153   0.366  0.1069  0.1043 -0.2909
  131ACOH    C2 9943   4.562   9.163   0.250  0.3806  0.1236 -0.5565
  131ACOH    O1 9944   4.538   9.266   0.188  0.5619 -0.9049  1.2148
  131ACOH    C1 9945   4.513   9.030   0.213  0.1963  0.3066  0.0442
  131ACOH    H1 9946   4.584   8.955   0.245 -1.7386 -1.9620 -0.8416
  131ACOH    H2 9947   4.494   9.029   0.106 -1.5381 -0.6357  0.3400
  131ACOH    H3 9948   4.422   8.990   0.258 -2.3345  0.6584 -4.4750
  132ACOH    H4 9949   3.903   9.657   0.530 -1.0787  1.2592  0.6897
  132ACOH    O2 9950   3.835   9.624   0.469 -0.1971 -0.0876  0.4180
  132ACOH    C2 9951   3.896   9.562   0.362  0.2240 -0.2003 -0.0206
  132ACOH    O1 9952   4.011   9.567   0.330  0.4943 -0.3045 -0.5697
  132ACOH    C1 9953   3.798   9.539   0.250 -0.6013 -1.2036 -0.1687
  132ACOH    H1 9954   3.729   9.461   0.282 -1.5964 -0.8766 -1.4750
  132ACOH    H2 9955   3.858   9.515   0.163 -1.0504  1.5469 -1.2929
  132ACOH    H3 9956   3.751   9.635   0.230  2.2718  0.5639  1.3097
  133SOL     OW 9957   4.413   8.690   0.112 -0.2643 -0.1197 -0.1531
  133SOL    HW1 9958   4.442   8.693   0.017  1.0855  0.0718  0.2546
  133SOL    HW2 9959   4.355   8.769   0.132  0.0811  0.2502 -0.6158
  134SOL     OW 9960   3.485   8.379   1.584  0.0386 -0.3661 -0.0434
  134SOL    HW1 9961   3.503   8.285   1.555  1.4717  0.4219 -1.7956
  134SOL    HW2 9962   3.386   8.397   1.580 -0.2904 -1.9317  0.7901
  135SOL     OW 9963   4.133   0.095   0.793 -0.2255 -0.1951  0.2074
  135SOL    HW1 9964   4.155   0.189   0.818  0.2798 -0.4696  0.8006
  135SOL    HW2 9965   4.168   0.033   0.862 -0.2665 -0.8480 -0.3522
  136SOL     OW 9966   3.131   9.775   2.521  0.6156 -0.2435 -0.4481
  136SOL    HW1 9967   3.230   9.774   2.511  0.7924 -0.1599  1.1707
  136SOL    HW2 9968   3.096   9.864   2.491  0.9896 -0.3505 -1.2301
  137SOL     OW 9969   3.745   7.955   2.013  0.5252  0.2113  0.1749
  137SOL    HW1 9970   3.692   7.953   1.928 -0.5789  1.9811  0.7823
  137SOL    HW2 9971   3.776   8.049   2.030  1.3482 -0.2675  1.3680
  138SOL     OW 9972   2.738   7.867   1.165  0.5375 -0.3384  0.1069
  138SOL    HW1 9973   2.792   7.800   1.115  2.3754  1.3302 -0.1755
  138SOL    HW2 9974   2.750   7.958   1.125 -0.4003  0.5057  1.6664
  139SOL     OW 9975   9.690   8.967   1.638  0.3972 -0.4488 -0.1425
  139SOL    HW1 9976   9.737   9.051   1.664  0.6647 -0.8481  0.6767
  139SOL    HW2 9977   9.593   8.986   1.623 -0.1793 -0.6015  3.1914
  140SOL     OW 9978   3.548   0.745   0.736  0.1616  0.2289  0.1846
  140SOL    HW1 9979   3.625   0.721   0.676 -0.8499 -0.2321 -0.9477
  140SOL    HW2 9980   3.561   0.838   0.771  0.0620  1.0572 -1.9024
  141SOL     OW 9981   3.237   0.036   0.525  0.7250 -0.2714  0.7662
  141SOL    HW1 9982   3.316  -0.009   0.484  0.3111 -1.8782  1.6800
  141SOL    HW2 9983   3.187   0.088   0.456  0.2299 -2.6395 -0.6950
  142SOL     OW 9984   3.162   0.220   2.080  0.2495 -0.0579  0.2982
  142SOL    HW1 9985   3.067   0.230   2.111  0.8203 -2.4279  3.0679
  142SOL    HW2 9986   3.167   0.144   2.015  0.6174 -1.7775  2.2690
  143SOL     OW 9987   3.437   0.068   2.328  0.7097 -0.3941 -0.7628
  143SOL    HW1 9988   3.483   0.073   2.417  0.6808  0.5859 -0.7945
  143SOL    HW2 9989   3.455   0.152   2.277  0.5104 -0.8450 -1.5816
  144SOL     OW 9990   3.801   8.894   1.772  0.2551 -0.1731  0.0253
  144SOL    HW1 9991   3.861   8.971   1.749  1.8829 -1.0423  1.3010
  144SOL    HW2 9992   3.774   8.848   1.688  1.3534  0.2587 -0.5851
  145SOL     OW 9993   1.216   0.232   2.580  0.3148 -0.6489  0.2683
  145SOL    HW1 9994   1.196   0.184   2.495 -1.6180  0.4733  0.0650
  145SOL    HW2 9995   1.300   0.285   2.569 -1.1490  1.3650 -1.7879
  146SOL     OW 9996   4.141   9.060   2.808  0.0706 -0.5701 -0.6491
  146SOL    HW1 9997   4.165   8.969   2.842 -0.0796 -0.7136 -0.9235
  146SOL    HW2 9998   4.084   9.107   2.876 -2.4677 -1.8656 -1.7820
  147SOL     OW 9999   3.823   9.947   2.581  0.0673 -0.1652  0.5002
  147SOL    HW110000   3.895  10.014   2.565 -1.6653  1.4169 -0.9360
  147SOL    HW210001   3.834   9.871   2.518  1.0792 -0.4387  0.9993
  148SOL     OW10002   3.820   9.923   1.167  0.3631  0.2085 -0.3403
  148SOL    HW110003   3.769   9.870   1.235  1.7112 -1.9477 -0.9667
  148SOL    HW210004   3.757   9.950   1.094 -0.2720 -0.8833 -0.2199
  149SOL     OW10005   3.766   9.654   2.784  0.4001  0.2775 -0.1877
  149SOL    HW110006   3.775   9.750   2.812  0.7435  0.0784  0.3818
  149SOL    HW210007   3.855   9.618   2.756  0.3070  0.0579 -0.2068
  150SOL     OW10008   3.521   0.936   0.090 -0.5572 -0.5211 -0.2796
  150SOL    HW110009   3.500   1.009   0.024 -1.6576  1.7742  2.5438
  150SOL    HW210010   3.455   0.862   0.080 -0.4918 -0.3831 -1.9653
  151SOL     OW10011   3.401   0.483   0.264  0.4708  0.0038 -0.9141
  151SOL    HW110012   3.393   0.530   0.352 -0.5247  0.6457 -1.3363
  151SOL    HW210013   3.496   0.453   0.250  1.3840  2.7647 -1.0632
  152SOL     OW10014   3.517   8.898   1.859  0.6193  0.1839  0.5654
  152SOL    HW110015   3.507   8.880   1.761 -0.3704 -1.5298  0.9741
  152SOL    HW210016   3.613   8.919   1.879  0.9369 -0.0382 -0.6624
  153SOL     OW10017   4.047   9.738   1.095 -0.2606 -0.1091 -0.0574
  153SOL    HW110018   4.034   9.687   1.010 -1.1030 -1.3199  0.7772
  153SOL    HW210019   3.960   9.776   1.125 -0.2377 -0.7860  0.9233
  154SOL     OW10020   3.129   9.098   0.093  0.5218 -0.0134 -0.4721
  154SOL    HW110021   3.169   9.090   0.002 -1.4207 -0.7616 -1.2935
  154SOL    HW210022   3.160   9.023   0.151  0.5084 -0.4376 -1.0169
  155SOL     OW10023   4.048   0.613   0.370  0.1200  0.2076  0.6291
  155SOL    HW110024   4.021   0.643   0.278 -4.4101  2.8785  2.6847
  155SOL    HW210025   4.147   0.620   0.379  0.3719  2.9119 -3.0542
  156SOL     OW10026   4.024   8.247   1.503 -0.2959  0.2166 -0.4403
  156SOL    HW110027   4.025   8.317   1.574 -2.4860 -0.1580  0.0064
  156SOL    HW210028   4.104   8.188   1.513 -0.7519 -0.0519  1.9407
  157SOL     OW10029   3.472   9.644   2.845  0.2420  0.0347 -0.1676
  157SOL    HW110030   3.565   9.619   2.816  0.6632  1.4782 -0.0838
  157SOL    HW210031   3.429   9.700   2.775 -0.6518 -0.7820 -0.2844
  158SOL     OW10032   4.273   8.919   0.616 -0.3974  0.0774 -0.4850
  158SOL    HW110033   4.268   9.016   0.594 -0.2643 -0.0209 -0.9586
  158SOL    HW210034   4.362   8.898   0.658 -0.3626  0.1280 -0.5348
  159SOL     OW10035   4.133   8.731   0.429 -0.2910 -0.0721  0.3615
  159SOL    HW110036   4.151   8.807   0.491  3.8146  0.0607 -0.8723
  159SOL    HW210037   4.193   8.654   0.453 -0.1260 -0.7512 -2.1272
  160SOL     OW10038   2.038   5.400   2.824 -0.3256 -0.1497  0.1244
  160SOL    HW110039   2.021   5.309   2.787  2.2867  0.9283 -4.0848
  160SOL    HW210040   1.954   5.454   2.821 -0.9854 -1.2135 -1.0763
  161SOL     OW10041   4.007   8.343   2.872  0.1805  0.3584  0.3628
  161SOL    HW110042   4.034   8.346   2.968  1.4190  0.3318  0.0252
  161SOL    HW210043   4.053   8.416   2.822 -0.4942  0.4052 -0.2109
  162SOL     OW10044   3.824   8.260   2.053  0.1906  0.2750 -1.2059
  162SOL    HW110045   3.837   8.297   2.145  0.2633  0.3493 -1.2458
  162SOL    HW210046   3.911   8.229   2.016  0.0847 -0.1876 -1.0672
  163SOL     OW10047   3.472   8.880   1.534  0.7892  0.1642  0.3212
  163SOL    HW110048   3.476   8.968   1.486  3.1604  0.3387  0.7729
  163SOL    HW210049   3.560   8.834   1.527 -0.7215 -2.7214 -0.8229
  164SOL     OW10050   3.272   8.607   1.801 -0.0419 -0.1781 -0.2072
  164SOL    HW110051   3.318   8.609   1.889 -0.1034 -1.1687 -0.1517
  164SOL    HW210052   3.307   8.531   1.746  0.7393  1.0621 -1.4479
  165SOL     OW10053   2.764   0.116   0.665  0.8981  0.3031 -0.6955
  165SOL    HW110054   2.722   0.082   0.749  1.3285  0.6820 -0.3228
  165SOL    HW210055   2.828   0.048   0.629 -0.0989 -0.3134 -1.3152
  166SOL     OW10056   3.052   8.198   0.267 -0.6827 -0.1923 -0.0712
  166SOL    HW110057   3.100   8.171   0.184 -0.8891 -0.2913 -0.1585
  166SOL    HW210058   3.084   8.143   0.344  1.6988  1.9357  0.5222
  167SOL     OW10059   2.809   8.575   0.086  0.3870 -0.7792  0.1058
  167SOL    HW110060   2.811   8.641   0.162  1.5873  0.4180 -0.9401
  167SOL    HW210061   2.874   8.502   0.103  0.9712 -0.2786  0.0179
  168SOL     OW10062   3.704   8.750   1.572  0.5733  0.0089  0.4874
  168SOL    HW110063   3.800   8.727   1.553  0.3645 -0.6474  0.2276
  168SOL    HW210064   3.656   8.668   1.605  0.0779  0.3161  0.5308
  169SOL     OW10065   4.172   8.886   0.206 -0.0853 -0.0937  0.3062
  169SOL    HW110066   4.087   8.882   0.154  0.2760  0.1659 -0.3149
  169SOL    HW210067   4.168   8.821   0.281 -0.2740 -1.1008 -0.5622
  170SOL     OW10068   3.053   9.273   1.018 -0.2807 -0.2897 -0.4255
  170SOL    HW110069   3.105   9.245   1.099  2.4724 -0.3481 -2.1274
  170SOL    HW210070   3.069   9.207   0.944 -2.0731  0.2230 -1.2956
  171SOL     OW10071   3.052   8.833   1.041  0.2849 -0.3322  0.4338
  171SOL    HW110072   3.129   8.842   1.103  0.6751 -0.0411 -0.0920
  171SOL    HW210073   2.981   8.776   1.083  0.0182  0.8681  1.6441
  172SOL     OW10074   3.215   9.254   1.228 -0.1182  0.3323  0.5023
  172SOL    HW110075   3.253   9.344   1.206  1.3096 -0.4796 -0.4448
  172SOL    HW210076   3.290   9.189   1.245 -1.1326 -0.5993  1.5117
  173SOL     OW10077   3.235   8.716   1.461 -0.4215 -0.0175 -0.5995
  173SOL    HW110078   3.330   8.748   1.465 -1.3046  2.4291  1.9624
  173SOL    HW210079   3.222   8.641   1.525 -0.1535 -0.5923 -1.2098
  174SOL     OW10080   3.686   0.468   0.414  0.0674 -0.3188 -0.0716
  174SOL    HW110081   3.759   0.529   0.444 -0.2374  1.0444 -2.0056
  174SOL    HW210082   3.700   0.377   0.453  1.2835  0.6191  1.7508
  175SOL     OW10083   2.665   0.279   1.060 -0.3417 -0.3758  0.2727
  175SOL    HW110084   2.659   0.183   1.085 -0.8666 -0.4758 -0.2232
  175SOL    HW210085   2.573   0.320   1.060  0.1609  0.9484  3.6276
  176SOL     OW10086   4.368   0.108   0.556 -0.3714  0.5801  0.0411
  176SOL    HW110087   4.449   0.140   0.605  0.2456 -0.9041  0.0104
  176SOL    HW210088   4.286   0.145   0.601  0.2724  1.1368  0.7804
  177SOL     OW10089   3.567   8.328   0.865  0.1121  0.2259  0.1880
  177SOL    HW110090   3.494   8.267   0.834 -1.1764  0.7995  1.9780
  177SOL    HW210091   3.527   8.409   0.906  1.7747  0.5018  1.3161
  178SOL     OW10092   4.024   9.538   2.779  0.0719 -0.0957  0.5021
  178SOL    HW110093   4.114   9.550   2.738  0.5133 -0.3622  1.3952
  178SOL    HW210094   4.018   9.591   2.863 -1.4535  1.8936 -0.8133
  179SOL     OW10095   3.045   9.173   0.525 -0.1078  0.1881  0.0032
  179SOL    HW110096   3.048   9.170   0.425  2.1120  1.5105 -0.0043
  179SOL    HW210097   3.036   9.268   0.555  0.8495 -0.0446  1.0698
  180SOL     OW10098   4.211   8.035   1.574  0.1993  0.3988  0.0374
  180SOL    HW110099   4.153   7.982   1.634  0.8998  1.1877  1.4394
  180SOL    HW210100   4.238   7.979   1.495 -0.4262 -0.7626  0.6395
  181SOL     OW10101   3.384   0.694   0.050  0.5369  0.0821  0.0753
  181SOL    HW110102   3.434   0.649  -0.024 -0.4020 -1.8550  0.5914
  181SOL    HW210103   3.397   0.642   0.135  0.4137  1.4699  0.9625
  182SOL     OW10104   4.726   9.664   0.841  0.1323 -0.0506 -0.0451
  182SOL    HW110105   4.665   9.584   0.845 -1.1865  0.8700 -1.0550
  182SOL    HW210106   4.736   9.693   0.746  1.0324  0.6623  0.2647
  183SOL     OW10107   2.785   9.889   0.907 -0.0525  0.2605  0.7428
  183SOL    HW110108   2.872   9.912   0.951  0.8397  0.6859 -1.1818
  183SOL    HW210109   2.802   9.828   0.829 -1.6784 -1.1358  1.4367
  184SOL     OW10110   2.789   9.219   1.013 -0.4215 -1.0710  0.5795
  184SOL    HW110111   2.877   9.256   1.044  0.3813 -1.1465 -1.5252
  184SOL    HW210112   2.805   9.143   0.951 -2.0383 -2.6141  1.9751
  185SOL     OW10113   3.231   8.410   1.503 -0.1264 -0.0943  0.3531
  185SOL    HW110114   3.143   8.454   1.522  0.3687  0.9956  0.1762
  185SOL    HW210115   3.230   8.374   1.409 -1.4206 -2.6804  1.3082
  186SOL     OW10116   2.652   9.692   1.021  0.3293  0.6340  0.0860
  186SOL    HW110117   2.659   9.773   0.962 -0.2078  0.9673  0.4798
  186SOL    HW210118   2.695   9.614   0.976  0.0955  0.9387 -0.6573
  187SOL     OW10119   3.175   0.035   2.405 -0.2987 -0.1037 -0.3478
  187SOL    HW110120   3.119   0.037   2.322 -0.1252 -0.6202 -0.4833
  187SOL    HW210121   3.267   0.068   2.384  0.2871 -1.9449 -0.7959
  188SOL     OW10122   3.191   0.660   1.229 -0.5648  0.6483  0.6463
  188SOL    HW110123   3.137   0.714   1.164 -0.1989 -0.5882 -0.7335
  188SOL    HW210124   3.255   0.602   1.178 -1.3824 -1.5486  2.0527
  189SOL     OW10125   3.375   0.135   1.608  0.4423 -1.0479 -0.2026
  189SOL    HW110126   3.374   0.131   1.508 -1.5778 -2.2258 -0.1621
  189SOL    HW210127   3.347   0.227   1.637  2.2417 -0.3149 -0.7036
  190SOL     OW10128   3.788   0.661   0.930 -0.1003  0.0015  0.4545
  190SOL    HW110129   3.782   0.605   1.013  0.3914 -0.3647  0.2401
  190SOL    HW210130   3.752   0.610   0.852  1.6355 -0.5492 -0.0085
  191SOL     OW10131   3.359   0.756   2.008 -0.9635 -0.6258 -0.7247
  191SOL    HW110132   3.366   0.834   2.070 -2.1913 -0.6562 -0.5390
  191SOL    HW210133   3.448   0.741   1.964 -0.1251 -0.4593  0.8325
  192SOL     OW10134   3.951   0.403   0.538 -0.1718 -0.3514  0.9133
  192SOL    HW110135   3.963   0.477   0.472 -2.6218 -1.0157 -0.3266
  192SOL    HW210136   4.028   0.340   0.532  0.9653  1.0347  0.6232
  193SOL     OW10137   2.809   9.486   0.898 -0.4639 -0.1189 -0.1032
  193SOL    HW110138   2.750   9.426   0.952 -0.5266  1.0220  1.1125
  193SOL    HW210139   2.905   9.467   0.920 -0.4281 -0.9470 -0.9780
  194SOL     OW10140   3.260   8.863   1.237 -0.2180 -0.5641  0.1079
  194SOL    HW110141   3.285   8.955   1.268  2.2337 -0.5477 -1.7369
  194SOL    HW210142   3.240   8.806   1.316  1.2489  0.7389  1.4640
  195SOL     OW10143   3.080   8.462   0.302  0.1821 -0.3501 -0.2806
  195SOL    HW110144   3.170   8.478   0.261  1.3022 -0.8138  1.9583
  195SOL    HW210145   3.047   8.372   0.275  0.6174 -0.3971 -0.6647
  196SOL     OW10146   3.438   8.760   1.044  0.6162 -0.7094  0.3957
  196SOL    HW110147   3.433   8.837   0.980 -3.0397 -1.5213 -0.3820
  196SOL    HW210148   3.411   8.792   1.136  0.6477 -0.7170  0.4077
  197SOL     OW10149   3.821   0.742   0.502  0.0907  0.2071  0.9448
  197SOL    HW110150   3.798   0.788   0.417  1.2507  1.7073  1.4149
  197SOL    HW210151   3.909   0.695   0.493 -0.2478 -0.4543  1.0181
  198SOL     OW10152   3.430   1.037   2.100  0.1692  0.4042 -0.1064
  198SOL    HW110153   3.383   1.120   2.069 -2.0136 -0.7427  0.0410
  198SOL    HW210154   3.487   1.002   2.025 -1.3734  0.2772 -1.2526
  199SOL     OW10155   3.208   0.288   2.824  0.0115 -0.3370  0.0826
  199SOL    HW110156   3.172   0.343   2.899  0.3362 -0.1725  0.1183
  199SOL    HW210157   3.182   0.192   2.838  1.7911 -0.6403  1.4885
  200SOL     OW10158   3.425   9.084   1.344  0.7469  0.1281  0.1331
  200SOL    HW110159   3.524   9.073   1.340  0.9355  1.3539  1.0065
  200SOL    HW210160   3.400   9.131   1.429 -0.3117  2.4208 -1.3779
  201SOL     OW10161   2.711   7.978   1.437  0.3192 -0.5867 -0.3120
  201SOL    HW110162   2.632   7.951   1.492 -2.4763  4.0219 -1.7376
  201SOL    HW210163   2.712   7.926   1.352 -0.9377 -1.0275 -0.0691
  202SOL     OW10164   3.915   9.483   2.508 -0.7297  0.1654  0.0931
  202SOL    HW110165   3.974   9.428   2.449  0.4696  1.4583  0.0499
  202SOL    HW210166   3.913   9.443   2.600 -0.8237 -0.6067 -0.2412
  203SOL     OW10167   2.811   8.717   2.739  0.0988 -0.3032  0.6504
  203SOL    HW110168   2.807   8.669   2.827 -0.1742 -0.1243  0.7357
  203SOL    HW210169   2.766   8.806   2.747 -0.8090 -0.7037  0.0658
  204SOL     OW10170   3.702   9.437   0.702  0.0811  0.3564 -0.1588
  204SOL    HW110171   3.623   9.498   0.693  1.4530  2.2214  0.2979
  204SOL    HW210172   3.785   9.485   0.673  1.2819 -1.0554  0.8820
  205SOL     OW10173   4.245   9.173   2.118 -0.0021 -0.0825 -0.2358
  205SOL    HW110174   4.191   9.089   2.115  1.7987 -1.2243 -1.6756
  205SOL    HW210175   4.239   9.220   2.030 -0.0331  0.7048  0.1748
  206SOL     OW10176   3.342   9.175   1.635 -0.0974 -0.2638  0.5040
  206SOL    HW110177   3.331   9.132   1.725 -0.7412  1.9902  1.5488
  206SOL    HW210178   3.254   9.209   1.604  0.4631  0.6269 -0.1143
  207SOL     OW10179   4.117   0.213   0.427  0.1579 -0.0899  0.0507
  207SOL    HW110180   4.128   0.265   0.342  0.2202  0.2159  0.2423
  207SOL    HW210181   4.072   0.126   0.408 -1.8052  0.9087  0.0031
  208SOL     OW10182   3.542   9.398   2.091 -0.0855  0.5498  0.1481
  208SOL    HW110183   3.607   9.397   2.015 -1.3133 -1.0903 -0.9283
  208SOL    HW210184   3.468   9.462   2.071 -0.2288  0.3781  0.1311
  209SOL     OW10185   4.061   0.549   2.348 -0.3812  0.4780 -0.2918
  209SOL    HW110186   4.069   0.631   2.405  2.1716  0.7035 -0.9488
  209SOL    HW210187   3.993   0.566   2.276 -1.3930  1.2635  0.8240
  210SOL     OW10188   3.579   0.623   2.721  0.7797  0.2215  0.3594
  210SOL    HW110189   3.611   0.708   2.680  2.0068  0.8456  2.5475
  210SOL    HW210190   3.511   0.581   2.661  2.6379  0.9895 -2.3700
  211SOL     OW10191   3.867   0.524   2.164 -0.7567 -0.0065  0.4744
  211SOL    HW110192   3.877   0.437   2.116  1.4367  1.8106 -2.5951
  211SOL    HW210193   3.770   0.545   2.175 -1.3032 -2.9299  1.4923
  212SOL     OW10194   3.080   9.315   1.628  0.0125  0.3720 -0.3137
  212SOL    HW110195   3.067   9.316   1.727  1.3413 -2.6455 -0.0530
  212SOL    HW210196   3.121   9.401   1.599 -1.4172  1.7268  1.5956
  213SOL     OW10197   4.731   9.438   1.822 -0.0223 -0.5524  0.2395
  213SOL    HW110198   4.826   9.430   1.852 -0.1314 -0.1345  0.6978
  213SOL    HW210199   4.722   9.401   1.730  0.8239  0.5062 -0.2815
  214SOL     OW10200   2.726   8.233   0.523  0.2716  0.4187  0.4169
  214SOL    HW110201   2.654   8.235   0.453  0.0015 -1.4454  0.6149
  214SOL    HW210202   2.815   8.224   0.478  0.0096 -2.1122  0.2958
  215SOL     OW10203   3.697   8.991   1.340  0.0539  0.8758  0.1114
  215SOL    HW110204   3.653   8.935   1.270 -2.1290  2.6719 -0.0253
  215SOL    HW210205   3.746   8.933   1.403  2.7442 -0.7425 -3.3312
  216SOL     OW10206   4.640   0.328   0.448 -0.9440  0.2124 -0.3447
  216SOL    HW110207   4.692   0.258   0.398 -0.3144 -0.6780  1.5066
  216SOL    HW210208   4.548   0.334   0.410 -0.6082 -0.7329 -1.3506
  217SOL     OW10209   4.217   8.582   0.732  0.0124  0.4506  0.4926
  217SOL    HW110210   4.268   8.526   0.798  0.7361 -0.3979 -0.7691
  217SOL    HW210211   4.263   8.580   0.644 -0.9740  1.5471 -0.0604
  218SOL     OW10212   3.368   0.456   1.098 -0.0535  1.1480  0.2890
  218SOL    HW110213   3.419   0.486   1.017  0.6107  1.1438  0.7029
  218SOL    HW210214   3.418   0.382   1.143 -0.1920  1.4574  0.9592
  219SOL     OW10215   4.379   9.367   1.498 -0.0247  0.3932 -0.4353
  219SOL    HW110216   4.281   9.381   1.493  0.3239  3.2733 -0.0798
  219SOL    HW210217   4.420   9.382   1.408  0.1725 -0.1968 -0.4474
  220SOL     OW10218   3.171   8.666   0.846 -0.0395  0.0913  0.8077
  220SOL    HW110219   3.147   8.718   0.928  1.0136  2.8043 -0.5648
  220SOL    HW210220   3.088   8.639   0.797 -0.5519  1.7121  0.7828
  221SOL     OW10221   4.249   9.931   0.979  0.3669 -0.0337 -0.2733
  221SOL    HW110222   4.183   9.872   1.026 -0.1655  0.1805 -0.7477
  221SOL    HW210223   4.287   9.996   1.045  0.1205 -0.1709  0.0064
  10.00000  10.00000   2.88400
