chitosan Film  in water:acetic acid 2%
17154
    1CHTO  H203    1   5.808   6.921   2.302  0.9003 -0.8131 -1.7640
    1CHTO   O82    2   5.803   6.837   2.343  0.1357 -0.0694 -0.2879
    1CHTO  C123    3   5.917   6.806   2.424  0.4078  0.0805 -0.1008
    1CHTO  H227    4   5.912   6.875   2.510  2.0971  0.5927 -0.3951
    1CHTO   O77    5   5.884   6.674   2.473 -0.3231  0.0333  0.0810
    1CHTO  C118    6   5.980   6.625   2.565 -0.1562  0.6486  0.0089
    1CHTO  H222    7   5.995   6.705   2.638  2.7611  0.4254 -0.2932
    1CHTO  C125    8   5.927   6.490   2.638 -0.5132  0.3422  0.0506
    1CHTO   O84    9   5.808   6.504   2.708 -0.1511  0.8626 -0.4021
    1CHTO  H205   10   5.739   6.479   2.650  0.2498 -0.0629 -0.4937
    1CHTO  C114   11   6.116   6.602   2.496  0.2613  0.4515 -0.2552
    1CHTO  H218   12   6.099   6.532   2.414 -0.1016  0.4576 -0.1872
    1CHTO  C116   13   6.165   6.737   2.430 -0.2166  0.0157 -0.0372
    1CHTO  H220   14   6.212   6.808   2.500  0.1695  0.2506 -0.5318
    1CHTO   O79   15   6.281   6.701   2.349 -0.6257  0.1710 -0.2710
    1CHTO  H201   16   6.274   6.740   2.264  2.6321  1.1019 -0.1731
    1CHTO  C120   17   6.051   6.811   2.349  0.4324  0.7361 -0.0383
    1CHTO  H224   18   6.031   6.745   2.262 -0.7015  0.8045  0.1703
    1CHTO   N21   19   6.096   6.939   2.292 -0.1517 -0.3230  0.3559
    1CHTO  H211   20   6.091   7.012   2.372  2.7872  1.3367 -0.8820
    1CHTO  H212   21   6.021   6.959   2.217  0.4868 -1.0911 -0.4987
    1CHTO   O75   22   6.210   6.553   2.594  0.5550 -0.3763  0.0980
    1CHTO  C112   23   6.275   6.410   2.553 -0.0408  0.0199 -0.2211
    1CHTO  H216   24   6.281   6.399   2.444  2.0866 -1.6102  0.0437
    1CHTO   O73   25   6.196   6.312   2.610  0.3090 -0.1028  0.0826
    1CHTO  C113   26   6.229   6.178   2.559 -0.0586  0.6808  0.4511
    1CHTO  H217   27   6.239   6.182   2.449 -1.9212  0.6641  0.2538
    1CHTO  C124   28   6.104   6.099   2.601  0.2973  0.6267  0.0741
    1CHTO   O83   29   6.104   5.961   2.554  0.5417 -0.1711  0.1889
    1CHTO  H204   30   6.020   5.919   2.556  0.1242  0.6171 -0.7573
    1CHTO  C109   31   6.362   6.142   2.624 -0.7088 -0.3225 -0.2459
    1CHTO  H213   32   6.348   6.147   2.733  0.5437  1.6894 -0.1452
    1CHTO  C110   33   6.471   6.252   2.583  0.2410  0.5093 -0.5316
    1CHTO  H214   34   6.487   6.243   2.475  0.3438  0.7890 -0.5381
    1CHTO   O78   35   6.608   6.231   2.641  0.2629 -0.4207 -0.3403
    1CHTO  H200   36   6.628   6.139   2.645  1.3770 -0.1743 -0.2043
    1CHTO  C111   37   6.420   6.393   2.613 -0.0302 -0.0874 -0.1618
    1CHTO  H215   38   6.412   6.410   2.721 -0.3274  0.1935 -0.2293
    1CHTO   N19   39   6.507   6.503   2.561 -0.1623  0.1406  0.6116
    1CHTO  H207   40   6.537   6.584   2.626  2.1806 -0.0024 -0.2621
    1CHTO  H208   41   6.596   6.463   2.515 -1.3969 -1.2859 -0.5860
    1CHTO   O74   42   6.405   6.013   2.575 -0.1158  0.3742 -0.0897
    1CHTO  C115   43   6.482   5.915   2.694 -0.7925  0.0361  0.1583
    1CHTO  H219   44   6.474   5.957   2.794 -1.4350  0.2077  0.0330
    1CHTO   O76   45   6.417   5.767   2.707  0.2158 -0.1441  0.1663
    1CHTO  C122   46   6.403   5.684   2.589  0.4738 -0.3420  0.3431
    1CHTO  H226   47   6.318   5.703   2.524  0.4422  0.1977  0.5339
    1CHTO  C126   48   6.383   5.539   2.638 -0.1650  0.5980  0.2683
    1CHTO   O85   49   6.382   5.432   2.541  0.8470 -0.8367  0.3598
    1CHTO  H206   50   6.336   5.356   2.569  0.5231 -1.0451 -0.7190
    1CHTO  C121   51   6.531   5.694   2.499 -0.9515 -0.2719 -0.1499
    1CHTO  H225   52   6.551   5.598   2.446  0.2325 -0.0741 -0.0867
    1CHTO   O81   53   6.502   5.774   2.385  0.1950 -0.0633 -0.3851
    1CHTO  H202   54   6.580   5.813   2.350  0.4642  1.2109  1.6173
    1CHTO  C119   55   6.655   5.746   2.579 -0.9622  0.3014 -0.5344
    1CHTO  H223   56   6.681   5.668   2.650  0.8720 -0.2642 -1.7918
    1CHTO  C117   57   6.629   5.886   2.659 -1.2035  0.0213  0.2731
    1CHTO  H221   58   6.651   5.975   2.600  0.7306 -1.8658 -1.9496
    1CHTO   N20   59   6.719   5.894   2.784 -0.2374 -0.4991 -0.2034
    1CHTO  H209   60   6.693   5.818   2.856 -0.3380 -0.3848 -0.1179
    1CHTO  H210   61   6.693   5.991   2.823  1.5180 -0.1032  0.0078
    1CHTO   O80   62   6.769   5.746   2.486 -0.1306  0.3960 -0.3825
    1CHTO  C103   63   6.887   5.661   2.510 -0.5025 -0.2845 -0.1520
    1CHTO  H190   64   6.899   5.657   2.618 -0.7882  0.2547 -0.1021
    1CHTO  C101   65   6.890   5.517   2.443 -0.0942 -0.0974  0.4627
    1CHTO  H188   66   6.881   5.533   2.335  0.2351 -1.8158  0.1645
    1CHTO   O68   67   6.772   5.432   2.485  0.0256 -0.2890  0.2019
    1CHTO  H168   68   6.701   5.458   2.429 -0.3210  2.0230  1.6323
    1CHTO   C99   69   7.029   5.446   2.478 -0.2648  0.5119  0.2784
    1CHTO  H186   70   7.043   5.445   2.588 -1.2204 -1.8623  0.4027
    1CHTO   N17   71   7.039   5.303   2.430  0.9386  0.6350 -0.1523
    1CHTO  H174   72   7.047   5.303   2.322  0.3681  1.7325 -0.2053
    1CHTO  H175   73   7.123   5.252   2.475  0.1074 -1.6632 -1.1295
    1CHTO   C97   74   7.146   5.537   2.422 -0.3830 -0.4067 -0.0756
    1CHTO  H184   75   7.151   5.535   2.312  1.5402  0.9222 -0.0505
    1CHTO   O64   76   7.131   5.675   2.471  0.1810 -0.6680  0.3470
    1CHTO  C104   77   7.008   5.740   2.456 -0.4803  0.2749  0.2488
    1CHTO  H191   78   6.988   5.764   2.352  1.7772 -2.0105 -0.7767
    1CHTO  C108   79   7.017   5.878   2.527 -0.6661  0.2901 -0.0806
    1CHTO   O71   80   7.122   5.967   2.485  0.2352  0.1178 -0.3788
    1CHTO  H171   81   7.196   5.973   2.543 -1.5050  4.3696  1.5968
    1CHTO   O62   82   7.275   5.498   2.476  0.2156 -0.6534  0.1424
    1CHTO   C91   83   7.387   5.530   2.389 -0.1805  0.5611  0.5567
    1CHTO  H178   84   7.356   5.618   2.332 -1.9245  0.8573  1.9122
    1CHTO   C92   85   7.401   5.417   2.277  0.0050  0.0293  0.4793
    1CHTO  H179   86   7.302   5.389   2.238 -0.1499  0.5137  0.5258
    1CHTO   O66   87   7.450   5.473   2.152  0.2308  0.1739  0.6277
    1CHTO  H166   88   7.498   5.417   2.094  1.8000  1.2990  0.7978
    1CHTO   C93   89   7.492   5.298   2.329  0.2297  0.4867 -0.3681
    1CHTO  H180   90   7.521   5.227   2.249  0.0836 -0.0615  0.0622
    1CHTO   N16   91   7.416   5.213   2.427 -0.6200  0.3718  0.4375
    1CHTO  H172   92   7.476   5.201   2.516  1.0876  1.1886 -0.5652
    1CHTO  H173   93   7.373   5.124   2.385  3.0020 -0.3581 -1.9783
    1CHTO   C94   94   7.629   5.351   2.399  0.3683 -0.0031 -0.5764
    1CHTO  H181   95   7.646   5.308   2.498  0.7984  2.7875  0.6317
    1CHTO   O61   96   7.633   5.493   2.414 -0.2417  0.3393  0.0004
    1CHTO   C95   97   7.517   5.561   2.468 -0.0507  0.2787 -1.0808
    1CHTO  H182   98   7.504   5.533   2.572  1.0898  0.7359 -0.8097
    1CHTO  C106   99   7.538   5.714   2.479 -0.0857 -0.4983  0.1778
    1CHTO   O69  100   7.421   5.786   2.525  0.0774  0.2929  0.6713
    1CHTO  H169  101   7.425   5.875   2.494  0.0930  0.1339  0.2203
    1CHTO   O63  102   7.740   5.301   2.296  0.0089 -0.1988 -0.4692
    1CHTO   C96  103   7.853   5.275   2.351  0.0893  0.1672 -0.1153
    1CHTO  H183  104   7.834   5.244   2.454 -2.1183 -2.2979 -1.2093
    1CHTO   C98  105   7.961   5.389   2.348  0.4199  0.2301 -0.3881
    1CHTO  H185  106   7.913   5.479   2.388 -1.4883 -1.1463  0.4905
    1CHTO   O67  107   8.071   5.353   2.435 -0.3564  0.2959 -0.2291
    1CHTO  H167  108   8.126   5.280   2.414  0.5143  1.1351 -0.9029
    1CHTO  C102  109   8.028   5.417   2.205 -0.4364 -0.6295 -0.0407
    1CHTO  H189  110   8.111   5.484   2.232 -0.9663 -0.3969  1.0677
    1CHTO   N18  111   7.957   5.488   2.101  0.0927  0.3046 -0.1473
    1CHTO  H176  112   8.015   5.508   2.012 -0.1202  0.3318 -0.2827
    1CHTO  H177  113   7.863   5.445   2.069 -0.9303  2.3200  0.0783
    1CHTO  C105  114   8.078   5.274   2.153  0.0770 -0.1653  0.2899
    1CHTO  H192  115   8.047   5.259   2.050 -0.8595  0.2572  0.5043
    1CHTO   O65  116   8.040   5.157   2.226  0.2882 -0.3913 -0.3367
    1CHTO  C100  117   7.900   5.141   2.275 -0.0581  0.1495 -0.5966
    1CHTO  H187  118   7.833   5.120   2.191 -2.5600 -0.4303  1.4873
    1CHTO  C107  119   7.899   5.010   2.362  0.2151  0.3804 -0.1300
    1CHTO   O70  120   8.005   5.025   2.457  0.7653 -0.0831  0.3770
    1CHTO  H170  121   8.050   4.943   2.458 -0.3536 -0.7667 -1.6837
    1CHTO   O57  122   8.226   5.297   2.144 -0.3280  0.5130 -0.6474
    1CHTO   C85  123   8.317   5.217   2.067  0.1747  0.0150 -0.2561
    1CHTO  H157  124   8.262   5.191   1.974  1.4473 -1.2218 -0.6653
    1CHTO   C83  125   8.341   5.088   2.139 -0.0837  0.5256 -1.2911
    1CHTO  H155  126   8.244   5.038   2.150 -0.5487  1.5081 -0.9000
    1CHTO   O56  127   8.383   5.113   2.279  0.1537 -0.2892  0.0834
    1CHTO  H135  128   8.311   5.139   2.333 -1.3195  2.0758 -2.8293
    1CHTO   C81  129   8.437   4.999   2.057 -0.2612 -0.5867 -0.0134
    1CHTO  H153  130   8.393   4.990   1.958  0.1445  0.5936 -0.3092
    1CHTO   N14  131   8.447   4.860   2.106  0.4167 -0.0242 -0.0567
    1CHTO  H141  132   8.351   4.821   2.132  0.7446 -1.5662 -1.1438
    1CHTO  H142  133   8.485   4.798   2.028 -1.1811  0.2801 -1.1203
    1CHTO   C79  134   8.574   5.066   2.047  0.4447  0.0414 -0.3752
    1CHTO  H151  135   8.638   4.999   1.989 -0.2559  0.8026 -2.0777
    1CHTO   O52  136   8.552   5.192   1.970  0.3900 -0.1907  0.4644
    1CHTO   C86  137   8.454   5.287   2.036 -0.3602 -0.4913  0.4365
    1CHTO  H158  138   8.507   5.318   2.128  0.9449 -0.9551 -0.1575
    1CHTO   C90  139   8.433   5.406   1.952  0.1663  0.1923 -0.0631
    1CHTO   O60  140   8.393   5.373   1.819  0.2807 -1.2398 -0.4081
    1CHTO  H138  141   8.454   5.306   1.794  0.3305 -0.6449 -1.9184
    1CHTO   O50  142   8.632   5.087   2.177 -0.1036  0.2168  0.5153
    1CHTO   C73  143   8.762   5.129   2.234 -0.2384  0.3880 -0.4089
    1CHTO  H145  144   8.812   5.202   2.169  1.1467 -0.5356 -0.3969
    1CHTO   C74  145   8.849   4.998   2.249  0.3977  0.7721  0.4952
    1CHTO  H146  146   8.856   4.959   2.146  0.9954 -0.3844  0.9615
    1CHTO   O54  147   8.987   5.027   2.290 -0.6603  0.2993 -0.0965
    1CHTO  H133  148   9.049   5.065   2.231 -1.0703  0.4013 -0.4657
    1CHTO   C75  149   8.771   4.900   2.350 -0.1559 -0.0411 -0.0633
    1CHTO  H147  150   8.682   4.858   2.302  0.7353 -1.9499 -0.0655
    1CHTO   N13  151   8.844   4.776   2.383  0.2637  0.9409 -0.0879
    1CHTO  H139  152   8.773   4.696   2.367 -2.2316  3.2249 -0.6351
    1CHTO  H140  153   8.934   4.758   2.325 -0.7433  2.4211 -2.1512
    1CHTO   C76  154   8.722   4.975   2.480 -0.2366 -0.4180  0.3704
    1CHTO  H148  155   8.807   4.995   2.545 -0.2869  1.0112  0.0105
    1CHTO   O49  156   8.649   5.099   2.451  0.2104  0.1645  0.2230
    1CHTO   C77  157   8.736   5.186   2.378 -0.2616  0.3916 -0.1322
    1CHTO  H149  158   8.829   5.187   2.434 -0.6871 -1.5642  0.6415
    1CHTO   C88  159   8.672   5.323   2.366 -0.1187  0.0713  0.4981
    1CHTO   O58  160   8.772   5.410   2.301 -0.2578 -0.1071 -0.2897
    1CHTO  H136  161   8.793   5.368   2.220 -1.3712 -2.8527  0.7863
    1CHTO   O51  162   8.603   4.879   2.564 -0.4327  0.2935 -0.1927
    1CHTO   C78  163   8.534   4.960   2.679  0.5670  0.1706  0.4161
    1CHTO  H150  164   8.507   5.063   2.647 -0.9636  0.0672  1.3200
    1CHTO   C80  165   8.611   4.975   2.813 -0.4855  0.4573  0.0627
    1CHTO  H152  166   8.628   4.874   2.856 -2.2135  0.7459  1.5008
    1CHTO   O55  167   8.729   5.039   2.773  0.5901  0.3075 -0.8709
    1CHTO  H134  168   8.803   4.984   2.754  0.0474 -0.0571 -2.0164
    1CHTO   C84  169   8.525   5.063   2.913 -0.1638  0.0436  0.0928
    1CHTO  H156  170   8.494   5.156   2.865  0.8160  1.0369  1.3435
    1CHTO   N15  171   8.596   5.088   3.042 -0.1614 -0.1208  0.1996
    1CHTO  H143  172   8.698   5.056   3.042  0.0698  0.6062  0.4556
    1CHTO  H144  173   8.594   5.187   3.082 -0.4501 -0.6212  1.4529
    1CHTO   C87  174   8.387   4.996   2.929  0.6639  0.1433  0.6362
    1CHTO  H159  175   8.388   4.900   2.981  1.1556 -0.6541 -0.8266
    1CHTO   O53  176   8.323   4.980   2.792  0.2470  0.5443  0.4326
    1CHTO   C82  177   8.390   4.902   2.695 -0.2455  0.0555  0.1167
    1CHTO  H154  178   8.396   4.797   2.723  1.3541 -0.2891 -1.4445
    1CHTO   C89  179   8.312   4.906   2.559 -0.1337 -0.3530  0.1089
    1CHTO   O59  180   8.344   4.800   2.477  0.2546 -0.4288  0.0470
    1CHTO  H137  181   8.430   4.803   2.442  0.2801  0.8575  0.1820
    1CHTO   O45  182   8.277   5.084   3.025  0.2884  0.0304 -0.5106
    1CHTO   C67  183   8.216   5.203   2.964 -0.0265 -0.3554 -0.3794
    1CHTO  H124  184   8.290   5.257   2.905 -0.5538  0.1148 -0.6100
    1CHTO   C65  185   8.091   5.178   2.874 -0.6161  0.0302 -0.3991
    1CHTO  H122  186   8.051   5.078   2.892 -1.5063  0.3168 -0.7258
    1CHTO   O44  187   8.142   5.183   2.738  0.4834 -0.2420  0.2778
    1CHTO  H102  188   8.212   5.125   2.714  1.6477  0.9329  0.7753
    1CHTO   C63  189   7.978   5.281   2.900  0.2123 -0.6234 -0.4465
    1CHTO  H120  190   7.928   5.255   2.994  0.7943  0.9895  0.3266
    1CHTO   N11  191   7.860   5.273   2.809 -0.0428  0.0429 -0.8646
    1CHTO  H108  192   7.819   5.368   2.784 -0.1484  0.2294 -0.0165
    1CHTO  H109  193   7.792   5.200   2.850  0.7972 -0.5723 -0.5439
    1CHTO   C61  194   8.038   5.423   2.925  0.2633 -0.2036 -0.2210
    1CHTO  H118  195   7.955   5.493   2.943  1.5355  1.0448  0.9023
    1CHTO   O40  196   8.128   5.434   3.037  0.3349 -0.2685 -0.0227
    1CHTO   C68  197   8.173   5.302   3.090 -0.6938  0.6746  0.2539
    1CHTO  H125  198   8.089   5.250   3.141 -2.0344  0.6950 -1.8957
    1CHTO   C72  199   8.287   5.317   3.190  0.5055  0.0858 -0.3112
    1CHTO   O48  200   8.418   5.352   3.131  0.2067 -0.2865 -0.0080
    1CHTO  H105  201   8.476   5.395   3.192 -0.6481  2.1402 -0.8713
    1CHTO   O38  202   8.118   5.476   2.821  0.5532 -0.0059  0.4759
    1CHTO   C55  203   8.105   5.615   2.798  0.4664  0.0897 -0.4214
    1CHTO  H112  204   8.083   5.667   2.893 -1.9841  2.0034 -1.9781
    1CHTO   C56  205   7.995   5.646   2.688 -0.7679 -0.3115  0.3539
    1CHTO  H113  206   7.988   5.564   2.615  1.3223 -0.0253 -0.2149
    1CHTO   O42  207   7.871   5.648   2.750  0.1548 -0.7188  0.0066
    1CHTO  H100  208   7.875   5.669   2.841  2.0534  1.0127 -0.4251
    1CHTO   C57  209   8.026   5.781   2.607  0.6842 -0.1593 -0.1235
    1CHTO  H114  210   7.924   5.816   2.590  0.5935 -0.0323  0.6845
    1CHTO   N10  211   8.082   5.767   2.473  0.4585  0.2803  0.7120
    1CHTO  H106  212   8.050   5.682   2.414 -1.8144  2.7493 -1.7418
    1CHTO  H107  213   8.188   5.786   2.466  0.3399  0.7061 -0.0261
    1CHTO   C58  214   8.100   5.880   2.692 -0.5782  0.9468 -0.5235
    1CHTO  H115  215   8.128   5.964   2.625 -1.4946 -1.2680 -3.8218
    1CHTO   O37  216   8.233   5.828   2.739  0.3875  0.9599  0.5335
    1CHTO   C59  217   8.238   5.688   2.765 -0.2770 -0.2287  0.1423
    1CHTO  H116  218   8.277   5.640   2.675  2.2602 -0.1898  1.1757
    1CHTO   C70  219   8.347   5.676   2.873 -0.3354 -0.1363  0.2412
    1CHTO   O46  220   8.319   5.743   3.002  0.0395  0.0451 -0.0406
    1CHTO  H103  221   8.379   5.720   3.069  0.7719  0.3327 -0.5943
    1CHTO   O39  222   7.998   5.933   2.811 -0.2470 -0.0733 -0.0317
    1CHTO   C60  223   7.984   6.074   2.809  0.3027 -0.2835 -0.6044
    1CHTO  H117  224   8.028   6.118   2.720 -0.4184  0.4020 -0.6363
    1CHTO   C62  225   7.833   6.110   2.807  0.1081 -0.5339  0.3410
    1CHTO  H119  226   7.793   6.068   2.712 -2.2030  0.1012  0.9845
    1CHTO   O43  227   7.748   6.048   2.912 -0.0683  0.4429 -0.2663
    1CHTO  H101  228   7.705   6.109   2.969 -0.3980  1.0681 -1.1805
    1CHTO   C66  229   7.812   6.270   2.797  0.1169  0.2345  0.3842
    1CHTO  H123  230   7.869   6.307   2.711  1.6032  0.6788  1.5339
    1CHTO   N12  231   7.675   6.315   2.785  0.4136 -0.3956 -0.0496
    1CHTO  H110  232   7.605   6.233   2.781 -2.5060  2.0988 -2.7948
    1CHTO  H111  233   7.646   6.386   2.861 -1.7991 -0.8195 -0.4785
    1CHTO   C69  234   7.882   6.334   2.920  0.0323  0.2218  0.2627
    1CHTO  H126  235   7.820   6.314   3.010 -3.0312  0.9725 -1.6158
    1CHTO   O41  236   8.041   6.280   2.940 -0.1364  0.2209  0.3666
    1CHTO   C64  237   8.050   6.133   2.942  0.2227  0.4937  1.0795
    1CHTO  H121  238   7.990   6.096   3.028 -0.8171  1.0865  0.6234
    1CHTO   C71  239   8.200   6.098   2.950 -0.3965  0.7087 -0.5227
    1CHTO   O47  240   8.259   6.164   3.055 -0.0566  0.2410 -0.1370
    1CHTO  H104  241   8.352   6.155   3.050 -0.3128 -2.7912 -0.3154
    1CHTO   O34  242   7.906   6.492   2.902  0.0989  0.0971  0.2823
    1CHTO   C49  243   7.914   6.613   2.958  0.4319  0.5452 -0.9058
    1CHTO   H91  244   7.992   6.596   3.031  0.5019 -0.3029 -1.1717
    1CHTO   C47  245   7.777   6.648   3.022  0.0394 -0.0842  0.5315
    1CHTO   H89  246   7.790   6.741   3.080  0.2631 -1.1612  2.2511
    1CHTO   O33  247   7.743   6.546   3.116 -0.3789 -0.0315  0.2777
    1CHTO   H70  248   7.797   6.538   3.192  0.2760  0.2951 -0.1535
    1CHTO   C45  249   7.672   6.680   2.914  0.9905 -0.0665 -0.1538
    1CHTO   H87  250   7.651   6.593   2.850  0.9895 -0.4504  0.3693
    1CHTO    N8  251   7.542   6.729   2.968  0.4790 -0.5198  0.0575
    1CHTO   H75  252   7.549   6.819   3.027  0.4436 -0.6700  0.2921
    1CHTO   H76  253   7.492   6.654   3.027 -0.9869  0.8396  0.5920
    1CHTO   C43  254   7.728   6.797   2.807 -0.6307  0.4758  0.0260
    1CHTO   H85  255   7.657   6.806   2.725 -0.2722  1.1584 -0.2089
    1CHTO   O29  256   7.858   6.756   2.759  0.6997 -0.1781 -0.1401
    1CHTO   C50  257   7.960   6.719   2.855 -0.0710 -0.0316 -0.1324
    1CHTO   H92  258   8.049   6.679   2.805 -0.8329 -0.3408 -1.2610
    1CHTO   C54  259   8.024   6.839   2.923  0.2541  0.3513  0.7610
    1CHTO   O36  260   8.105   6.911   2.831  0.1060 -0.2763  0.0380
    1CHTO   H72  261   8.182   6.947   2.869 -0.4762 -0.4344  1.3930
    1CHTO   O27  262   7.745   6.933   2.856  0.1552 -0.9203 -0.1285
    1CHTO   C37  263   7.684   7.067   2.834 -0.4097  0.1530 -0.0814
    1CHTO   H79  264   7.704   7.094   2.729 -0.0055 -2.1786 -0.6298
    1CHTO   C38  265   7.530   7.072   2.855  1.2053 -0.4478  0.0380
    1CHTO   H80  266   7.511   7.009   2.944 -0.4632 -2.0577 -1.4083
    1CHTO   O31  267   7.472   7.004   2.742  0.0956 -1.2913 -0.1550
    1CHTO   H68  268   7.378   7.006   2.747  0.0879  0.5754 -0.7265
    1CHTO   C39  269   7.465   7.217   2.878 -0.2636 -0.1343 -0.3246
    1CHTO   H81  270   7.450   7.259   2.778  0.6074 -0.1439 -0.4600
    1CHTO    N7  271   7.327   7.200   2.936 -0.1705  0.0892 -0.0539
    1CHTO   H73  272   7.340   7.177   3.040  2.3369  0.6881 -0.1932
    1CHTO   H74  273   7.269   7.292   2.937  2.5068  1.8330  1.2534
    1CHTO   C40  274   7.558   7.311   2.962  0.1310  0.0907  0.6723
    1CHTO   H82  275   7.544   7.287   3.067 -0.0160 -1.0931  0.3896
    1CHTO   O26  276   7.700   7.299   2.921 -0.3738  0.4430 -0.1350
    1CHTO   C41  277   7.759   7.171   2.927  0.0776  0.3234 -0.3831
    1CHTO   H83  278   7.755   7.135   3.031  0.5996  0.3322 -0.3544
    1CHTO   C52  279   7.913   7.189   2.898  0.0703  0.3014 -0.7468
    1CHTO   O35  280   7.936   7.181   2.742  0.2201 -0.0830 -0.5072
    1CHTO   H71  281   8.028   7.190   2.725  0.6842  0.3389  2.1019
    1CHTO   O28  282   7.520   7.446   2.947  0.3211 -0.4206  0.0454
    1CHTO   C42  283   7.537   7.542   2.830  0.0737  0.0568  0.1663
    1CHTO   H84  284   7.539   7.481   2.740 -0.7429  1.2965 -0.7075
    1CHTO   C44  285   7.666   7.630   2.833 -0.0427  0.0005  0.4385
    1CHTO   H86  286   7.660   7.694   2.921  1.1380  0.2277  0.3570
    1CHTO   O32  287   7.790   7.552   2.833 -0.1502 -0.0173 -0.1735
    1CHTO   H69  288   7.800   7.525   2.743  0.6186  2.3994 -0.8527
    1CHTO   C48  289   7.673   7.739   2.714  0.0851  0.6635 -0.5801
    1CHTO   H90  290   7.696   7.689   2.620  2.0194  0.0564  0.1934
    1CHTO    N9  291   7.786   7.839   2.734 -0.7039  0.5903 -0.3256
    1CHTO   H77  292   7.854   7.851   2.651  0.3226 -2.2636  0.0351
    1CHTO   H78  293   7.756   7.936   2.771  2.6661  1.9174 -0.9005
    1CHTO   C51  294   7.533   7.806   2.688 -0.2034 -0.5403  0.8120
    1CHTO   H93  295   7.525   7.890   2.757  0.7974  2.8645 -3.0182
    1CHTO   O30  296   7.432   7.706   2.695  0.0150  0.1172 -0.3987
    1CHTO   C46  297   7.416   7.637   2.811  0.0607 -0.6788 -0.3102
    1CHTO   H88  298   7.399   7.702   2.897  0.6870  1.1296 -1.5321
    1CHTO   C53  299   7.285   7.556   2.798 -0.2197 -0.2941  0.4369
    1CHTO   O72  300   7.175   7.647   2.779 -0.2435  0.1342  0.4049
    1CHTO  H199  301   7.192   7.726   2.827  1.8982 -0.8627  1.3345
    1CHTO   O22  302   7.529   7.855   2.549 -0.2528 -0.4093  0.2617
    1CHTO   C31  303   7.443   7.962   2.494 -0.1014 -0.3888  0.5009
    1CHTO   H59  304   7.404   8.018   2.581 -1.9550  1.4759 -1.4632
    1CHTO   C29  305   7.525   8.057   2.405 -0.1013  0.6779 -0.2027
    1CHTO   H57  306   7.583   7.995   2.334  1.0947  0.3130  1.0647
    1CHTO   O21  307   7.620   8.122   2.488  0.5050  0.3104  0.1721
    1CHTO   H37  308   7.658   8.200   2.453  0.8158  0.9730  1.9239
    1CHTO   C27  309   7.444   8.164   2.320  0.5492 -0.6645 -0.5156
    1CHTO   H55  310   7.391   8.229   2.391 -1.0975 -1.0511 -1.3591
    1CHTO    N5  311   7.521   8.248   2.232 -0.1806 -0.4954  0.4256
    1CHTO   H43  312   7.464   8.323   2.179  1.9863  0.3773 -0.7369
    1CHTO   H44  313   7.564   8.178   2.162  0.7472 -0.0266  0.5238
    1CHTO   C25  314   7.333   8.077   2.245  0.0576  0.5125  0.1726
    1CHTO   H53  315   7.374   7.989   2.195  0.9174  1.6503 -1.1465
    1CHTO   O17  316   7.254   8.010   2.342  0.3353  0.6061  0.4020
    1CHTO   C32  317   7.317   7.904   2.421  0.6019  0.0643 -0.3574
    1CHTO   H60  318   7.348   7.822   2.356  3.6198  2.2165 -1.7542
    1CHTO   C36  319   7.206   7.852   2.531 -0.4384 -0.1038  0.2931
    1CHTO   O25  320   7.111   7.764   2.474  0.0984  0.2951 -0.1816
    1CHTO   H40  321   7.034   7.812   2.451 -0.6191 -1.1164 -0.8008
    1CHTO   O15  322   7.249   8.149   2.153  0.4043 -0.0734  0.3793
    1CHTO   C19  323   7.204   8.094   2.027 -0.0291  0.2089 -0.4103
    1CHTO   H47  324   7.122   8.164   2.001 -0.6731 -1.2957 -2.5165
    1CHTO   C20  325   7.309   8.102   1.913 -0.4668 -0.5296  0.1264
    1CHTO   H48  326   7.394   8.036   1.936  0.0665  0.3859  0.7813
    1CHTO   O19  327   7.361   8.234   1.912  0.1503  0.1903  1.0870
    1CHTO   H35  328   7.376   8.263   2.000 -0.8923  2.5142  0.5276
    1CHTO   C21  329   7.240   8.055   1.777  0.6551 -0.4168  0.3054
    1CHTO   H49  330   7.158   8.125   1.759  2.3537  2.0473  1.8611
    1CHTO    N4  331   7.331   8.060   1.658 -0.2334 -0.6131  0.5928
    1CHTO   H41  332   7.357   8.162   1.634 -1.8995 -0.4013 -0.3740
    1CHTO   H42  333   7.283   8.018   1.571  0.6512 -2.0361  0.7708
    1CHTO   C22  334   7.190   7.913   1.795  0.0574 -0.6545  0.6199
    1CHTO   H50  335   7.275   7.847   1.815  0.0907 -0.4490  1.1668
    1CHTO   O14  336   7.099   7.912   1.906 -0.4145  0.1855 -0.2080
    1CHTO   C23  337   7.135   7.958   2.039 -0.0690 -0.5560 -0.2332
    1CHTO   H51  338   7.200   7.883   2.087  0.1016 -0.4356 -0.2729
    1CHTO   C34  339   7.011   7.958   2.124  0.1118 -0.1904  0.2763
    1CHTO   O23  340   6.952   7.829   2.130 -0.3424  0.7095 -0.1151
    1CHTO   H38  341   6.866   7.831   2.167  0.0058 -1.2772  0.8616
    1CHTO   O16  342   7.110   7.866   1.690 -0.0106 -0.0185 -0.1383
    1CHTO   C24  343   7.174   7.733   1.625  0.0475 -0.2877  0.0181
    1CHTO   H52  344   7.280   7.723   1.649 -0.2765 -2.5328  0.6123
    1CHTO   C26  345   7.163   7.738   1.471 -0.0298  0.3852 -0.6549
    1CHTO   H54  346   7.057   7.758   1.443 -0.4439  0.1234  0.7236
    1CHTO   O20  347   7.244   7.848   1.419  0.1030  0.0078 -0.2384
    1CHTO   H36  348   7.332   7.836   1.449  0.4452  0.6726 -0.9484
    1CHTO   C30  349   7.192   7.606   1.403 -0.5615  0.3908  0.6467
    1CHTO   H58  350   7.301   7.597   1.397 -0.4594  1.8246  0.1423
    1CHTO    N6  351   7.155   7.614   1.261 -0.4742  0.3294 -0.0863
    1CHTO   H45  352   7.186   7.521   1.217 -0.0241  0.2349  0.4300
    1CHTO   H46  353   7.209   7.695   1.215 -3.5522  2.7280  0.2938
    1CHTO   C33  354   7.139   7.476   1.474 -0.5105  0.8640 -0.0046
    1CHTO   H61  355   7.029   7.473   1.462 -0.4062 -0.9409 -0.5718
    1CHTO   O18  356   7.162   7.490   1.617  0.3656 -0.1062  0.4768
    1CHTO   C28  357   7.103   7.606   1.680 -0.1215  0.1511  0.0983
    1CHTO   H56  358   6.997   7.605   1.652 -0.1178 -0.6397  0.0868
    1CHTO   C35  359   7.098   7.576   1.832 -0.2243  0.4452 -0.7891
    1CHTO   O24  360   6.985   7.500   1.884 -0.3155 -0.2984 -0.3261
    1CHTO   H39  361   6.996   7.460   1.968  1.2759 -0.3831 -0.5524
    1CHTO    O9  362   7.193   7.353   1.419  0.2609  0.3350  0.1721
    1CHTO   C13  363   7.118   7.233   1.474  0.4658 -0.4430  0.5996
    1CHTO   H26  364   7.021   7.270   1.513  0.0108 -0.6324 -0.3421
    1CHTO   C11  365   7.212   7.177   1.593  0.1916 -1.0181 -0.0814
    1CHTO   H24  366   7.197   7.231   1.688  2.7396 -0.1134 -0.1516
    1CHTO    O8  367   7.351   7.184   1.566 -0.1420 -0.4722 -0.3099
    1CHTO    H3  368   7.402   7.155   1.640  2.9285  1.1827 -1.7131
    1CHTO    C9  369   7.161   7.030   1.625  0.0560  0.3005 -0.3350
    1CHTO   H22  370   7.055   7.040   1.654  0.3637 -1.3995  1.4802
    1CHTO    N2  371   7.223   6.970   1.744  0.0091 -1.0163 -0.0607
    1CHTO   H10  372   7.229   7.037   1.829  0.0009  2.4441 -2.6492
    1CHTO   H11  373   7.181   6.875   1.772 -0.3727 -0.9184 -0.2858
    1CHTO    C7  374   7.168   6.934   1.497 -0.1538 -0.2057  0.4162
    1CHTO   H20  375   7.073   6.876   1.499 -0.3995  0.1698 -0.1491
    1CHTO    O4  376   7.176   7.009   1.375  0.1386 -0.1056  0.2704
    1CHTO   C14  377   7.086   7.120   1.363  0.7143  0.5480  0.1023
    1CHTO   H27  378   6.982   7.083   1.375  0.4561  1.3017  0.2032
    1CHTO   C18  379   7.090   7.174   1.221  0.4142  0.3321  0.4906
    1CHTO   O13  380   7.045   7.087   1.118  0.2867 -0.5196 -0.2900
    1CHTO    H7  381   6.954   7.066   1.132  0.6227 -1.7946  0.0905
    1CHTO    O2  382   7.293   6.831   1.506 -0.2366  0.6063 -0.0879
    1CHTO    C1  383   7.314   6.756   1.384  0.7418 -0.4415  0.1534
    1CHTO   H14  384   7.344   6.826   1.303  0.4125  0.7805  1.0633
    1CHTO    C2  385   7.192   6.669   1.330 -0.8359  0.0940 -0.5092
    1CHTO   H15  386   7.151   6.614   1.416  0.5553  1.4799  1.0685
    1CHTO    O6  387   7.092   6.756   1.276  0.6964  0.3027  0.2866
    1CHTO    H1  388   7.002   6.736   1.293  0.7128 -1.8342 -1.8269
    1CHTO    C3  389   7.239   6.572   1.207 -0.1453 -0.4955  0.0542
    1CHTO   H16  390   7.255   6.628   1.113  0.6911 -2.5166 -1.0299
    1CHTO    N1  391   7.138   6.473   1.167 -0.3932 -0.2278  0.4020
    1CHTO    H8  392   7.049   6.487   1.226 -0.8834  0.7339 -0.5594
    1CHTO    H9  393   7.126   6.482   1.060  0.1640  0.7046  0.4129
    1CHTO    C4  394   7.378   6.503   1.233 -0.2491  0.5424  0.1147
    1CHTO   H17  395   7.369   6.424   1.308  0.8543  0.4938  0.2039
    1CHTO    O1  396   7.477   6.593   1.282  0.0200  0.0523 -0.4034
    1CHTO    C5  397   7.442   6.664   1.403 -0.0066 -0.2079  0.2640
    1CHTO   H18  398   7.428   6.590   1.481 -0.8364  1.5030  1.7753
    1CHTO   C16  399   7.567   6.761   1.437  0.1349  0.4916  0.3640
    1CHTO   O11  400   7.687   6.687   1.463  0.1004  0.3083  0.4046
    1CHTO    H5  401   7.679   6.644   1.545 -0.5687  0.2072  0.2867
    1CHTO    O3  402   7.438   6.447   1.112 -0.3218  0.2760  0.2137
    1CHTO    C6  403   7.533   6.340   1.124  0.5865 -0.4325  0.7676
    1CHTO   H19  404   7.582   6.336   1.222  0.6416 -0.0329  0.7589
    1CHTO    C8  405   7.470   6.196   1.115 -0.0513  0.0134  0.3579
    1CHTO   H21  406   7.396   6.194   1.035  0.1825 -1.3696  0.1725
    1CHTO    O7  407   7.393   6.165   1.230 -0.0510 -0.0685  0.0301
    1CHTO    H2  408   7.309   6.204   1.219  0.2877  0.6209 -0.1839
    1CHTO   C12  409   7.585   6.092   1.094 -0.3288 -0.0714  0.2000
    1CHTO   H25  410   7.634   6.096   1.194 -1.3531  1.5207  0.6541
    1CHTO    N3  411   7.525   5.955   1.076  0.1195 -0.7627  0.1709
    1CHTO   H12  412   7.494   5.918   1.173  1.5222 -1.0315  0.5301
    1CHTO   H13  413   7.588   5.886   1.022 -1.2928 -1.1183 -1.0581
    1CHTO   C15  414   7.689   6.136   0.981  0.2324 -0.4607 -0.2842
    1CHTO   H28  415   7.639   6.128   0.884  0.0917 -1.9800 -0.0970
    1CHTO   O10  416   7.814   6.038   0.986  0.1657  0.6671  0.0660
    1CHTO    H4  417   7.801   5.958   0.940 -0.0528  1.1625 -0.7351
    1CHTO    O5  418   7.744   6.264   1.011  0.2212  0.4476  0.1915
    1CHTO   C10  419   7.643   6.365   1.017 -0.0818 -0.4140  0.4043
    1CHTO   H23  420   7.601   6.374   0.917  0.1277 -1.5905  0.1976
    1CHTO   C17  421   7.712   6.505   1.049  0.1817 -0.4319 -0.3421
    1CHTO   O12  422   7.823   6.532   0.958  0.1824 -0.1356  0.1312
    1CHTO    H6  423   7.860   6.615   0.981  0.6326 -0.4796  0.6537
    2CHTO  H203  424   6.930   4.436   2.242 -1.6238  2.5556 -0.4261
    2CHTO   O82  425   6.962   4.477   2.320  0.0426  0.0361  0.2898
    2CHTO  C123  426   6.849   4.534   2.390 -0.0344  0.1305  0.2711
    2CHTO  H227  427   6.870   4.639   2.416  0.3577  0.0558  0.2614
    2CHTO   O77  428   6.736   4.535   2.295  0.6023  0.4334 -0.7226
    2CHTO  C118  429   6.612   4.586   2.348 -0.2937  0.2852 -0.5667
    2CHTO  H222  430   6.636   4.687   2.384 -0.5994  0.4015 -0.6862
    2CHTO  C125  431   6.499   4.587   2.233  0.2149  0.0380 -0.0145
    2CHTO   O84  432   6.514   4.672   2.121 -0.5957 -0.2721 -0.0579
    2CHTO  H205  433   6.453   4.743   2.114  0.9905  1.1880  0.4525
    2CHTO  C114  434   6.571   4.503   2.466 -0.0372 -0.1678 -0.4434
    2CHTO  H218  435   6.562   4.399   2.437 -0.5208  0.0382 -1.0298
    2CHTO  C116  436   6.682   4.495   2.579 -0.6003 -0.5850  0.7147
    2CHTO  H220  437   6.702   4.588   2.638  0.7996 -0.3898 -0.0359
    2CHTO   O79  438   6.639   4.404   2.679 -0.8140  0.2223  0.3762
    2CHTO  H201  439   6.637   4.447   2.763  0.5493 -0.5935  0.8404
    2CHTO  C120  440   6.814   4.445   2.515  0.4980 -0.9882 -0.0467
    2CHTO  H224  441   6.800   4.341   2.479 -2.6549 -0.8415  0.6337
    2CHTO   N21  442   6.932   4.436   2.606  0.2065  0.3578 -0.0047
    2CHTO  H211  443   6.887   4.405   2.699 -0.1398 -2.6710 -1.1193
    2CHTO  H212  444   6.991   4.359   2.558  1.6923  1.2155  0.4102
    2CHTO   O75  445   6.442   4.560   2.510 -0.6979 -0.2287  0.2230
    2CHTO  C112  446   6.332   4.462   2.566 -0.0559 -0.7341  1.1732
    2CHTO  H216  447   6.389   4.384   2.618  2.1996 -0.0904 -0.2520
    2CHTO   O73  448   6.257   4.409   2.454 -0.1027  0.3891 -0.5139
    2CHTO  C113  449   6.135   4.347   2.491  0.6421  0.0653  0.4802
    2CHTO  H217  450   6.161   4.252   2.543 -0.8610 -0.7320 -0.1699
    2CHTO  C124  451   6.079   4.307   2.356 -0.6213  0.2434 -0.2376
    2CHTO   O83  452   6.154   4.194   2.308 -0.1147 -0.2481  0.1946
    2CHTO  H204  453   6.123   4.166   2.224 -1.8647  0.6008  0.5298
    2CHTO  C109  454   6.044   4.443   2.570 -0.2442  0.0143  0.5590
    2CHTO  H213  455   6.030   4.531   2.505  0.0401 -1.2528 -1.2516
    2CHTO  C110  456   6.110   4.492   2.696  0.6691  0.2952  0.1882
    2CHTO  H214  457   6.126   4.410   2.766 -2.2598 -0.0461  0.5402
    2CHTO   O78  458   6.025   4.584   2.771  0.1121  0.0768 -0.1193
    2CHTO  H200  459   5.933   4.594   2.755  0.1761  0.6583 -0.1352
    2CHTO  C111  460   6.249   4.553   2.665 -0.4550  0.1629  0.1950
    2CHTO  H215  461   6.233   4.653   2.623 -0.2529 -0.3079 -1.0223
    2CHTO   N19  462   6.320   4.574   2.793 -1.0736 -0.7883 -0.2793
    2CHTO  H207  463   6.397   4.648   2.778  1.3708 -3.0636  0.6256
    2CHTO  H208  464   6.367   4.481   2.822  0.9551  0.6321  1.1235
    2CHTO   O74  465   5.911   4.385   2.594  0.1952 -0.0370  0.1691
    2CHTO  C115  466   5.794   4.475   2.509 -0.1472 -0.2623 -0.4371
    2CHTO  H219  467   5.840   4.551   2.445  0.1583 -1.4096 -1.6022
    2CHTO   O76  468   5.723   4.395   2.420 -0.3620 -0.4704  0.4616
    2CHTO  C122  469   5.626   4.307   2.457  0.1880  0.0481 -0.6042
    2CHTO  H226  470   5.673   4.228   2.515 -0.1418 -0.3351 -0.8541
    2CHTO  C126  471   5.571   4.235   2.317 -0.7524  0.1610  0.0041
    2CHTO   O85  472   5.465   4.141   2.347 -0.3215  0.0010  0.3205
    2CHTO  H206  473   5.493   4.057   2.317  0.0913 -0.5099  2.0498
    2CHTO  C121  474   5.514   4.381   2.542  0.1502  0.3758  0.3632
    2CHTO  H225  475   5.423   4.383   2.479  0.4166  2.4206  0.0056
    2CHTO   O81  476   5.490   4.306   2.660  0.1299 -0.1120 -0.3620
    2CHTO  H202  477   5.483   4.216   2.637 -2.1959  0.1996 -1.0069
    2CHTO  C119  478   5.551   4.533   2.574 -0.6358 -0.3815  0.1962
    2CHTO  H223  479   5.544   4.578   2.475 -3.3358  0.9854  0.9466
    2CHTO  C117  480   5.704   4.549   2.614 -0.2131 -0.9337 -0.1380
    2CHTO  H221  481   5.725   4.503   2.710  1.1929 -0.9311 -0.4313
    2CHTO   N20  482   5.738   4.696   2.624  0.3738  0.3664 -0.4561
    2CHTO  H209  483   5.652   4.754   2.591 -0.7474  0.0702  1.8335
    2CHTO  H210  484   5.741   4.718   2.730  0.7021 -0.9136 -0.2007
    2CHTO   O80  485   5.423   4.604   2.657 -0.5630  0.2816 -0.5192
    2CHTO  C103  486   5.294   4.617   2.584  0.6115  1.1450 -0.1556
    2CHTO  H190  487   5.294   4.573   2.484 -1.0126  0.1234  0.2815
    2CHTO  C101  488   5.175   4.557   2.659  0.0355  0.1185  0.4183
    2CHTO  H188  489   5.189   4.568   2.766  1.4826  1.3388  0.1296
    2CHTO   O68  490   5.180   4.409   2.625  0.0722  0.1802  0.7581
    2CHTO  H168  491   5.165   4.355   2.700  1.3415  1.3649  1.8944
    2CHTO   C99  492   5.038   4.623   2.623 -0.3091  0.0483 -0.1030
    2CHTO  H186  493   4.997   4.592   2.525  1.1030 -1.7684 -0.1512
    2CHTO   N17  494   4.927   4.591   2.714  0.3486  0.1222  0.0362
    2CHTO  H174  495   4.942   4.491   2.752 -1.1484  0.4398  1.5143
    2CHTO  H175  496   4.833   4.603   2.661 -0.2798  0.9883  1.3089
    2CHTO   C97  497   5.054   4.777   2.610  0.5082 -0.3391  0.3347
    2CHTO  H184  498   5.076   4.823   2.707 -0.6801 -2.2709  1.5619
    2CHTO   O64  499   5.159   4.804   2.512 -0.0288 -0.1053  0.6080
    2CHTO  C104  500   5.281   4.773   2.570  0.4015 -0.1595  0.5295
    2CHTO  H191  501   5.296   4.820   2.667  0.7360 -0.6700  0.7272
    2CHTO  C108  502   5.385   4.832   2.472 -0.1071  0.2482 -0.4892
    2CHTO   O71  503   5.399   4.973   2.497 -0.1460  0.2482  0.0219
    2CHTO  H171  504   5.358   5.026   2.432 -1.5601 -0.0825  0.6354
    2CHTO   O62  505   4.941   4.829   2.546  0.1047  0.0691  0.2691
    2CHTO   C91  506   4.904   4.967   2.577 -0.3994 -0.0359 -0.1572
    2CHTO  H178  507   4.914   4.990   2.683 -1.5096  0.3046 -0.1220
    2CHTO   C92  508   4.753   4.983   2.550 -0.2160  0.1909 -0.2792
    2CHTO  H179  509   4.695   4.905   2.601  0.8454  0.4143  1.3263
    2CHTO   O66  510   4.716   5.104   2.615  0.1596  0.0804  0.2928
    2CHTO  H166  511   4.732   5.090   2.706 -1.2178  2.7154  0.9902
    2CHTO   C93  512   4.703   4.991   2.399  0.6295  0.2087 -0.3123
    2CHTO  H180  513   4.602   5.035   2.400  0.6977  0.3394  1.0605
    2CHTO   N16  514   4.685   4.853   2.337  0.0022  0.7433 -0.5010
    2CHTO  H172  515   4.607   4.852   2.263  1.9357  1.7187 -2.6187
    2CHTO  H173  516   4.657   4.790   2.420 -0.6982  0.2859 -1.0869
    2CHTO   C94  517   4.798   5.082   2.311 -0.0446  0.6387 -0.6286
    2CHTO  H181  518   4.869   5.027   2.251 -0.1195  1.0262 -1.0774
    2CHTO   O61  519   4.885   5.157   2.402  0.4042  0.8824 -0.4087
    2CHTO   C95  520   4.974   5.066   2.469 -0.1866 -0.1926  0.8230
    2CHTO  H182  521   5.018   5.003   2.392  0.2108  2.0080 -0.7894
    2CHTO  C106  522   5.096   5.142   2.526  0.0759  0.4896  0.0575
    2CHTO   O69  523   5.182   5.187   2.423  0.3537 -0.3411  0.0017
    2CHTO  H169  524   5.268   5.156   2.442  0.7600  0.5369 -0.3740
    2CHTO   O63  525   4.719   5.178   2.225  0.3270 -0.2643  0.4857
    2CHTO   C96  526   4.688   5.341   2.287  0.2678  0.0423  0.2212
    2CHTO  H183  527   4.749   5.353   2.377  2.4504 -1.7691 -0.9595
    2CHTO   C98  528   4.530   5.355   2.308 -0.0528 -1.0575 -0.0061
    2CHTO  H185  529   4.477   5.325   2.217  0.1118 -3.5120  0.6760
    2CHTO   O67  530   4.480   5.270   2.414 -0.3496  0.7920 -0.2592
    2CHTO  H167  531   4.389   5.283   2.431 -0.4778 -0.8455  0.4500
    2CHTO  C102  532   4.506   5.514   2.336 -0.3877 -0.2013  0.2032
    2CHTO  H189  533   4.553   5.543   2.431 -1.7974  1.3466  0.4707
    2CHTO   N18  534   4.363   5.552   2.361  0.1352 -0.1020 -0.4593
    2CHTO  H176  535   4.288   5.544   2.284 -1.0945 -3.4303  0.9745
    2CHTO  H177  536   4.325   5.506   2.451 -3.0988  0.3034 -1.5441
    2CHTO  C105  537   4.573   5.602   2.231 -0.6321 -0.1892  0.2727
    2CHTO  H192  538   4.531   5.577   2.134  0.9960 -0.8404 -0.2772
    2CHTO   O65  539   4.712   5.572   2.209  0.2579 -0.5488 -0.6935
    2CHTO  C100  540   4.751   5.435   2.184  0.1084  0.8432  0.1984
    2CHTO  H187  541   4.711   5.414   2.083  2.9171  2.9001 -1.4081
    2CHTO  C107  542   4.902   5.416   2.163 -0.2568  0.3676  0.2019
    2CHTO   O70  543   4.988   5.438   2.274 -0.2070  0.2258 -0.3255
    2CHTO  H170  544   4.991   5.357   2.323 -1.4893 -0.5938 -1.5423
    2CHTO   O57  545   4.558   5.756   2.270  0.3087 -0.0724 -0.5144
    2CHTO   C85  546   4.495   5.854   2.190  0.6054 -0.4465  0.1762
    2CHTO  H157  547   4.400   5.813   2.150  0.6642 -0.9551  0.5580
    2CHTO   C83  548   4.581   5.878   2.061 -0.0319 -0.1199  0.1838
    2CHTO  H155  549   4.577   5.786   2.002  0.2377 -1.6217  2.4321
    2CHTO   O56  550   4.726   5.892   2.087 -0.2449 -0.0535 -0.0128
    2CHTO  H135  551   4.750   5.894   2.177  0.1317 -0.3828 -0.1095
    2CHTO   C81  552   4.518   5.998   1.984  0.6117 -0.4145 -0.5374
    2CHTO  H153  553   4.418   5.969   1.953  0.8059 -0.3248 -1.2462
    2CHTO   N14  554   4.576   6.021   1.852 -0.5436 -0.1728  0.4163
    2CHTO  H141  555   4.527   6.102   1.802  0.1474 -0.2569 -0.4166
    2CHTO  H142  556   4.679   6.048   1.869 -0.4612  0.2858 -0.7726
    2CHTO   C79  557   4.511   6.123   2.069  0.4387 -0.2506 -0.1758
    2CHTO  H151  558   4.453   6.201   2.019  2.0463  1.8918  1.1589
    2CHTO   O52  559   4.445   6.105   2.191  0.8391 -0.3462  0.5261
    2CHTO   C86  560   4.478   5.983   2.266  1.1210 -0.2674  0.5315
    2CHTO  H158  561   4.572   6.012   2.319 -0.1550  0.4885  2.4411
    2CHTO   C90  562   4.372   5.982   2.379  0.1746 -0.1412  0.0885
    2CHTO   O60  563   4.243   5.967   2.322  0.1861  0.5838 -0.3317
    2CHTO  H138  564   4.187   6.026   2.368 -0.2264  1.1815 -1.5737
    2CHTO   O50  565   4.634   6.189   2.097  0.1981 -0.4445 -0.4523
    2CHTO   C73  566   4.656   6.329   2.107  0.5978 -0.2472 -0.3508
    2CHTO  H145  567   4.575   6.376   2.163  0.3679 -0.1092 -0.7925
    2CHTO   C74  568   4.654   6.401   1.970 -0.5106 -0.4984  0.2292
    2CHTO  H146  569   4.557   6.383   1.922 -0.7825  0.4128  0.4433
    2CHTO   O54  570   4.666   6.540   1.996  0.4736 -0.4642  0.1209
    2CHTO  H133  571   4.596   6.586   2.040  0.7525 -1.0678  1.2196
    2CHTO   C75  572   4.772   6.338   1.888 -0.7149  0.3258 -0.7448
    2CHTO  H147  573   4.754   6.230   1.877 -0.2566  0.1861 -0.1228
    2CHTO   N13  574   4.784   6.382   1.746 -0.4593 -0.6110 -0.9277
    2CHTO  H139  575   4.809   6.487   1.741 -0.2091 -0.6725 -1.0024
    2CHTO  H140  576   4.856   6.329   1.685  0.1516 -0.7489 -0.1022
    2CHTO   C76  577   4.913   6.363   1.968  0.0383 -0.0456  0.0675
    2CHTO  H148  578   4.920   6.472   1.961 -1.1976 -0.0539 -1.4521
    2CHTO   O49  579   4.903   6.317   2.116 -0.3373  0.3190  0.1329
    2CHTO   C77  580   4.789   6.362   2.187  0.4218  0.1832  0.1032
    2CHTO  H149  581   4.788   6.469   2.207 -1.1506 -0.1951  2.1286
    2CHTO   C88  582   4.805   6.300   2.328 -0.0245  0.1779  0.1670
    2CHTO   O58  583   4.713   6.365   2.420  0.2168  0.5535 -0.1996
    2CHTO  H136  584   4.751   6.393   2.501  1.0246 -1.9003  0.3127
    2CHTO   O51  585   5.038   6.298   1.906  0.1416  0.1696 -0.4657
    2CHTO   C78  586   5.127   6.204   1.986  0.9215  0.6691  0.7351
    2CHTO  H150  587   5.083   6.174   2.083 -2.4665 -2.8396 -1.7505
    2CHTO   C80  588   5.260   6.279   2.013 -0.0898  0.1522  0.4487
    2CHTO  H152  589   5.311   6.307   1.918 -0.4634 -0.7135 -0.0080
    2CHTO   O55  590   5.229   6.403   2.088  0.1371 -0.6138 -0.1423
    2CHTO  H134  591   5.240   6.390   2.180  0.7250 -0.0138 -0.1294
    2CHTO   C84  592   5.357   6.189   2.095  0.0030  0.8179  0.2559
    2CHTO  H156  593   5.306   6.169   2.189  2.0262  1.0777  1.4499
    2CHTO   N15  594   5.489   6.260   2.133 -0.3570  0.5407 -0.1100
    2CHTO  H143  595   5.535   6.293   2.042 -0.5004  1.2456  0.0655
    2CHTO  H144  596   5.472   6.343   2.199 -0.7930  2.7942 -2.9687
    2CHTO   C87  597   5.380   6.048   2.026  0.3945  0.2948  0.0752
    2CHTO  H159  598   5.448   6.055   1.941  0.1656  0.2332 -0.1138
    2CHTO   O53  599   5.244   5.979   1.985  0.2767  0.3519  0.2523
    2CHTO   C82  600   5.158   6.068   1.911 -0.0349 -0.0346  0.7941
    2CHTO  H154  601   5.200   6.093   1.813  1.5907 -0.6139  1.3359
    2CHTO   C89  602   5.017   6.007   1.890 -0.6263  0.5687 -0.0574
    2CHTO   O59  603   4.996   5.877   1.831  0.2048 -0.2673  0.3753
    2CHTO  H137  604   4.917   5.839   1.863 -1.0459  2.0549  0.1452
    2CHTO   O45  605   5.449   5.943   2.149 -0.1783  0.2975 -0.0446
    2CHTO   C67  606   5.355   5.886   2.236  0.0344  0.1978 -0.0583
    2CHTO  H124  607   5.262   5.944   2.231 -0.8012 -1.2784 -2.3181
    2CHTO   C65  608   5.321   5.734   2.198  0.4225  0.2878 -0.4076
    2CHTO  H122  609   5.395   5.690   2.130  0.3812 -0.6073  0.1183
    2CHTO   O44  610   5.206   5.737   2.112 -0.5972  0.3091 -0.7815
    2CHTO  H102  611   5.187   5.652   2.075 -2.1383  0.4875 -0.4406
    2CHTO   C63  612   5.318   5.634   2.322 -0.0886  0.1904  0.4971
    2CHTO  H120  613   5.420   5.626   2.359  0.8232  1.0665 -1.7347
    2CHTO   N11  614   5.297   5.498   2.291 -0.3123  0.0555  0.6555
    2CHTO  H108  615   5.296   5.430   2.374  0.8750 -0.4470  0.2737
    2CHTO  H109  616   5.208   5.488   2.233 -0.4195  0.7370  0.6982
    2CHTO   C61  617   5.237   5.702   2.442  0.0340  0.3707 -0.1737
    2CHTO  H118  618   5.242   5.631   2.526  2.9301  1.4430  0.6424
    2CHTO   O40  619   5.307   5.826   2.488 -0.2874 -0.1679 -0.1391
    2CHTO   C68  620   5.400   5.895   2.389  0.0331 -0.6417  0.1638
    2CHTO  H125  621   5.494   5.837   2.402  0.5992  0.1328 -0.4394
    2CHTO   C72  622   5.432   6.039   2.428  0.3635 -0.2428  0.0682
    2CHTO   O48  623   5.522   6.073   2.531  0.3006 -0.6990  0.2886
    2CHTO  H105  624   5.489   6.144   2.582  0.7358  0.6335 -1.2532
    2CHTO   O38  625   5.096   5.713   2.417  0.4836 -0.4186 -0.4435
    2CHTO   C55  626   5.004   5.751   2.522 -0.0070  0.4426 -0.7431
    2CHTO  H112  627   5.063   5.799   2.602  0.7763  0.8390 -1.5435
    2CHTO   C56  628   4.929   5.623   2.577  0.1410  0.5024  0.3007
    2CHTO  H113  629   4.869   5.586   2.493 -1.6287 -0.0531  1.7880
    2CHTO   O42  630   5.017   5.514   2.608 -0.5655  0.4923 -0.1482
    2CHTO  H100  631   4.982   5.429   2.623 -0.3932  0.0619 -2.0212
    2CHTO   C57  632   4.824   5.673   2.692 -0.8067 -0.3198  0.1397
    2CHTO  H114  633   4.892   5.714   2.767  0.8659 -1.0874 -0.9166
    2CHTO   N10  634   4.740   5.558   2.739 -0.6255 -0.2347 -0.4606
    2CHTO  H106  635   4.782   5.495   2.815 -0.8488 -0.2889 -0.3827
    2CHTO  H107  636   4.649   5.604   2.776  0.8294  2.2916  0.0904
    2CHTO   C58  637   4.735   5.788   2.636 -0.5350  0.1883  0.6065
    2CHTO  H115  638   4.663   5.747   2.561 -0.6120 -0.3832  0.9914
    2CHTO   O37  639   4.816   5.890   2.579 -0.6254 -0.0027  0.0979
    2CHTO   C59  640   4.897   5.854   2.465  0.1064 -0.3780 -0.6993
    2CHTO  H116  641   4.839   5.816   2.382 -1.3330  2.8288 -1.2446
    2CHTO   C70  642   4.975   5.976   2.410  0.0991 -0.4913  0.2163
    2CHTO   O46  643   5.037   5.962   2.282 -0.0184 -0.1027 -0.1737
    2CHTO  H103  644   5.065   6.051   2.275 -1.7795  0.6967  2.3020
    2CHTO   O39  645   4.666   5.857   2.762 -0.4091  0.1215 -0.1811
    2CHTO   C60  646   4.521   5.860   2.744  0.5259  0.4432 -0.4383
    2CHTO  H117  647   4.492   5.862   2.639  2.6642 -2.3365 -1.1464
    2CHTO   C62  648   4.446   5.736   2.796 -0.1864 -0.2728  0.1364
    2CHTO  H119  649   4.463   5.646   2.733 -2.2242 -0.6523  0.0678
    2CHTO   O43  650   4.497   5.698   2.921  0.2792 -0.2934 -0.4900
    2CHTO  H101  651   4.590   5.691   2.925  0.7585  4.1712 -0.4141
    2CHTO   C66  652   4.287   5.759   2.798  0.7207 -0.2303  0.4051
    2CHTO  H123  653   4.256   5.783   2.696  1.4553 -1.0045 -0.0095
    2CHTO   N12  654   4.207   5.638   2.829  0.2157  0.0699 -0.2698
    2CHTO  H110  655   4.219   5.554   2.763 -0.7430 -0.5693  0.3634
    2CHTO  H111  656   4.182   5.623   2.933  3.5031 -2.0201  0.2873
    2CHTO   C69  657   4.247   5.885   2.878  0.2910  0.4768  0.2394
    2CHTO  H126  658   4.277   5.876   2.984 -0.7204  2.9863  0.7661
    2CHTO   O41  659   4.325   6.008   2.813 -0.0283  0.4791 -0.5705
    2CHTO   C64  660   4.465   5.991   2.803 -0.5447  0.1293  0.2739
    2CHTO  H121  661   4.516   6.002   2.901  2.4998 -1.4235 -1.0637
    2CHTO   C71  662   4.509   6.111   2.713  0.0032  0.1698  0.1527
    2CHTO   O47  663   4.464   6.238   2.756 -0.2523  0.3014  0.0092
    2CHTO  H104  664   4.467   6.255   2.848 -1.4199 -0.3636  0.1830
    2CHTO   O34  665   4.097   5.908   2.870  0.5015 -0.7831  0.2105
    2CHTO   C49  666   3.979   6.033   2.898  0.5096 -0.4184 -0.2450
    2CHTO   H91  667   3.913   6.006   2.980  1.1457  1.5963  0.9808
    2CHTO   C47  668   3.903   6.047   2.767  1.1500  0.1434  0.3290
    2CHTO   H89  669   3.826   6.126   2.779  1.9073  1.2941 -2.1864
    2CHTO   O33  670   3.840   5.922   2.735  0.2237 -0.6148 -0.0254
    2CHTO   H70  671   3.792   5.929   2.655 -0.4150 -2.1914  0.2023
    2CHTO   C45  672   4.012   6.092   2.646  0.9240  0.8326 -0.4371
    2CHTO   H87  673   4.093   6.017   2.638 -0.3276 -0.5379 -0.5047
    2CHTO    N8  674   3.943   6.097   2.514  0.3700 -0.5613 -0.9445
    2CHTO   H75  675   3.920   6.000   2.471 -1.0893  0.3147 -2.1691
    2CHTO   H76  676   4.006   6.152   2.446 -0.6418  1.0242 -0.6067
    2CHTO   C43  677   4.080   6.232   2.695  0.3964 -1.1900  0.3146
    2CHTO   H85  678   4.157   6.259   2.623  4.0639  1.3060  4.8746
    2CHTO   O29  679   4.132   6.227   2.824  0.2924 -0.1900  0.5798
    2CHTO   C50  680   4.053   6.168   2.932  0.1014  0.9070  0.6238
    2CHTO   H92  681   4.131   6.147   3.007 -0.6817 -2.5816  0.5403
    2CHTO   C54  682   3.970   6.279   2.992 -0.2389  0.2072 -0.2067
    2CHTO   O36  683   4.043   6.397   3.033 -0.3806 -0.2721  0.1783
    2CHTO   H72  684   3.989   6.466   3.065 -1.4524 -1.4937  1.0496
    2CHTO   O27  685   3.991   6.349   2.674 -0.0456 -0.7244  0.3356
    2CHTO   C37  686   3.937   6.477   2.646  0.0234 -0.6527 -0.3914
    2CHTO   H79  687   3.977   6.522   2.554  0.8344  1.1662  0.8150
    2CHTO   C38  688   3.783   6.456   2.643  0.5077  0.0088 -0.4608
    2CHTO   H80  689   3.748   6.412   2.738 -1.3776 -0.0780 -1.1779
    2CHTO   O31  690   3.754   6.357   2.536 -0.2745 -0.5552  0.0835
    2CHTO   H68  691   3.835   6.339   2.492 -0.2798  0.3969 -0.3261
    2CHTO   C39  692   3.713   6.599   2.621 -0.0896 -0.1848  0.2582
    2CHTO   H81  693   3.750   6.642   2.528  1.0259  0.1467  0.8420
    2CHTO    N7  694   3.566   6.594   2.609  0.3671 -0.3667  0.0958
    2CHTO   H73  695   3.548   6.585   2.503 -1.6389  1.4774  0.2482
    2CHTO   H74  696   3.533   6.500   2.652  1.1913 -0.9547 -0.5475
    2CHTO   C40  697   3.752   6.706   2.741  0.0898 -0.8830  1.1178
    2CHTO   H82  698   3.705   6.681   2.836 -1.6330  0.4655  0.6620
    2CHTO   O26  699   3.899   6.706   2.749  0.5498  0.3464  0.1687
    2CHTO   C41  700   3.966   6.575   2.769  0.0221 -0.6087 -0.1807
    2CHTO   H83  701   3.930   6.527   2.860 -1.6722 -0.8287 -0.9506
    2CHTO   C52  702   4.117   6.595   2.787  0.7805 -0.0770  0.1223
    2CHTO   O35  703   4.170   6.700   2.698 -0.6681 -0.3922 -0.0451
    2CHTO   H71  704   4.168   6.658   2.614  0.0131 -1.3772  0.4262
    2CHTO   O28  705   3.709   6.846   2.714  0.5609  0.0017 -0.5029
    2CHTO   C42  706   3.723   6.954   2.822  0.0486 -0.0947  0.2081
    2CHTO   H84  707   3.694   7.049   2.778 -0.6363 -0.3099  0.1874
    2CHTO   C44  708   3.863   6.980   2.880 -0.0361 -0.0509  1.0918
    2CHTO   H86  709   3.892   6.897   2.945  2.2104  0.1679  0.4087
    2CHTO   O32  710   3.943   6.995   2.766 -0.3958  0.7738  0.5055
    2CHTO   H69  711   4.032   6.976   2.786 -0.1684  2.2561  0.8929
    2CHTO   C48  712   3.867   7.113   2.965  0.0047  0.4287  0.5868
    2CHTO   H90  713   3.832   7.190   2.897 -2.4405 -1.3808 -0.2629
    2CHTO    N9  714   4.014   7.159   3.000  0.0048  0.9512  0.6671
    2CHTO   H77  715   4.043   7.251   2.951 -2.5196  1.0162 -0.8094
    2CHTO   H78  716   4.007   7.180   3.106 -0.1202  1.8805  0.4798
    2CHTO   C51  717   3.780   7.084   3.091  0.5784  0.0256 -0.0544
    2CHTO   H93  718   3.816   7.000   3.151 -0.1963 -0.6521 -0.5315
    2CHTO   O30  719   3.642   7.066   3.047  0.5424  0.2427 -0.6515
    2CHTO   C46  720   3.627   6.935   2.948  0.0558 -0.5538 -0.2991
    2CHTO   H88  721   3.654   6.843   3.000 -2.5189 -1.1764 -0.0100
    2CHTO   C53  722   3.480   6.928   2.909 -0.2922 -0.0129  0.4049
    2CHTO   O72  723   3.387   6.898   3.012 -0.0985 -0.0591 -0.6581
    2CHTO  H199  724   3.417   6.828   3.066  2.0534  0.2601 -1.3700
    2CHTO   O22  725   3.762   7.184   3.198  0.8864  0.0803 -0.0610
    2CHTO   C31  726   3.771   7.150   3.346  0.5094  0.2159 -0.4045
    2CHTO   H59  727   3.732   7.239   3.399  0.3315 -0.5673  0.8126
    2CHTO   C29  728   3.676   7.035   3.381  0.1303  0.0904 -0.5155
    2CHTO   H57  729   3.704   6.959   3.306 -0.4953  0.7986 -1.4791
    2CHTO   O21  730   3.542   7.076   3.343 -0.7059 -0.0465 -0.1240
    2CHTO   H37  731   3.480   7.077   3.413  0.4290 -0.2564  0.8932
    2CHTO   C27  732   3.696   6.981   3.531 -0.2430 -0.3020  0.3102
    2CHTO   H55  733   3.677   7.065   3.600 -1.5326 -0.2427 -0.1096
    2CHTO    N5  734   3.611   6.862   3.566 -0.0895 -0.0316 -0.5360
    2CHTO   H43  735   3.505   6.878   3.551 -0.4917 -2.1357 -0.0521
    2CHTO   H44  736   3.629   6.826   3.667 -0.3791 -0.8681 -0.7809
    2CHTO   C25  737   3.851   6.959   3.569  0.1065 -1.0586  0.1480
    2CHTO   H53  738   3.894   6.881   3.506  0.2149 -1.2664  0.4758
    2CHTO   O17  739   3.916   7.091   3.544  0.5247 -0.3748  0.1586
    2CHTO   C32  740   3.919   7.120   3.403 -1.0468  0.2332  0.3978
    2CHTO   H60  741   3.960   7.036   3.347  0.9539  0.9127  0.7892
    2CHTO   C36  742   4.008   7.237   3.379 -0.3553 -0.0309 -0.3522
    2CHTO   O25  743   4.127   7.205   3.314  0.2399  0.0096 -0.7673
    2CHTO   H40  744   4.181   7.150   3.368 -1.8186 -0.9342  0.3464
    2CHTO   O15  745   3.870   6.915   3.727  0.1681 -0.3039  0.1940
    2CHTO   C19  746   3.819   6.817   3.827  0.4632 -0.3154  0.5696
    2CHTO   H47  747   3.710   6.801   3.813  0.3551 -0.0448  1.1101
    2CHTO   C20  748   3.883   6.680   3.817 -0.6291  0.8433  0.3240
    2CHTO   H48  749   3.987   6.674   3.853 -0.1776  2.2460 -0.6842
    2CHTO   O19  750   3.883   6.646   3.681  0.3859 -0.0953 -0.5635
    2CHTO   H35  751   3.885   6.720   3.623  0.3190  1.2706  1.1255
    2CHTO   C21  752   3.817   6.574   3.911 -0.4027 -0.0840 -0.3941
    2CHTO   H49  753   3.716   6.558   3.875 -0.5410  0.0085 -0.0411
    2CHTO    N4  754   3.880   6.435   3.910  0.0914 -0.3707 -0.0684
    2CHTO   H41  755   3.837   6.385   3.824 -1.4816  0.3279  0.2966
    2CHTO   H42  756   3.862   6.381   4.001  1.2941  0.0674  0.4368
    2CHTO   C22  757   3.809   6.628   4.055  0.8548  0.0264  0.3217
    2CHTO   H50  758   3.911   6.631   4.091  0.7750  0.2991  0.5342
    2CHTO   O14  759   3.758   6.763   4.059  0.1449 -0.0866 -0.5699
    2CHTO   C23  760   3.828   6.861   3.979 -0.2333  0.9488  0.1429
    2CHTO   H51  761   3.931   6.868   4.017 -0.7957  2.7477  1.3978
    2CHTO   C34  762   3.771   7.003   3.996  0.9353 -0.2191 -0.2933
    2CHTO   O23  763   3.767   7.024   4.138  0.3254  0.1673 -0.0582
    2CHTO   H38  764   3.854   7.033   4.171  0.2431  0.4050  0.0930
    2CHTO   O16  765   3.729   6.550   4.145 -0.1880  0.2355  0.2703
    2CHTO   C24  766   3.771   6.590   4.301 -0.4244 -0.2151 -0.5591
    2CHTO   H52  767   3.840   6.673   4.305  0.5162 -0.9126 -1.9039
    2CHTO   C26  768   3.834   6.468   4.367  0.1905 -0.3010  0.0746
    2CHTO   H54  769   3.760   6.385   4.367 -1.2816  0.9902  1.4369
    2CHTO   O20  770   3.955   6.443   4.292  0.5808  0.4147  0.7133
    2CHTO   H36  771   3.999   6.371   4.333  0.8750 -0.0750 -0.4451
    2CHTO   C30  772   3.869   6.495   4.517 -0.2352  0.6406  1.1293
    2CHTO   H58  773   3.948   6.571   4.528  1.8589 -1.4560  1.0687
    2CHTO    N6  774   3.924   6.380   4.586  0.4797 -0.7127 -0.1327
    2CHTO   H45  775   3.832   6.329   4.613  0.5547  0.2176  1.9566
    2CHTO   H46  776   3.971   6.412   4.678 -0.7823  0.6963  0.0401
    2CHTO   C33  777   3.745   6.554   4.594 -0.4677 -0.2169  0.2003
    2CHTO   H61  778   3.664   6.481   4.610  1.0665 -2.4350 -1.7436
    2CHTO   O18  779   3.691   6.661   4.515 -0.5206  0.5730 -0.1121
    2CHTO   C28  780   3.647   6.632   4.382 -0.7021  0.6223  0.1833
    2CHTO   H56  781   3.576   6.549   4.377 -1.3894  1.3255 -2.8569
    2CHTO   C35  782   3.578   6.755   4.317  0.0890  0.1624 -0.4402
    2CHTO   O24  783   3.464   6.803   4.391  0.4543  0.1556  0.4684
    2CHTO   H39  784   3.401   6.742   4.424 -1.1156  1.8598  0.7059
    2CHTO    O9  785   3.787   6.599   4.724 -0.9294  0.2781 -0.1719
    2CHTO   C13  786   3.668   6.651   4.826  0.1365  0.2076  0.1239
    2CHTO   H26  787   3.583   6.587   4.793  2.3549 -2.2484 -1.0428
    2CHTO   C11  788   3.639   6.798   4.806 -0.0355  0.0009 -0.1973
    2CHTO   H24  789   3.583   6.808   4.712 -1.3587 -2.7417  0.2476
    2CHTO    O8  790   3.757   6.874   4.784 -0.8367  0.2134  0.4766
    2CHTO    H3  791   3.766   6.884   4.691 -1.0970  1.7964  0.6157
    2CHTO    C9  792   3.543   6.842   4.925  0.1044  0.7504 -0.0396
    2CHTO   H22  793   3.455   6.776   4.917 -0.5790  1.7476 -0.8976
    2CHTO    N2  794   3.493   6.977   4.900  0.2565  0.1143 -0.1153
    2CHTO   H10  795   3.417   6.978   4.823  0.0783  0.2536  0.0604
    2CHTO   H11  796   3.570   7.051   4.904  0.5711 -0.0692 -2.0675
    2CHTO    C7  797   3.601   6.820   5.066  0.0952 -0.0615  0.1924
    2CHTO   H20  798   3.514   6.841   5.131 -0.2546 -3.4490  0.9112
    2CHTO    O4  799   3.640   6.684   5.080  0.4637  0.8785  0.4723
    2CHTO   C14  800   3.713   6.608   4.980 -0.7075 -0.8838 -0.0202
    2CHTO   H27  801   3.692   6.499   4.982  0.6266 -1.1416  0.5526
    2CHTO   C18  802   3.867   6.627   4.993 -0.2255 -0.0331 -0.3226
    2CHTO   O13  803   3.909   6.576   5.118  0.4441 -0.4875  0.3450
    2CHTO    H7  804   3.944   6.489   5.118  2.2651  0.2180 -0.0700
    2CHTO    O2  805   3.740   6.907   5.092  0.2020  0.5586  0.1260
    2CHTO    C1  806   3.757   6.990   5.207  0.4832  0.6988  0.7636
    2CHTO   H14  807   3.725   6.934   5.298  2.7342  1.7371  2.2269
    2CHTO    C2  808   3.670   7.131   5.202  0.1999 -0.6315  0.2684
    2CHTO   H15  809   3.696   7.175   5.105 -1.7287  2.0110  0.8805
    2CHTO    O6  810   3.527   7.101   5.203 -0.3464 -0.1131 -0.2357
    2CHTO    H1  811   3.508   7.075   5.115  1.8064  0.8765 -1.0328
    2CHTO    C3  812   3.700   7.233   5.325  0.0804  0.2734  0.2861
    2CHTO   H16  813   3.659   7.187   5.417 -2.2257  0.9100 -0.3897
    2CHTO    N1  814   3.628   7.359   5.298  0.0621  0.1943 -0.5140
    2CHTO    H8  815   3.704   7.435   5.286 -0.4268  0.7901  0.0865
    2CHTO    H9  816   3.567   7.351   5.209  0.6690 -1.0615 -0.8229
    2CHTO    C4  817   3.860   7.239   5.331  0.8166  0.3426 -0.4030
    2CHTO   H17  818   3.894   7.284   5.238 -4.6869  1.5682 -1.9573
    2CHTO    O1  819   3.923   7.113   5.346 -0.4762 -0.2830  0.0986
    2CHTO    C5  820   3.904   7.018   5.234  0.4079  0.4068  0.3857
    2CHTO   H18  821   3.939   7.062   5.141  0.8615  3.3969  1.8754
    2CHTO   C16  822   3.976   6.883   5.255  0.4649 -0.2666 -0.1432
    2CHTO   O11  823   4.102   6.881   5.319 -0.6284 -0.1325 -0.3753
    2CHTO    H5  824   4.152   6.955   5.290 -0.2711 -0.3078 -0.2167
    2CHTO    O3  825   3.910   7.306   5.448 -0.3687  0.3064 -1.2645
    2CHTO    C6  826   4.030   7.386   5.425 -0.6275 -0.2098  1.2290
    2CHTO   H19  827   4.083   7.373   5.331 -0.1947 -1.5614  1.6579
    2CHTO    C8  828   3.982   7.533   5.412 -0.5877  0.2855  0.2679
    2CHTO   H21  829   3.903   7.556   5.483 -3.6620 -0.1437 -2.8930
    2CHTO    O7  830   3.919   7.551   5.281 -0.2359  0.0228 -0.3204
    2CHTO    H2  831   3.827   7.558   5.292 -0.0805 -0.5250  1.4706
    2CHTO   C12  832   4.096   7.634   5.441 -0.1681 -0.4874 -0.0218
    2CHTO   H25  833   4.159   7.648   5.351 -0.9487  2.8246 -0.1184
    2CHTO    N3  834   4.035   7.773   5.460 -0.6153  0.2635  0.9847
    2CHTO   H12  835   3.984   7.811   5.373 -0.5617  0.8177  1.1915
    2CHTO   H13  836   4.106   7.845   5.497 -0.6179 -0.3380  2.1833
    2CHTO   C15  837   4.195   7.585   5.554 -0.4455  0.9827 -0.1810
    2CHTO   H28  838   4.153   7.588   5.655  0.0382  1.4855  0.0068
    2CHTO   O10  839   4.322   7.677   5.556 -0.0162  0.0581 -0.4024
    2CHTO    H4  840   4.378   7.659   5.629 -1.6519 -0.9127  0.6356
    2CHTO    O5  841   4.244   7.448   5.527  1.0375 -0.6673 -0.1216
    2CHTO   C10  842   4.129   7.356   5.533  0.2497 -0.6209 -0.1344
    2CHTO   H23  843   4.087   7.363   5.634  0.1373 -0.1917 -0.2099
    2CHTO   C17  844   4.179   7.220   5.500 -0.5395  0.0722 -0.2142
    2CHTO   O12  845   4.283   7.186   5.596  0.4855  0.4729  0.1044
    2CHTO    H6  846   4.305   7.095   5.594  2.0326  0.7533  2.6032
    3CHTO  H203  847   7.890   1.819   2.120 -1.9301 -1.5121  3.1599
    3CHTO   O82  848   7.812   1.805   2.070 -0.1916 -0.1691 -0.0515
    3CHTO  C123  849   7.787   1.660   2.079 -0.2304 -0.8749  0.2232
    3CHTO  H227  850   7.797   1.634   2.186  1.2340 -1.2978 -0.0145
    3CHTO   O77  851   7.650   1.632   2.040 -0.0214  0.6154  0.1467
    3CHTO  C118  852   7.607   1.495   2.057 -0.1378  0.4324 -0.5181
    3CHTO  H222  853   7.624   1.466   2.162 -0.6010 -0.0566 -0.5806
    3CHTO  C125  854   7.454   1.505   2.029  0.2022  0.0528  0.2665
    3CHTO   O84  855   7.382   1.585   2.129  0.0721  0.3899  0.6366
    3CHTO  H205  856   7.295   1.611   2.104  0.2253  0.8263  0.5435
    3CHTO  C114  857   7.686   1.407   1.961 -0.5541  0.1353 -0.4942
    3CHTO  H218  858   7.669   1.443   1.860 -2.3344  1.8215  0.3876
    3CHTO  C116  859   7.843   1.429   1.987 -0.0866 -0.5008  0.2419
    3CHTO  H220  860   7.851   1.383   2.088  1.1370  1.0239  0.8447
    3CHTO   O79  861   7.920   1.352   1.894 -0.0811 -0.7413 -0.5884
    3CHTO  H201  862   7.916   1.392   1.809  0.1748 -0.1774 -0.3434
    3CHTO  C120  863   7.885   1.579   1.985 -0.4518 -0.0578 -0.7306
    3CHTO  H224  864   7.870   1.610   1.880 -0.4484  0.6853 -0.5119
    3CHTO   N21  865   8.030   1.610   2.014  0.0635 -0.9965 -0.2803
    3CHTO  H211  866   8.090   1.574   1.932  2.8880  2.7583  0.0160
    3CHTO  H212  867   8.049   1.715   2.034  0.9429 -0.9776 -1.1591
    3CHTO   O75  868   7.629   1.276   1.974 -0.9406  0.0419 -0.3173
    3CHTO  C112  869   7.564   1.194   1.836 -0.2090  0.1354  0.7969
    3CHTO  H216  870   7.640   1.160   1.763 -2.2268  0.0746 -1.3181
    3CHTO   O73  871   7.467   1.285   1.774  0.2627  0.3639  0.0050
    3CHTO  C113  872   7.393   1.231   1.664 -0.2904 -0.2559  0.0494
    3CHTO  H217  873   7.465   1.188   1.592 -3.6835 -2.1355 -2.3630
    3CHTO  C124  874   7.325   1.351   1.595  0.7281  0.4303  0.0363
    3CHTO   O83  875   7.408   1.420   1.502  0.1343 -0.0073  0.2373
    3CHTO  H204  876   7.392   1.390   1.415  0.3836  1.9811 -0.5204
    3CHTO  C109  877   7.295   1.127   1.726  0.3795  0.5362  0.6984
    3CHTO  H213  878   7.230   1.176   1.800 -1.7783 -1.3631  0.1108
    3CHTO  C110  879   7.379   1.016   1.800  0.3609 -0.6092  0.0802
    3CHTO  H214  880   7.419   0.951   1.722  1.5047  1.5002 -1.1347
    3CHTO   O78  881   7.283   0.947   1.870 -0.7419 -0.0657 -0.3966
    3CHTO  H200  882   7.325   0.889   1.931  1.0461  1.5332 -0.0744
    3CHTO  C111  883   7.487   1.073   1.893 -0.6684 -0.0541  0.2828
    3CHTO  H215  884   7.437   1.104   1.986 -2.4446  0.0254 -0.6595
    3CHTO   N19  885   7.586   0.971   1.937 -0.2117  0.4966  0.2306
    3CHTO  H207  886   7.628   0.927   1.847  2.8475  1.4707  1.1241
    3CHTO  H208  887   7.663   1.017   1.998 -1.3983  1.7689  0.7856
    3CHTO   O74  888   7.197   1.082   1.620 -0.4763 -0.4451 -0.3307
    3CHTO  C115  889   7.047   1.100   1.659  0.3175  0.2721  0.0765
    3CHTO  H219  890   7.030   1.097   1.766 -0.6136 -0.3589 -0.0805
    3CHTO   O76  891   6.992   1.239   1.621  0.4034 -0.2726  0.3188
    3CHTO  C122  892   6.855   1.258   1.666 -0.1205 -0.4847  0.3329
    3CHTO  H226  893   6.838   1.356   1.622 -0.3707 -0.8358 -0.3674
    3CHTO  C126  894   6.853   1.284   1.819 -0.8212 -0.3912 -0.2982
    3CHTO   O85  895   6.930   1.406   1.843  0.0472 -0.3007 -0.1949
    3CHTO  H206  896   6.881   1.458   1.905  0.8026  1.4112 -1.0010
    3CHTO  C121  897   6.759   1.141   1.612 -0.5135  0.0281  0.4696
    3CHTO  H225  898   6.660   1.161   1.659 -1.1366 -0.7077 -0.4993
    3CHTO   O81  899   6.752   1.154   1.466 -0.0275 -0.5145  0.2937
    3CHTO  H202  900   6.700   1.228   1.444  0.5967 -0.1858 -0.0860
    3CHTO  C119  901   6.812   0.999   1.643  0.5134  0.4621 -0.0454
    3CHTO  H223  902   6.802   0.994   1.752  0.8094  1.1450  0.0136
    3CHTO  C117  903   6.957   0.980   1.597  0.4368 -0.4785 -0.4958
    3CHTO  H221  904   6.973   0.973   1.490  0.9462 -0.4940 -0.4193
    3CHTO   N20  905   7.006   0.849   1.649  0.0137  0.7641  0.0549
    3CHTO  H209  906   7.108   0.856   1.684 -0.6491  2.3839  1.7695
    3CHTO  H210  907   6.987   0.771   1.578  0.6217 -0.6774  1.4317
    3CHTO   O80  908   6.715   0.870   1.603 -0.7343  0.1182  0.1872
    3CHTO  C103  909   6.577   0.859   1.658  0.8267 -0.1598 -0.2821
    3CHTO  H190  910   6.568   0.887   1.763  0.7197  1.6445 -0.7645
    3CHTO  C101  911   6.459   0.930   1.569  0.0649 -0.0733 -0.2702
    3CHTO  H188  912   6.471   0.916   1.462 -0.3863 -0.9341 -0.2150
    3CHTO   O68  913   6.451   1.087   1.581  0.0327 -0.1278 -0.2193
    3CHTO  H168  914   6.535   1.117   1.608 -0.1251  0.6028 -0.5060
    3CHTO   C99  915   6.309   0.873   1.611 -0.3555  0.5296 -0.4401
    3CHTO  H186  916   6.297   0.897   1.718  1.1113 -1.9052  0.3020
    3CHTO   N17  917   6.194   0.938   1.537 -0.0978 -0.6231  0.2676
    3CHTO  H174  918   6.095   0.927   1.579 -0.7388  0.0924 -1.0375
    3CHTO  H175  919   6.195   0.936   1.429  1.8991 -0.2212  0.2699
    3CHTO   C97  920   6.309   0.720   1.614  0.3533  0.0829 -0.2248
    3CHTO  H184  921   6.314   0.678   1.512  0.2137 -3.6610  1.2666
    3CHTO   O64  922   6.418   0.675   1.698 -0.3301 -0.1878 -0.3356
    3CHTO  C104  923   6.550   0.708   1.658 -0.6029 -0.0472 -0.1704
    3CHTO  H191  924   6.564   0.671   1.557 -2.4458  0.1346 -0.5008
    3CHTO  C108  925   6.655   0.631   1.747 -0.1232  0.1362 -0.1829
    3CHTO   O71  926   6.667   0.687   1.877 -0.2435 -0.5718  0.0169
    3CHTO  H171  927   6.753   0.672   1.912  0.5733  2.4106 -0.6365
    3CHTO   O62  928   6.188   0.668   1.668 -0.1617 -0.3568 -0.6348
    3CHTO   C91  929   6.139   0.546   1.630 -0.1334 -0.1910 -0.4428
    3CHTO  H178  930   6.172   0.516   1.530  0.9155  0.3229 -0.2599
    3CHTO   C92  931   5.987   0.567   1.599 -0.0268 -0.3354  0.1010
    3CHTO  H179  932   5.936   0.604   1.690  1.0019 -2.0825  1.4298
    3CHTO   O66  933   5.963   0.663   1.498 -0.0534 -0.2144  0.0293
    3CHTO  H166  934   5.870   0.672   1.485 -0.3737 -1.4823  1.2957
    3CHTO   C93  935   5.920   0.431   1.559  0.3287  0.0257 -0.3148
    3CHTO  H180  936   5.962   0.402   1.462 -1.7914  2.7113 -2.0920
    3CHTO   N16  937   5.774   0.447   1.547 -0.3435 -0.2076 -0.0796
    3CHTO  H172  938   5.744   0.535   1.491 -0.8200  0.0898  0.6404
    3CHTO  H173  939   5.709   0.421   1.629 -2.9417  1.2682 -1.5904
    3CHTO   C94  940   5.947   0.322   1.679 -0.3437  0.4624 -0.8019
    3CHTO  H181  941   5.862   0.308   1.744  1.5333  1.6049  1.9976
    3CHTO   O61  942   6.055   0.354   1.773  0.0060  0.2699  0.0779
    3CHTO   C95  943   6.171   0.425   1.728 -0.5288  0.1666  0.2396
    3CHTO  H182  944   6.222   0.468   1.814 -0.0490  2.0775 -0.9667
    3CHTO  C106  945   6.277   0.329   1.661  0.4162 -0.5696  0.0572
    3CHTO   O69  946   6.397   0.397   1.609  0.1141  0.7171 -0.0031
    3CHTO  H169  947   6.400   0.389   1.516  1.2254  2.7007 -0.1510
    3CHTO   O63  948   5.993   0.178   1.608  0.6109  0.5521  0.1945
    3CHTO   C96  949   5.920   0.053   1.672 -0.1796 -0.2491 -0.5817
    3CHTO  H183  950   5.935  -0.034   1.608 -2.4700  0.4214 -2.0990
    3CHTO   C98  951   5.763   0.051   1.671 -0.2403 -1.1244  0.5763
    3CHTO  H185  952   5.736   0.136   1.735  0.3332  0.4994 -1.2990
    3CHTO   O67  953   5.735   0.078   1.534 -0.6466 -0.8569 -0.6928
    3CHTO  H167  954   5.644   0.055   1.525 -1.2230 -0.1334  2.5894
    3CHTO  C102  955   5.709  -0.084   1.725  0.8240  0.5307 -0.1588
    3CHTO  H189  956   5.727  -0.161   1.648  2.6459  1.3774 -0.6047
    3CHTO   N18  957   5.566  -0.086   1.742  0.0697  0.0929 -0.0753
    3CHTO  H176  958   5.526  -0.186   1.736 -0.2982  0.2598 -0.4558
    3CHTO  H177  959   5.522  -0.012   1.678 -2.0235  0.1322  1.3392
    3CHTO  C105  960   5.770  -0.132   1.854 -0.0008 -0.4297 -0.0025
    3CHTO  H192  961   5.742  -0.070   1.938 -0.3609  0.8242 -1.0286
    3CHTO   O65  962   5.914  -0.113   1.851 -0.0887  0.2578  0.1773
    3CHTO  C100  963   5.967   0.016   1.819 -0.0384  0.4666  0.1312
    3CHTO  H187  964   5.935   0.087   1.896  1.4361  1.5055 -0.1783
    3CHTO  C107  965   6.120   0.013   1.827 -0.1778 -0.2987  0.0473
    3CHTO   O70  966   6.169  -0.101   1.754  0.3259 -0.3007  0.0625
    3CHTO  H170  967   6.262  -0.093   1.755  0.2309  1.4471 -2.1907
    3CHTO   O57  968   5.739  -0.287   1.873  0.0288  0.1150 -0.1921
    3CHTO   C85  969   5.703  -0.345   1.999 -0.5222 -0.5249 -0.4070
    3CHTO  H157  970   5.688  -0.453   1.980 -0.1412 -0.4806 -0.9839
    3CHTO   C83  971   5.559  -0.295   2.060  0.7530 -0.1182 -0.2089
    3CHTO  H155  972   5.485  -0.335   1.991  1.0326  1.6222 -1.5649
    3CHTO   O56  973   5.547  -0.154   2.046 -0.0147  0.1889  0.6750
    3CHTO  H135  974   5.457  -0.128   2.041  0.2157  0.8521 -0.0994
    3CHTO   C81  975   5.533  -0.341   2.209  0.1796 -0.0676 -0.0238
    3CHTO  H153  976   5.539  -0.450   2.214 -0.0849 -0.0661  0.3914
    3CHTO   N14  977   5.392  -0.322   2.253 -0.0765  0.1091 -0.1141
    3CHTO  H141  978   5.366  -0.350   2.353 -0.4100  0.5318 -0.0791
    3CHTO  H142  979   5.329  -0.375   2.185  0.6550 -1.9053  0.7370
    3CHTO   C79  980   5.652  -0.285   2.296  0.1948  0.2431  0.2453
    3CHTO  H151  981   5.632  -0.318   2.398  1.3842 -0.1290  0.3665
    3CHTO   O52  982   5.771  -0.351   2.248 -0.1689 -0.1059 -0.2653
    3CHTO   C86  983   5.811  -0.322   2.115 -0.8364  0.7536 -0.2420
    3CHTO  H158  984   5.847  -0.217   2.125 -1.0690  0.7519  0.6963
    3CHTO   C90  985   5.933  -0.392   2.066 -0.5654  0.0306 -0.0176
    3CHTO   O60  986   5.930  -0.539   2.085 -0.0122  0.5406 -0.3118
    3CHTO  H138  987   5.974  -0.573   2.010  0.9466  0.0617  0.4581
    3CHTO   O50  988   5.661  -0.147   2.289  0.4017 -0.1988 -0.1810
    3CHTO   C73  989   5.681  -0.053   2.391 -0.6506 -0.0284 -0.3360
    3CHTO  H145  990   5.761  -0.091   2.456  1.1053  0.5297 -2.1291
    3CHTO   C74  991   5.546  -0.024   2.468 -0.1863  0.1972 -0.0895
    3CHTO  H146  992   5.512  -0.118   2.513  1.1160  0.4874  1.5518
    3CHTO   O54  993   5.577   0.063   2.578 -0.0093 -0.0462  0.0791
    3CHTO  H133  994   5.535   0.147   2.570  1.6396  1.0384  2.2812
    3CHTO   C75  995   5.447   0.041   2.373 -0.4859  0.2162  0.2265
    3CHTO  H147  996   5.431  -0.026   2.288  0.5362  1.1565 -0.7235
    3CHTO   N13  997   5.313   0.064   2.436 -0.4204  0.1806  0.2283
    3CHTO  H139  998   5.280   0.167   2.427  1.0032  0.5317 -1.1224
    3CHTO  H140  999   5.242   0.003   2.383  0.5520  1.0625 -2.1678
    3CHTO   C76 1000   5.511   0.172   2.309 -0.5693 -0.0490  0.7869
    3CHTO  H148 1001   5.539   0.252   2.377 -0.5760  1.0585 -0.4809
    3CHTO   O49 1002   5.639   0.136   2.237 -0.2782  0.2559 -0.1894
    3CHTO   C77 1003   5.734   0.076   2.324  0.0850  0.2132 -0.2559
    3CHTO  H149 1004   5.765   0.145   2.402 -1.3165 -0.2437  0.7284
    3CHTO   C88 1005   5.862   0.057   2.242 -0.5561  0.5388 -0.3616
    3CHTO   O58 1006   5.907   0.167   2.219  0.2822  0.1473 -0.0142
    3CHTO  H136 1007   5.974   0.162   2.154  0.7547  0.2566  0.4636
    3CHTO   O51 1008   5.407   0.224   2.200  0.0180  0.0340  0.1447
    3CHTO   C78 1009   5.433   0.372   2.164  0.0622 -0.1373  0.1417
    3CHTO  H150 1010   5.515   0.429   2.212 -0.3347  0.3430  0.2594
    3CHTO   C80 1011   5.298   0.445   2.196 -0.0161 -0.1994 -0.3238
    3CHTO  H152 1012   5.216   0.402   2.134 -0.5955 -0.2460  0.4572
    3CHTO   O55 1013   5.261   0.423   2.338 -0.2224 -0.3792 -0.2731
    3CHTO  H134 1014   5.210   0.345   2.340 -2.0448  0.7662 -0.4737
    3CHTO   C84 1015   5.311   0.598   2.157  0.7145 -0.2274  0.1117
    3CHTO  H156 1016   5.390   0.650   2.211 -0.5633 -0.3517  2.1665
    3CHTO   N15 1017   5.189   0.672   2.194 -0.1507  0.0616  0.1125
    3CHTO  H143 1018   5.115   0.613   2.245  0.6926  0.2296  1.5568
    3CHTO  H144 1019   5.216   0.756   2.254  0.2032 -1.4508  2.1267
    3CHTO   C87 1020   5.347   0.613   2.004  0.1119  0.6122 -0.5754
    3CHTO  H159 1021   5.266   0.572   1.945 -0.5491 -0.1043  0.7975
    3CHTO   O53 1022   5.481   0.509   1.975 -0.4007  0.0677 -0.2643
    3CHTO   C82 1023   5.455   0.373   2.013 -0.0651  0.3690  0.0238
    3CHTO  H154 1024   5.373   0.323   1.961  1.8701 -2.5226 -0.3315
    3CHTO   C89 1025   5.582   0.292   1.970 -0.0294 -0.2788  0.2828
    3CHTO   O59 1026   5.616   0.305   1.832  0.2949  0.8013  0.2613
    3CHTO  H137 1027   5.673   0.379   1.824 -0.2819  1.2709  0.4519
    3CHTO   O45 1028   5.395   0.776   1.983  0.4241  0.0710  0.6924
    3CHTO   C67 1029   5.539   0.800   1.981  0.0282  0.4969  0.0637
    3CHTO  H124 1030   5.589   0.716   2.029  0.4625  1.3233  1.0790
    3CHTO   C65 1031   5.583   0.808   1.830  0.3876  0.4981  0.0803
    3CHTO  H122 1032   5.492   0.822   1.772 -0.3825 -0.2214  1.0799
    3CHTO   O44 1033   5.643   0.685   1.802  0.1263  0.3713  0.3852
    3CHTO  H102 1034   5.585   0.620   1.767 -1.9770  1.6882  1.3534
    3CHTO   C63 1035   5.676   0.933   1.802 -0.0259  0.0001  0.0548
    3CHTO  H120 1036   5.609   1.019   1.801 -0.5357 -0.3927 -1.3570
    3CHTO   N11 1037   5.736   0.945   1.662 -0.6854 -0.1136 -0.0429
    3CHTO  H108 1038   5.796   0.859   1.641  0.9699  0.1560  3.2613
    3CHTO  H109 1039   5.662   0.940   1.585 -0.5601 -1.7283 -0.0704
    3CHTO   C61 1040   5.783   0.943   1.915  0.6419 -0.6717  0.0406
    3CHTO  H118 1041   5.826   1.044   1.904  0.6989 -0.7239 -0.2051
    3CHTO   O40 1042   5.734   0.946   2.043 -0.1959 -0.3148  0.3318
    3CHTO   C68 1043   5.586   0.924   2.070 -0.3947 -0.6416 -0.1276
    3CHTO  H125 1044   5.520   1.009   2.044 -0.0533 -1.0276 -2.3404
    3CHTO   C72 1045   5.578   0.899   2.217 -0.6052  0.5938 -0.0081
    3CHTO   O48 1046   5.448   0.886   2.276 -0.0015 -0.2052  0.0723
    3CHTO  H105 1047   5.390   0.949   2.238 -0.2669  0.7791  2.0994
    3CHTO   O38 1048   5.895   0.848   1.900  0.7602 -0.2259 -0.4087
    3CHTO   C55 1049   5.994   0.833   2.007  0.3102 -0.7130  0.2515
    3CHTO  H112 1050   5.957   0.876   2.102  0.2748 -0.2940  0.0500
    3CHTO   C56 1051   6.126   0.896   1.958  0.6714  0.4083 -0.4318
    3CHTO  H113 1052   6.136   0.861   1.854 -0.2762 -0.3708 -0.2717
    3CHTO   O42 1053   6.113   1.036   1.942  0.6376  0.7508 -0.2201
    3CHTO  H100 1054   6.079   1.064   1.859 -2.2828 -0.4854  0.5221
    3CHTO   C57 1055   6.245   0.847   2.048 -0.0671  0.4767  0.7395
    3CHTO  H114 1056   6.217   0.881   2.148  1.4523 -0.1743  1.3924
    3CHTO   N10 1057   6.378   0.899   2.021 -0.0737  0.4421 -0.3570
    3CHTO  H106 1058   6.368   0.967   1.937 -0.0777  1.5554  0.5327
    3CHTO  H107 1059   6.410   0.952   2.110 -1.6809 -0.1734  0.5999
    3CHTO   C58 1060   6.237   0.692   2.048  0.6458 -0.3199 -0.4467
    3CHTO  H115 1061   6.249   0.654   1.944 -1.0259  0.7989 -1.0769
    3CHTO   O37 1062   6.114   0.646   2.094  0.4108 -0.1663 -0.1822
    3CHTO   C59 1063   5.997   0.684   2.018 -0.1106  0.2017  0.1733
    3CHTO  H116 1064   6.016   0.632   1.923  2.7944 -1.6036  1.6753
    3CHTO   C70 1065   5.868   0.630   2.082  0.1389  0.1659  0.4891
    3CHTO   O46 1066   5.839   0.492   2.063  0.6856 -0.2412  0.3623
    3CHTO  H103 1067   5.747   0.478   2.077  0.7113 -0.1091  0.6628
    3CHTO   O39 1068   6.345   0.615   2.156 -0.4764  0.5864 -0.2966
    3CHTO   C60 1069   6.346   0.473   2.145  0.7414  0.3833 -0.0807
    3CHTO  H117 1070   6.249   0.443   2.106  0.7725 -0.1780  0.2704
    3CHTO   C62 1071   6.446   0.417   2.047  0.5446 -0.7444  0.1599
    3CHTO  H119 1072   6.425   0.460   1.947 -1.2913  0.7621  1.1674
    3CHTO   O43 1073   6.576   0.458   2.087 -0.1480  0.1793  0.2017
    3CHTO  H101 1074   6.639   0.447   2.019 -1.2106  0.6965 -0.8861
    3CHTO   C66 1075   6.420   0.257   2.028  0.3551  0.2414 -0.3759
    3CHTO  H123 1076   6.317   0.230   2.006 -0.2620  1.3708  1.0407
    3CHTO   N12 1077   6.504   0.195   1.923  0.7472 -0.1551 -0.1177
    3CHTO  H110 1078   6.468   0.220   1.824  2.8072  1.4748 -0.4847
    3CHTO  H111 1079   6.610   0.210   1.941  0.8835 -0.5643 -0.5520
    3CHTO   C69 1080   6.440   0.178   2.164  0.1567 -0.5115  0.4957
    3CHTO  H126 1081   6.547   0.181   2.193 -0.0827  1.3015  1.3048
    3CHTO   O41 1082   6.368   0.253   2.294 -0.4419 -0.4774 -0.6150
    3CHTO   C64 1083   6.363   0.419   2.286 -0.6487 -0.3366 -0.0216
    3CHTO  H121 1084   6.463   0.449   2.324 -0.9664 -0.4081  0.8842
    3CHTO   C71 1085   6.256   0.474   2.388  0.3504 -0.1689 -0.3536
    3CHTO   O47 1086   6.128   0.424   2.350  0.2743  0.2856 -0.4882
    3CHTO  H104 1087   6.061   0.459   2.406 -1.1860 -0.3471 -1.8217
    3CHTO   O34 1088   6.380   0.034   2.152 -0.0226  0.2718 -0.2757
    3CHTO   C49 1089   6.438  -0.110   2.105 -0.6865  0.8647  0.0505
    3CHTO   H91 1090   6.527  -0.095   2.043  1.5282 -1.3668  2.5649
    3CHTO   C47 1091   6.331  -0.193   2.039 -0.1863 -0.9077 -0.0228
    3CHTO   H89 1092   6.333  -0.155   1.935  0.2317  0.1930  0.3917
    3CHTO   O33 1093   6.200  -0.176   2.094  0.1382 -0.1718  0.5013
    3CHTO   H70 1094   6.170  -0.088   2.110 -1.8686 -0.9571  1.1724
    3CHTO   C45 1095   6.358  -0.355   2.044 -0.2846 -0.0795 -0.5274
    3CHTO   H87 1096   6.317  -0.390   2.139 -0.6898  0.2733 -0.5713
    3CHTO    N8 1097   6.302  -0.431   1.927  0.1104  0.5735  0.4718
    3CHTO   H75 1098   6.277  -0.359   1.851  1.5137  0.6766  0.0887
    3CHTO   H76 1099   6.213  -0.485   1.955 -0.0809 -0.5362 -2.1642
    3CHTO   C43 1100   6.517  -0.381   2.074 -0.5101  0.6790 -0.1333
    3CHTO   H85 1101   6.534  -0.489   2.079  1.0234  0.8951 -0.4790
    3CHTO   O29 1102   6.556  -0.317   2.194  0.1527 -0.0244 -0.4783
    3CHTO   C50 1103   6.500  -0.186   2.226  0.0266 -0.2987  0.2599
    3CHTO   H92 1104   6.423  -0.199   2.304 -0.5867  1.2901 -0.0549
    3CHTO   C54 1105   6.614  -0.104   2.294 -0.6337 -0.1048  0.2154
    3CHTO   O36 1106   6.675  -0.157   2.409  0.7634 -0.1741  0.1135
    3CHTO   H72 1107   6.674  -0.103   2.486  0.3459  1.0879 -0.7616
    3CHTO   O27 1108   6.594  -0.335   1.964 -0.4214 -0.1957  0.3836
    3CHTO   C37 1109   6.711  -0.258   1.925 -0.0123 -0.0245  0.4356
    3CHTO   H79 1110   6.718  -0.161   1.978  0.2704  1.1754 -1.7400
    3CHTO   C38 1111   6.840  -0.330   1.970 -0.1511 -0.1861 -0.5766
    3CHTO   H80 1112   6.839  -0.431   1.926  0.0306  0.2430 -1.5869
    3CHTO   O31 1113   6.848  -0.341   2.114  0.7218  1.0816  0.0570
    3CHTO   H68 1114   6.809  -0.268   2.158  0.3051  1.3560 -0.7590
    3CHTO   C39 1115   6.967  -0.254   1.915  0.4637  0.1925 -0.0270
    3CHTO   H81 1116   6.965  -0.152   1.954  0.5939  0.4644 -0.7206
    3CHTO    N7 1117   7.100  -0.313   1.945  0.4497  0.1520 -0.3792
    3CHTO   H73 1118   7.118  -0.405   1.891 -1.8800  0.2313 -1.3468
    3CHTO   H74 1119   7.171  -0.236   1.923 -0.6187  1.4814  0.7292
    3CHTO   C40 1120   6.954  -0.242   1.756 -0.2598 -0.3146 -0.4293
    3CHTO   H82 1121   6.953  -0.341   1.709  2.7541 -1.8476  2.4671
    3CHTO   O26 1122   6.837  -0.168   1.728 -0.2213  0.4637 -0.2371
    3CHTO   C41 1123   6.714  -0.226   1.768  0.3601  0.3155  0.3463
    3CHTO   H83 1124   6.706  -0.319   1.710  0.3288  0.2348  0.4805
    3CHTO   C52 1125   6.592  -0.130   1.738  0.5824  0.4066  0.2300
    3CHTO   O35 1126   6.583  -0.093   1.605  0.0226 -0.4476 -1.0674
    3CHTO   H71 1127   6.523  -0.021   1.596 -0.8171 -0.8223  1.3018
    3CHTO   O28 1128   7.064  -0.161   1.702  1.0980 -0.1772 -0.0204
    3CHTO   C42 1129   7.054  -0.026   1.654  0.2564 -0.7193 -0.6027
    3CHTO   H84 1130   7.159  -0.003   1.636  0.6199 -1.0644  0.9906
    3CHTO   C44 1131   6.996   0.090   1.748  0.0772 -0.0560 -0.4433
    3CHTO   H86 1132   6.896   0.056   1.778  0.0864 -0.4929 -0.9083
    3CHTO   O32 1133   7.072   0.090   1.872 -0.6336 -1.1586 -0.0531
    3CHTO   H69 1134   7.101   0.011   1.912  0.5643  0.2558  1.9782
    3CHTO   C48 1135   6.982   0.229   1.678  0.8927  0.2808  0.0718
    3CHTO   H90 1136   7.081   0.274   1.680  1.0456 -0.1048  2.4197
    3CHTO    N9 1137   6.897   0.329   1.746 -0.1902 -0.0160 -0.4980
    3CHTO   H77 1138   6.853   0.404   1.682 -0.7180  0.2397  0.1674
    3CHTO   H78 1139   6.961   0.383   1.814 -1.5416  0.8704  0.0700
    3CHTO   C51 1140   6.943   0.226   1.526  0.2459  0.3374 -0.7271
    3CHTO   H93 1141   6.836   0.209   1.520  0.8615 -3.7666 -2.2816
    3CHTO   O30 1142   7.009   0.114   1.457 -0.0789 -0.4529  0.2873
    3CHTO   C46 1143   6.982  -0.023   1.510  0.1969 -0.1730 -0.0928
    3CHTO   H88 1144   6.874  -0.033   1.511 -0.0180  2.0645  0.2507
    3CHTO   C53 1145   7.045  -0.113   1.402  0.0591  1.1190 -0.1485
    3CHTO   O72 1146   7.028  -0.253   1.426  0.2664 -0.1464 -0.2192
    3CHTO  H199 1147   7.092  -0.287   1.486  0.3713  1.4274  0.5968
    3CHTO   O22 1148   6.986   0.348   1.458 -0.0493 -0.3513 -0.3681
    3CHTO   C31 1149   6.938   0.406   1.328  0.1777 -0.2602 -0.3849
    3CHTO   H59 1150   6.893   0.320   1.273  0.9427  0.3160 -1.9328
    3CHTO   C29 1151   6.825   0.506   1.348 -0.5928  0.6202 -0.0944
    3CHTO   H57 1152   6.859   0.566   1.434 -0.2913 -1.4755  1.2591
    3CHTO   O21 1153   6.716   0.431   1.404 -0.2102 -0.0944 -0.1681
    3CHTO   H37 1154   6.655   0.485   1.451  0.6707 -0.7129  1.7278
    3CHTO   C27 1155   6.789   0.591   1.220 -0.7446  1.2087  0.2865
    3CHTO   H55 1156   6.738   0.524   1.149 -0.1169  0.2828  0.7083
    3CHTO    N5 1157   6.704   0.703   1.255 -0.2613  0.4295  0.0761
    3CHTO   H43 1158   6.607   0.655   1.261 -0.1843  0.0440 -1.7373
    3CHTO   H44 1159   6.747   0.748   1.344 -0.3689  0.5580  0.0628
    3CHTO   C25 1160   6.914   0.638   1.145 -0.4752 -0.4614  0.7549
    3CHTO   H53 1161   6.967   0.722   1.192 -0.3163 -0.0033 -0.2426
    3CHTO   O17 1162   7.009   0.527   1.131  0.5986 -0.1769  0.1451
    3CHTO   C32 1163   7.056   0.464   1.248  0.5351  0.5750 -0.4358
    3CHTO   H60 1164   7.097   0.547   1.306  1.0078 -0.8593  1.3140
    3CHTO   C36 1165   7.160   0.357   1.215  0.6443 -0.4135 -0.1001
    3CHTO   O25 1166   7.235   0.320   1.334  0.3883 -0.2692 -0.5304
    3CHTO   H40 1167   7.319   0.360   1.322  0.0244  0.2097 -1.5087
    3CHTO   O15 1168   6.883   0.675   1.002 -0.2744  0.3394  0.1366
    3CHTO   C19 1169   6.809   0.733   0.890 -0.6023 -0.4437 -0.0257
    3CHTO   H47 1170   6.819   0.644   0.826  1.1533 -0.2492 -0.0479
    3CHTO   C20 1171   6.654   0.769   0.918 -1.2012  0.2713  0.1290
    3CHTO   H48 1172   6.639   0.837   1.003 -3.4237  0.2982 -0.2546
    3CHTO   O19 1173   6.580   0.645   0.931 -0.2279 -0.0295  0.1850
    3CHTO   H35 1174   6.604   0.581   0.866  0.3227  0.8217 -0.4625
    3CHTO   C21 1175   6.585   0.842   0.792 -0.0772 -0.5546 -0.3926
    3CHTO   H49 1176   6.572   0.769   0.711  0.6867 -0.9551 -0.1570
    3CHTO    N4 1177   6.451   0.899   0.819 -0.2138 -0.2460 -0.1338
    3CHTO   H41 1178   6.383   0.853   0.749 -0.2710  0.0249 -0.2541
    3CHTO   H42 1179   6.425   0.867   0.919  0.9372  0.0917  0.2842
    3CHTO   C22 1180   6.680   0.944   0.728 -0.0359  0.4549 -0.0036
    3CHTO   H50 1181   6.690   1.025   0.801 -1.8405 -0.1413  0.9203
    3CHTO   O14 1182   6.814   0.885   0.705 -0.4316  0.0883 -0.3957
    3CHTO   C23 1183   6.888   0.849   0.816 -0.1062  0.2718 -0.5701
    3CHTO   H51 1184   6.890   0.942   0.874 -4.2984 -0.9449  1.7022
    3CHTO   C34 1185   7.025   0.805   0.763 -0.0726  0.8629  0.3000
    3CHTO   O23 1186   7.092   0.911   0.699  0.1783 -0.1047 -0.0538
    3CHTO   H38 1187   7.146   0.960   0.758 -0.5087  1.0651 -0.3752
    3CHTO   O16 1188   6.632   0.998   0.605 -0.1568  0.6132  0.2235
    3CHTO   C24 1189   6.702   1.145   0.570 -0.0036  0.7169 -0.1656
    3CHTO   H52 1190   6.761   1.183   0.654  1.1131  0.2896 -0.7494
    3CHTO   C26 1191   6.580   1.238   0.546  1.0224 -0.9003 -0.1036
    3CHTO   H54 1192   6.514   1.195   0.467 -1.5389  0.9091  0.9627
    3CHTO   O20 1193   6.507   1.235   0.666 -0.2066  0.6495  0.2944
    3CHTO   H36 1194   6.447   1.163   0.668 -1.6123  1.7598 -1.2909
    3CHTO   C30 1195   6.623   1.387   0.503 -0.0595  0.7415 -0.1257
    3CHTO   H58 1196   6.661   1.443   0.589  1.3868 -0.4637  0.0382
    3CHTO    N6 1197   6.509   1.454   0.443 -0.3486  0.1953  0.2477
    3CHTO   H45 1198   6.423   1.463   0.508  0.6739 -1.6951  1.9090
    3CHTO   H46 1199   6.476   1.424   0.345 -1.7026  0.3473  0.6525
    3CHTO   C33 1200   6.741   1.385   0.402 -0.1191 -0.2184 -0.0870
    3CHTO   H61 1201   6.707   1.353   0.302 -0.8711  2.4707 -0.7412
    3CHTO   O18 1202   6.836   1.296   0.449 -0.3312  0.1325  0.1719
    3CHTO   C28 1203   6.794   1.162   0.447  0.5769  0.7810 -0.3606
    3CHTO   H56 1204   6.735   1.133   0.360 -0.1156 -0.1024  0.3849
    3CHTO   C35 1205   6.924   1.069   0.460 -0.0377  0.2293  0.1415
    3CHTO   O24 1206   7.006   1.064   0.339  0.1131 -0.0982  0.7378
    3CHTO   H39 1207   7.085   1.016   0.353 -1.2117 -2.7470 -0.6007
    3CHTO    O9 1208   6.797   1.517   0.379 -0.0350  0.1424 -0.6047
    3CHTO   C13 1209   6.887   1.583   0.481  0.6480  0.2832  0.4885
    3CHTO   H26 1210   6.848   1.560   0.582  0.5732  0.2026  0.4410
    3CHTO   C11 1211   6.899   1.740   0.462 -1.3076  0.3183  0.5192
    3CHTO   H24 1212   6.801   1.789   0.472 -1.5815 -0.4038  1.4767
    3CHTO    O8 1213   6.947   1.777   0.327  0.6507 -0.0543 -0.0452
    3CHTO    H3 1214   6.933   1.706   0.268 -2.0077  0.5720 -0.2391
    3CHTO    C9 1215   6.991   1.796   0.573 -0.7494  0.4281  0.6050
    3CHTO   H22 1216   6.948   1.759   0.668 -0.8372 -0.1346  0.3476
    3CHTO    N2 1217   6.996   1.946   0.573 -0.0746 -0.3366 -0.0689
    3CHTO   H10 1218   6.935   1.986   0.652 -0.4819 -1.6673  0.3057
    3CHTO   H11 1219   6.971   1.990   0.477  0.1930  0.7784  0.3632
    3CHTO    C7 1220   7.136   1.737   0.551 -0.1370  0.9261 -0.2375
    3CHTO   H20 1221   7.191   1.778   0.638 -2.3199  0.3867  1.4450
    3CHTO    O4 1222   7.135   1.595   0.566  0.1580 -0.6491 -0.2743
    3CHTO   C14 1223   7.040   1.517   0.492  0.7030 -0.2691 -0.0884
    3CHTO   H27 1224   7.035   1.430   0.561  0.3894  0.2163  0.5062
    3CHTO   C18 1225   7.095   1.471   0.353 -0.0899 -0.0443  0.4148
    3CHTO   O13 1226   7.219   1.390   0.354 -0.1396  0.0286 -0.6134
    3CHTO    H7 1227   7.292   1.447   0.369  0.5373 -1.1216  0.6216
    3CHTO    O2 1228   7.219   1.776   0.399 -0.3221  0.0476 -0.5519
    3CHTO    C1 1229   7.351   1.725   0.386  0.9579  0.0607 -0.2780
    3CHTO   H14 1230   7.344   1.615   0.393 -0.8211  0.3081  2.1277
    3CHTO    C2 1231   7.458   1.766   0.496 -0.2545 -0.1902  0.1348
    3CHTO   H15 1232   7.447   1.875   0.505 -0.5445 -0.1821 -0.2821
    3CHTO    O6 1233   7.425   1.709   0.624 -0.6137  0.4636  0.0707
    3CHTO    H1 1234   7.388   1.624   0.609  0.3256  0.0301  0.1683
    3CHTO    C3 1235   7.600   1.737   0.444  0.3599  0.0135  0.4741
    3CHTO   H16 1236   7.604   1.627   0.439 -0.1869 -0.0066  0.4578
    3CHTO    N1 1237   7.699   1.793   0.541 -0.2071  0.3983  0.0059
    3CHTO    H8 1238   7.764   1.718   0.583  0.8709  1.0914 -0.3982
    3CHTO    H9 1239   7.759   1.871   0.498  0.6423 -0.1437  0.1964
    3CHTO    C4 1240   7.615   1.785   0.300 -0.5082 -0.0735  0.6165
    3CHTO   H17 1241   7.601   1.892   0.291  1.5378  0.0027 -2.6724
    3CHTO    O1 1242   7.521   1.726   0.212 -0.3386 -0.1968 -0.1997
    3CHTO    C5 1243   7.386   1.767   0.242 -0.4723 -0.4061 -0.0372
    3CHTO   H18 1244   7.376   1.875   0.231  1.4796 -0.0941  1.0916
    3CHTO   C16 1245   7.294   1.689   0.136  0.3588 -0.1927  0.1370
    3CHTO   O11 1246   7.312   1.745   0.011  0.7129  0.0516  1.1452
    3CHTO    H5 1247   7.385   1.803   0.004  0.4315  0.4311  1.3437
    3CHTO    O3 1248   7.747   1.750   0.255  0.7679 -0.0183 -0.2265
    3CHTO    C6 1249   7.810   1.823   0.143 -0.2245 -0.1891 -0.1390
    3CHTO   H19 1250   7.743   1.838   0.059 -1.1210  0.8734  0.7515
    3CHTO    C8 1251   7.874   1.956   0.192  0.1767 -0.3588 -0.2077
    3CHTO   H21 1252   7.928   1.931   0.283 -0.4922  0.6854  0.4848
    3CHTO    O7 1253   7.766   2.048   0.225 -0.0144  0.5042  0.3937
    3CHTO    H2 1254   7.805   2.108   0.285  0.3419  0.2737  0.3979
    3CHTO   C12 1255   7.970   2.012   0.074  0.7821  0.1072 -0.3250
    3CHTO   H25 1256   7.907   2.055  -0.007  0.4848  0.0604 -0.1192
    3CHTO    N3 1257   8.043   2.133   0.124  0.1977 -0.5149  0.4949
    3CHTO   H12 1258   8.145   2.109   0.151  0.9846  2.4643  0.3600
    3CHTO   H13 1259   8.046   2.217   0.058 -0.1918 -1.2309 -0.4444
    3CHTO   C15 1260   8.065   1.900   0.019 -0.6001  0.0135 -0.4773
    3CHTO   H28 1261   8.135   1.869   0.095 -1.5741 -0.8786  0.0681
    3CHTO   O10 1262   8.151   1.949  -0.107 -0.5533 -0.5873  0.1343
    3CHTO    H4 1263   8.227   1.894  -0.099  0.0582  0.0517 -1.1855
    3CHTO    O5 1264   7.986   1.790  -0.027  0.2244 -0.3089 -0.6226
    3CHTO   C10 1265   7.925   1.723   0.085 -0.1295  0.2664 -0.1126
    3CHTO   H23 1266   7.999   1.700   0.163 -1.7736 -1.1723  1.0530
    3CHTO   C17 1267   7.863   1.584   0.049 -0.2280 -0.0769 -0.4484
    3CHTO   O12 1268   7.958   1.493  -0.004  0.2315  0.9469  0.1401
    3CHTO    H6 1269   7.946   1.404   0.024  1.1257  0.7087 -0.2164
    4CHTO  H203 1270   6.419   7.197   2.379  0.4367  0.0372  0.1890
    4CHTO   O82 1271   6.491   7.256   2.395  0.1860  0.2236  0.6549
    4CHTO  C123 1272   6.447   7.390   2.414 -0.1482  0.4236  0.5167
    4CHTO  H227 1273   6.369   7.391   2.492  0.0579 -1.2067  0.7785
    4CHTO   O77 1274   6.571   7.457   2.453 -0.3293 -0.0594 -0.2639
    4CHTO  C118 1275   6.561   7.588   2.498 -0.5363  0.5394 -0.1678
    4CHTO  H222 1276   6.509   7.592   2.595 -0.5228 -3.3560  0.0540
    4CHTO  C125 1277   6.701   7.633   2.514 -0.4413  0.6861  0.9039
    4CHTO   O84 1278   6.788   7.582   2.612  0.1825 -0.0213 -0.0686
    4CHTO  H205 1279   6.760   7.601   2.700  1.3038 -1.3991  0.5941
    4CHTO  C114 1280   6.498   7.676   2.391  0.1820 -0.3351 -0.1906
    4CHTO  H218 1281   6.559   7.673   2.301 -0.9201 -1.3419 -0.9212
    4CHTO  C116 1282   6.362   7.620   2.343 -0.1098  0.3689  0.4696
    4CHTO  H220 1283   6.274   7.631   2.410 -0.5229 -1.4504  0.2764
    4CHTO   O79 1284   6.324   7.696   2.227 -0.1334 -0.0668 -0.0616
    4CHTO  H201 1285   6.231   7.691   2.220 -0.3607 -1.7551  2.9166
    4CHTO  C120 1286   6.377   7.466   2.300 -0.2590 -0.5743  0.2986
    4CHTO  H224 1287   6.448   7.467   2.215 -1.7788  0.5288 -0.9839
    4CHTO   N21 1288   6.255   7.404   2.249  0.2823  0.4589 -0.0806
    4CHTO  H211 1289   6.254   7.298   2.271  1.2130  0.6644  0.9968
    4CHTO  H212 1290   6.162   7.436   2.294 -0.5943 -0.3206 -1.2854
    4CHTO   O75 1291   6.486   7.808   2.446  0.4242  0.2137  0.2278
    4CHTO  C112 1292   6.561   7.935   2.361  0.8580  0.7443  0.3947
    4CHTO  H216 1293   6.577   7.900   2.258  1.5999  0.1293  0.7164
    4CHTO   O73 1294   6.681   7.962   2.427 -0.4478  0.2121  0.0900
    4CHTO  C113 1295   6.760   8.071   2.378 -0.2968  0.0955  0.1292
    4CHTO  H217 1296   6.793   8.037   2.278 -1.1507 -0.8026  0.1443
    4CHTO  C124 1297   6.887   8.059   2.464 -0.2126  0.7716  0.5755
    4CHTO   O83 1298   6.849   8.089   2.601  0.5404  0.0020  0.0812
    4CHTO  H204 1299   6.920   8.072   2.659  0.1753 -0.9226  0.2608
    4CHTO  C109 1300   6.688   8.204   2.376  0.0397 -0.3930  0.0513
    4CHTO  H213 1301   6.681   8.239   2.480 -1.8105 -1.5564  0.3555
    4CHTO  C110 1302   6.536   8.188   2.311 -0.5532 -0.1191 -0.7756
    4CHTO  H214 1303   6.539   8.177   2.203 -1.4291 -0.9039 -0.7295
    4CHTO   O78 1304   6.464   8.318   2.326  0.2955  0.0830  0.4442
    4CHTO  H200 1305   6.373   8.301   2.311  0.3057  0.3732  0.0320
    4CHTO  C111 1306   6.463   8.063   2.363 -0.1286 -0.0679  0.2761
    4CHTO  H215 1307   6.439   8.079   2.469  0.8015  1.9430  0.2154
    4CHTO   N19 1308   6.337   8.031   2.294 -0.0312  0.0983  0.5407
    4CHTO  H207 1309   6.264   8.108   2.275  1.2279  1.3483  0.6756
    4CHTO  H208 1310   6.285   7.940   2.317 -1.0411  0.1311 -1.5141
    4CHTO   O74 1311   6.770   8.294   2.294  0.7332 -0.0374  0.0435
    4CHTO  C115 1312   6.790   8.441   2.357  0.1823  0.3515 -0.0899
    4CHTO  H219 1313   6.708   8.462   2.425 -1.2881 -0.9662 -1.3993
    4CHTO   O76 1314   6.943   8.452   2.457 -0.2714  0.2116  0.6618
    4CHTO  C122 1315   7.058   8.439   2.375  0.1238 -0.0055 -0.0740
    4CHTO  H226 1316   7.078   8.332   2.363  0.0199  0.0498 -0.7601
    4CHTO  C126 1317   7.183   8.491   2.453  0.5863  0.2534  0.3926
    4CHTO   O85 1318   7.301   8.441   2.394  0.1602  0.4433 -0.0782
    4CHTO  H206 1319   7.378   8.494   2.407  1.5735 -1.1982 -1.4617
    4CHTO  C121 1320   7.044   8.505   2.229  0.3319  0.3975  0.2816
    4CHTO  H225 1321   7.139   8.551   2.197  1.3556 -0.8381  1.4502
    4CHTO   O81 1322   7.035   8.400   2.141 -0.1538  0.3542 -0.3021
    4CHTO  H202 1323   7.018   8.437   2.056  1.1134 -0.7008 -1.0318
    4CHTO  C119 1324   6.930   8.611   2.216 -0.1312  0.7096 -0.3585
    4CHTO  H223 1325   6.959   8.686   2.290 -0.2781  1.5294 -1.1163
    4CHTO  C117 1326   6.790   8.550   2.234  0.4757 -0.6642  0.2139
    4CHTO  H221 1327   6.756   8.492   2.148  0.6084  0.2679 -0.4727
    4CHTO   N20 1328   6.685   8.658   2.258  0.0542 -0.0703  0.4026
    4CHTO  H209 1329   6.591   8.609   2.280  0.1752  0.3104  1.7776
    4CHTO  H210 1330   6.679   8.731   2.179  2.4047 -2.1760 -1.8296
    4CHTO   O80 1331   6.937   8.694   2.080 -0.6126 -0.4723  0.3191
    4CHTO  C103 1332   6.952   8.852   2.084  0.8622 -0.2802  0.4624
    4CHTO  H190 1333   6.870   8.896   2.140  1.1963 -0.4519  1.0940
    4CHTO  C101 1334   7.092   8.906   2.141 -0.2147  0.3999  0.5065
    4CHTO  H188 1335   7.166   8.846   2.087 -0.7651  2.2461 -2.4405
    4CHTO   O68 1336   7.099   8.889   2.292  0.3228  0.4660 -0.2278
    4CHTO  H168 1337   7.073   8.804   2.322 -0.0444  1.0637  1.1710
    4CHTO   C99 1338   7.103   9.064   2.089 -0.4662 -0.0127 -0.1565
    4CHTO  H186 1339   7.029   9.135   2.131  0.6401  1.4240 -0.5942
    4CHTO   N17 1340   7.230   9.120   2.120  0.4860 -0.3968  0.2418
    4CHTO  H174 1341   7.227   9.224   2.092  0.0480 -1.1663 -2.8043
    4CHTO  H175 1342   7.240   9.112   2.227 -2.6678  2.2177  0.7863
    4CHTO   C97 1343   7.080   9.071   1.932  0.1456  0.1469  0.3659
    4CHTO  H184 1344   7.162   9.017   1.881 -0.5434 -0.7207  0.1597
    4CHTO   O64 1345   6.951   9.017   1.897  0.3099  0.4037  0.1208
    4CHTO  C104 1346   6.926   8.883   1.929 -0.3234  0.2520  0.5567
    4CHTO  H191 1347   6.998   8.823   1.874  0.3043  0.7510  0.8324
    4CHTO  C108 1348   6.792   8.854   1.863 -0.2894  0.1590  0.2677
    4CHTO   O71 1349   6.695   8.941   1.927 -0.3119  0.4577  0.5643
    4CHTO  H171 1350   6.724   9.026   1.900  1.9553 -0.0893  1.2165
    4CHTO   O62 1351   7.085   9.206   1.883  0.3931 -0.1655  0.3618
    4CHTO   C91 1352   7.054   9.244   1.747 -0.0515  0.1529 -0.4966
    4CHTO  H178 1353   7.011   9.165   1.686 -1.1750  0.1438  0.2681
    4CHTO   C92 1354   7.188   9.290   1.686 -0.1298  0.3011 -0.4067
    4CHTO  H179 1355   7.221   9.380   1.741  0.5734 -0.7497  0.9224
    4CHTO   O66 1356   7.292   9.198   1.719  0.1340 -0.1775  0.1531
    4CHTO  H166 1357   7.371   9.249   1.729  0.2648 -0.7087  1.8817
    4CHTO   C93 1358   7.173   9.321   1.535  0.3135  0.1484  0.4263
    4CHTO  H180 1359   7.132   9.239   1.474 -1.9685  1.6374 -0.1181
    4CHTO   N16 1360   7.299   9.359   1.473  0.3781  0.1791 -0.1192
    4CHTO  H172 1361   7.288   9.393   1.371 -1.4048 -0.7796 -0.2765
    4CHTO  H173 1362   7.361   9.271   1.481 -1.9298 -1.4968  0.1672
    4CHTO   C94 1363   7.064   9.440   1.533 -0.0520  0.4653  1.0277
    4CHTO  H181 1364   7.099   9.529   1.585  2.6040  0.2217 -0.2712
    4CHTO   O61 1365   6.941   9.403   1.596 -0.2188  0.1756  0.4317
    4CHTO   C95 1366   6.961   9.363   1.735 -0.4034  0.3426  0.1427
    4CHTO  H182 1367   6.994   9.452   1.789  0.3254  1.7845 -2.5909
    4CHTO  C106 1368   6.814   9.320   1.786 -0.3844 -0.2190 -0.0268
    4CHTO   O69 1369   6.803   9.308   1.926  0.4043  0.2581 -0.6765
    4CHTO  H169 1370   6.884   9.308   1.973 -0.6213 -0.1619  1.1383
    4CHTO   O63 1371   7.028   9.478   1.392 -0.7851  0.5166  0.0056
    4CHTO   C96 1372   6.995   9.366   1.284 -0.1599 -0.0689  0.5135
    4CHTO  H183 1373   7.076   9.295   1.267 -0.3940 -0.3019  0.3540
    4CHTO   C98 1374   6.979   9.451   1.153  0.6328  0.1484 -0.0756
    4CHTO  H185 1375   6.907   9.531   1.174 -0.8298 -0.5332 -2.2994
    4CHTO   O67 1376   7.103   9.518   1.127  0.1618 -0.2040  0.1443
    4CHTO  H167 1377   7.162   9.454   1.093  0.0508 -0.3535  0.2375
    4CHTO  C102 1378   6.931   9.374   1.025 -0.5108  0.2847 -0.1799
    4CHTO  H189 1379   7.024   9.340   0.977 -0.0510 -0.3775  1.1521
    4CHTO   N18 1380   6.865   9.456   0.926  0.5109  0.4490 -0.9185
    4CHTO  H176 1381   6.767   9.476   0.968  0.0847 -2.1621 -0.6105
    4CHTO  H177 1382   6.914   9.547   0.896 -1.6813  1.5228 -1.4110
    4CHTO  C105 1383   6.852   9.248   1.061 -0.4260  0.2940 -0.2922
    4CHTO  H192 1384   6.779   9.228   0.982 -0.7669  0.9776 -0.1481
    4CHTO   O65 1385   6.781   9.261   1.189 -0.1127 -0.1138  0.0671
    4CHTO  C100 1386   6.861   9.286   1.309 -0.7706  0.1079 -0.1091
    4CHTO  H187 1387   6.810   9.349   1.384 -0.9961 -0.2107  0.0047
    4CHTO  C107 1388   6.895   9.150   1.371 -0.1876  0.5758  0.0450
    4CHTO   O70 1389   6.794   9.093   1.453  0.3989  0.0279  0.0041
    4CHTO  H170 1390   6.736   9.040   1.403  0.4149  0.9007 -0.9466
    4CHTO   O57 1391   6.979   9.128   1.060  0.2351 -0.0766  0.0193
    4CHTO   C85 1392   6.955   9.023   0.966  0.7409  0.5671  0.0339
    4CHTO  H157 1393   6.869   9.053   0.902  1.3334 -0.6518 -1.3653
    4CHTO   C83 1394   6.926   8.897   1.052  0.4308 -0.2455  0.0341
    4CHTO  H155 1395   6.833   8.920   1.104 -0.5605  2.5024 -2.8369
    4CHTO   O56 1396   7.026   8.876   1.155  0.6643 -0.6019 -0.5919
    4CHTO  H135 1397   7.031   8.786   1.180  2.0682 -0.1203  0.9827
    4CHTO   C81 1398   6.903   8.774   0.958  0.3271  0.3098 -0.6960
    4CHTO  H153 1399   6.826   8.802   0.886 -0.8527 -0.2629  0.3333
    4CHTO   N14 1400   6.842   8.664   1.034  0.4531  0.1568  0.1156
    4CHTO  H141 1401   6.742   8.687   1.066  1.7949  2.2775  3.0127
    4CHTO  H142 1402   6.905   8.640   1.118  0.3034  2.8133  1.0254
    4CHTO   C79 1403   7.038   8.743   0.880 -0.0354 -0.3042 -0.3585
    4CHTO  H151 1404   7.015   8.663   0.809 -2.3398 -0.5354  0.5965
    4CHTO   O52 1405   7.071   8.859   0.801 -0.5959  0.4942  0.4293
    4CHTO   C86 1406   7.083   8.988   0.878 -0.3755  0.3413 -0.1478
    4CHTO  H158 1407   7.173   8.978   0.941 -0.8367 -2.4169  0.1554
    4CHTO   C90 1408   7.110   9.106   0.782 -0.2877  0.0560 -0.1061
    4CHTO   O60 1409   7.244   9.096   0.725  0.3591  0.0035 -0.0975
    4CHTO  H138 1410   7.312   9.112   0.788  0.4066 -0.3150 -0.0697
    4CHTO   O50 1411   7.144   8.710   0.977  0.0120 -0.3426  0.0824
    4CHTO   C73 1412   7.275   8.697   1.025  0.2640 -0.0961  0.1606
    4CHTO  H145 1413   7.273   8.742   1.125  0.6380  0.0070  0.1213
    4CHTO   C74 1414   7.384   8.761   0.931 -0.2475 -0.5543  0.2466
    4CHTO  H146 1415   7.355   8.867   0.919 -1.6417 -1.1387 -1.8915
    4CHTO   O54 1416   7.514   8.764   0.997  0.4001  0.5486 -0.0293
    4CHTO  H133 1417   7.556   8.681   1.013 -0.7649 -0.3100 -1.3472
    4CHTO   C75 1418   7.393   8.686   0.789  0.0870 -0.7003 -0.0525
    4CHTO  H147 1419   7.296   8.687   0.738  0.7708  0.2381 -1.3560
    4CHTO   N13 1420   7.490   8.747   0.693  0.5034 -0.6975  0.3952
    4CHTO  H139 1421   7.520   8.845   0.727 -0.9332  0.3306 -1.2263
    4CHTO  H140 1422   7.575   8.688   0.661 -1.3612 -2.5907 -1.2266
    4CHTO   C76 1423   7.423   8.526   0.825 -0.0892  0.6707 -0.0661
    4CHTO  H148 1424   7.523   8.515   0.866 -0.3469  0.4432  0.5042
    4CHTO   O49 1425   7.327   8.470   0.919  0.0897 -0.1598 -0.0869
    4CHTO   C77 1426   7.307   8.550   1.042  0.1691  0.2698 -0.0020
    4CHTO  H149 1427   7.398   8.541   1.103 -0.6791 -0.9015  1.1272
    4CHTO   C88 1428   7.201   8.476   1.131  0.3416  0.2461  0.3008
    4CHTO   O58 1429   7.253   8.354   1.177 -0.0332 -0.2536  0.0894
    4CHTO  H136 1430   7.190   8.285   1.167 -0.1629 -0.1769  0.3905
    4CHTO   O51 1431   7.409   8.431   0.698 -0.1818 -0.3290  0.1207
    4CHTO   C78 1432   7.536   8.380   0.633  0.4700 -0.6894  0.4261
    4CHTO  H150 1433   7.621   8.443   0.665  0.7864 -0.7959 -0.1988
    4CHTO   C80 1434   7.523   8.393   0.479 -0.2098  0.0908  0.1158
    4CHTO  H152 1435   7.438   8.328   0.450  2.4593 -4.0698  1.0829
    4CHTO   O55 1436   7.495   8.529   0.449  0.4351  0.0811 -0.1145
    4CHTO  H134 1437   7.502   8.536   0.356 -1.9190 -0.6239 -0.3706
    4CHTO   C84 1438   7.653   8.341   0.410  0.6522  0.5597 -0.0029
    4CHTO  H156 1439   7.737   8.392   0.457 -1.0021  0.1684  3.5478
    4CHTO   N15 1440   7.664   8.354   0.265 -0.4401  0.2582 -0.1672
    4CHTO  H143 1441   7.695   8.453   0.243 -3.0860  0.8519 -1.4708
    4CHTO  H144 1442   7.572   8.334   0.213 -1.4935  0.8403  1.4120
    4CHTO   C87 1443   7.667   8.194   0.452 -0.5773 -1.1859 -0.1451
    4CHTO  H159 1444   7.577   8.140   0.424 -2.2585  0.1170  2.5905
    4CHTO   O53 1445   7.671   8.184   0.600  0.7788 -0.3929  0.2310
    4CHTO   C82 1446   7.560   8.231   0.668 -0.0569 -0.6451  0.2109
    4CHTO  H154 1447   7.474   8.172   0.637  0.6425 -1.3878 -0.3454
    4CHTO   C89 1448   7.581   8.196   0.816 -0.0987  0.2845 -0.5507
    4CHTO   O59 1449   7.695   8.264   0.857  0.0272  0.0409 -0.2026
    4CHTO  H137 1450   7.678   8.343   0.904  1.3375 -0.0203  0.4061
    4CHTO   O45 1451   7.822   8.125   0.403 -0.4753  0.3753 -0.4179
    4CHTO   C67 1452   7.838   7.989   0.449  0.0843  0.2583  0.0461
    4CHTO  H124 1453   7.916   7.943   0.388  0.2273  0.6057 -0.0379
    4CHTO   C65 1454   7.883   7.985   0.601 -0.1705 -0.0620  0.0914
    4CHTO  H122 1455   7.874   8.088   0.637  2.3252  0.1589  0.1961
    4CHTO   O44 1456   8.022   7.955   0.589 -0.5522  0.4769 -0.1870
    4CHTO  H102 1457   8.058   7.984   0.671 -0.6262 -1.1039  0.4209
    4CHTO   C63 1458   7.796   7.888   0.692 -0.3459 -0.0722 -0.0666
    4CHTO  H120 1459   7.692   7.922   0.696 -0.9732 -1.9827  0.2725
    4CHTO   N11 1460   7.834   7.867   0.837 -0.2309 -0.3184  0.5122
    4CHTO  H108 1461   7.778   7.786   0.880  1.4520  0.2317  3.9277
    4CHTO  H109 1462   7.805   7.954   0.892  0.9821  0.2297  0.2929
    4CHTO   C61 1463   7.775   7.752   0.624  0.4380 -0.0337  0.7718
    4CHTO  H118 1464   7.702   7.694   0.682 -0.4440  0.6053  0.2953
    4CHTO   O40 1465   7.722   7.764   0.487 -0.7279 -0.2902  0.3658
    4CHTO   C68 1466   7.714   7.896   0.432  0.3502 -0.4676  0.0435
    4CHTO  H125 1467   7.630   7.941   0.490  0.4483 -0.1796 -0.0393
    4CHTO   C72 1468   7.666   7.894   0.282  0.3179 -0.3487 -0.3606
    4CHTO   O48 1469   7.529   7.858   0.258 -0.5907  0.1910 -0.3854
    4CHTO  H105 1470   7.500   7.786   0.311 -2.4772 -0.3892 -2.1323
    4CHTO   O38 1471   7.893   7.670   0.613 -0.4446 -0.3533  0.8031
    4CHTO   C55 1472   7.873   7.524   0.607 -0.0557  0.1846  0.2544
    4CHTO  H112 1473   7.768   7.499   0.588 -0.4303  1.3909  0.7455
    4CHTO   C56 1474   7.926   7.452   0.736 -0.5197  0.7663  0.3112
    4CHTO  H113 1475   8.027   7.489   0.761  0.1586  0.7983 -2.3855
    4CHTO   O42 1476   7.848   7.499   0.845  0.3211 -0.1276 -0.1521
    4CHTO  H100 1477   7.767   7.451   0.848 -0.4210  1.0739 -0.7333
    4CHTO   C57 1478   7.923   7.295   0.723  0.3659 -0.2478  0.2947
    4CHTO  H114 1479   7.819   7.265   0.709 -0.1463  0.8209  1.5851
    4CHTO   N10 1480   8.002   7.240   0.841 -0.3488  0.2490  0.2684
    4CHTO  H106 1481   8.105   7.256   0.816 -0.7417 -0.6659 -2.1063
    4CHTO  H107 1482   7.982   7.284   0.937  0.4767 -0.0759  0.5918
    4CHTO   C58 1483   8.002   7.252   0.596  0.0858  0.1878  0.1490
    4CHTO  H115 1484   8.106   7.287   0.607  1.3182 -3.5298  1.2575
    4CHTO   O37 1485   7.940   7.315   0.484  1.2268 -0.3614  0.2148
    4CHTO   C59 1486   7.953   7.460   0.488 -0.3785 -0.4686 -0.0745
    4CHTO  H116 1487   8.057   7.491   0.499 -0.5270 -0.2051  0.5559
    4CHTO   C70 1488   7.895   7.528   0.364 -0.1083  0.5220 -0.0944
    4CHTO   O46 1489   7.757   7.486   0.343  0.0592 -0.7962 -0.2237
    4CHTO  H103 1490   7.763   7.413   0.284  3.4037 -2.4702  2.0461
    4CHTO   O39 1491   8.009   7.085   0.589 -0.1799  0.0390  0.7170
    4CHTO   C60 1492   7.880   7.014   0.592 -0.7593  0.5905 -0.0949
    4CHTO  H117 1493   7.832   7.052   0.682 -0.6610 -1.0007  0.6426
    4CHTO   C62 1494   7.797   7.043   0.464  0.1919  0.3578  0.2118
    4CHTO  H119 1495   7.789   7.153   0.456  0.0573  0.3279 -0.0589
    4CHTO   O43 1496   7.871   6.992   0.349  0.0627 -0.4983 -0.4095
    4CHTO  H101 1497   7.853   7.047   0.276  0.4994 -0.8807 -0.8116
    4CHTO   C66 1498   7.649   6.983   0.490  0.1079  0.4344 -0.0865
    4CHTO  H123 1499   7.613   7.023   0.585  0.1670  1.9024 -0.6729
    4CHTO   N12 1500   7.558   7.035   0.391  0.2049 -0.0642  0.0314
    4CHTO  H110 1501   7.599   7.027   0.291 -1.5966  1.3475 -0.8444
    4CHTO  H111 1502   7.522   7.135   0.407 -0.4582  0.1440 -2.4481
    4CHTO   C69 1503   7.645   6.827   0.505 -0.4904 -0.1300 -0.9310
    4CHTO  H126 1504   7.660   6.790   0.401 -1.1794  1.0056 -1.4566
    4CHTO   O41 1505   7.755   6.770   0.613  0.0826 -0.2433  0.1174
    4CHTO   C64 1506   7.895   6.858   0.623 -0.2781 -0.1982  0.1332
    4CHTO  H121 1507   7.968   6.817   0.550  0.2094 -1.1657  1.1468
    4CHTO   C71 1508   7.941   6.843   0.767 -0.1519 -0.1871  0.2104
    4CHTO   O47 1509   7.980   6.706   0.786 -0.8939  0.2962  0.7408
    4CHTO  H104 1510   7.968   6.671   0.872  1.1840 -0.7802  0.6469
    4CHTO   O34 1511   7.505   6.785   0.557 -0.2403 -0.1978 -0.3939
    4CHTO   C49 1512   7.471   6.649   0.598  0.5115 -1.0153  0.1071
    4CHTO   H91 1513   7.571   6.605   0.590  0.8372 -0.3707  0.5685
    4CHTO   C47 1514   7.374   6.581   0.494  0.6731  0.4630  0.3297
    4CHTO   H89 1515   7.449   6.540   0.423  1.1727 -2.4629  2.4273
    4CHTO   O33 1516   7.285   6.673   0.425  0.8228 -0.6771  0.0150
    4CHTO   H70 1517   7.210   6.690   0.479 -0.9621  1.0776 -2.9010
    4CHTO   C45 1518   7.293   6.463   0.572 -0.0968 -0.2095  0.6406
    4CHTO   H87 1519   7.205   6.500   0.626 -0.4055 -0.8972  0.6244
    4CHTO    N8 1520   7.240   6.365   0.477 -0.2653 -0.0715 -0.2063
    4CHTO   H75 1521   7.181   6.291   0.529 -1.9883 -0.0206 -2.0134
    4CHTO   H76 1522   7.187   6.406   0.393 -0.1196  0.4430 -0.0491
    4CHTO   C43 1523   7.388   6.387   0.681 -0.4711 -0.1205  0.3499
    4CHTO   H85 1524   7.330   6.303   0.719 -0.0919 -0.7916 -0.5441
    4CHTO   O29 1525   7.409   6.487   0.782 -0.0724  0.4256  0.0073
    4CHTO   C50 1526   7.407   6.627   0.745  0.3602  0.2526  0.1578
    4CHTO   H92 1527   7.305   6.669   0.747 -0.2216 -1.1605  1.6474
    4CHTO   C54 1528   7.479   6.713   0.851 -0.2870  0.2266 -0.1255
    4CHTO   O36 1529   7.393   6.738   0.964 -0.1338  0.2150 -0.0112
    4CHTO   H72 1530   7.436   6.804   1.015  1.1907  0.8756 -1.9523
    4CHTO   O27 1531   7.504   6.320   0.629 -0.6718  0.2382 -0.7027
    4CHTO   C37 1532   7.630   6.305   0.557 -0.2031 -0.5166  0.0184
    4CHTO   H79 1533   7.643   6.382   0.480  2.1767 -2.5071 -1.6717
    4CHTO   C38 1534   7.753   6.333   0.651 -0.3001 -0.1991 -0.5195
    4CHTO   H80 1535   7.740   6.271   0.742  0.2703  0.6417  0.1434
    4CHTO   O31 1536   7.747   6.470   0.679 -0.1925  0.5405  0.6586
    4CHTO   H68 1537   7.680   6.478   0.745 -1.2846  1.1915 -0.5114
    4CHTO   C39 1538   7.894   6.287   0.598  0.1478  0.4113 -0.2522
    4CHTO   H81 1539   7.914   6.349   0.511  1.2891 -0.6881 -0.7865
    4CHTO    N7 1540   8.011   6.312   0.686  0.4456  0.2442  0.1128
    4CHTO   H73 1541   8.090   6.333   0.615  0.7655  0.0677  0.4184
    4CHTO   H74 1542   8.017   6.224   0.748  0.1464 -0.1185 -0.3724
    4CHTO   C40 1543   7.884   6.141   0.534 -0.1783 -0.2592 -0.5131
    4CHTO   H82 1544   7.865   6.069   0.614 -1.4706  1.3680  0.6669
    4CHTO   O26 1545   7.779   6.138   0.431  0.2240  0.4246  0.2237
    4CHTO   C41 1546   7.647   6.166   0.486 -0.2471 -0.6953  0.2955
    4CHTO   H83 1547   7.635   6.081   0.555 -0.8489  1.6116  3.1155
    4CHTO   C52 1548   7.531   6.137   0.394  0.1377  0.1536 -0.1495
    4CHTO   O35 1549   7.527   6.249   0.273 -0.2859 -0.0860 -0.2181
    4CHTO   H71 1550   7.479   6.325   0.301  1.6655  0.2540  2.3600
    4CHTO   O28 1551   7.990   6.094   0.456  0.2408 -0.3233  0.6226
    4CHTO   C42 1552   8.041   5.955   0.474 -0.1405 -0.0922  0.3792
    4CHTO   H84 1553   8.117   5.951   0.396 -1.1412  2.3106 -0.7650
    4CHTO   C44 1554   7.940   5.839   0.436  0.0391 -0.2177  0.4036
    4CHTO   H86 1555   7.856   5.840   0.505 -0.7989 -1.3413 -0.5906
    4CHTO   O32 1556   7.891   5.872   0.301 -0.5585  0.4116  0.3508
    4CHTO   H69 1557   7.839   5.950   0.306 -1.3432  0.1406 -2.4381
    4CHTO   C48 1558   8.009   5.699   0.457 -0.1037 -0.1043 -0.7803
    4CHTO   H90 1559   8.106   5.671   0.417  0.7496  2.3921 -0.5652
    4CHTO    N9 1560   7.918   5.588   0.411 -0.1137  0.5801  0.2270
    4CHTO   H77 1561   7.874   5.541   0.499  0.2664 -1.9597 -0.8791
    4CHTO   H78 1562   7.973   5.513   0.357 -1.9973 -1.2060  0.7073
    4CHTO   C51 1563   8.051   5.685   0.607 -0.8263 -0.0704  0.2143
    4CHTO   H93 1564   7.963   5.706   0.668 -0.3781  1.3723  0.3756
    4CHTO   O30 1565   8.158   5.782   0.628 -0.1023  0.8217 -0.6676
    4CHTO   C46 1566   8.109   5.938   0.608  0.1673  0.1486  0.0077
    4CHTO   H88 1567   8.035   5.970   0.682  0.4713  0.3535  0.2234
    4CHTO   C53 1568   8.235   6.025   0.621 -1.2498  0.3401  0.0723
    4CHTO   O72 1569   8.343   5.967   0.539  0.2141  0.5481  0.6905
    4CHTO  H199 1570   8.425   6.011   0.545  0.6159 -0.0929  0.0166
    4CHTO   O22 1571   8.107   5.561   0.643 -0.0274  0.0386 -0.0803
    4CHTO   C31 1572   8.124   5.527   0.784 -0.1766 -0.1952  0.0424
    4CHTO   H59 1573   8.139   5.624   0.836  0.2438  0.8268 -1.9466
    4CHTO   C29 1574   8.013   5.453   0.856  0.1829 -0.3595 -0.8837
    4CHTO   H57 1575   8.018   5.351   0.816  1.0664 -1.4735  1.9643
    4CHTO   O21 1576   7.884   5.510   0.814 -0.8634 -0.8730  0.0371
    4CHTO   H37 1577   7.838   5.533   0.893  0.0245 -1.8780  0.8617
    4CHTO   C27 1578   8.049   5.444   1.011  0.2849 -0.6174  0.3359
    4CHTO   H55 1579   8.057   5.545   1.054 -1.9311 -0.9155  1.5316
    4CHTO    N5 1580   7.944   5.371   1.088 -0.0038 -0.5908 -0.2718
    4CHTO   H43 1581   7.884   5.316   1.017 -0.4078 -1.2972  0.6089
    4CHTO   H44 1582   7.879   5.436   1.146 -0.3586 -1.6000  0.4713
    4CHTO   C25 1583   8.195   5.378   1.031  0.6159 -0.5882  0.1944
    4CHTO   H53 1584   8.189   5.268   1.033 -1.5398 -0.4686  0.8469
    4CHTO   O17 1585   8.298   5.430   0.937  0.3877 -0.4857 -0.1699
    4CHTO   C32 1586   8.262   5.442   0.800  0.2227 -0.3550  0.0464
    4CHTO   H60 1587   8.244   5.343   0.759 -0.9644 -0.9208  1.8787
    4CHTO   C36 1588   8.382   5.508   0.728  0.0444 -0.8134 -0.0064
    4CHTO   O25 1589   8.384   5.507   0.584 -0.0453 -0.1105 -0.2083
    4CHTO   H40 1590   8.468   5.543   0.564  1.0907 -2.7952 -0.4604
    4CHTO   O15 1591   8.243   5.418   1.168  0.1552 -0.1410  0.2085
    4CHTO   C19 1592   8.252   5.542   1.255  0.4118  0.3518  0.1919
    4CHTO   H47 1593   8.349   5.526   1.304  1.5143  0.8573 -1.7654
    4CHTO   C20 1594   8.269   5.678   1.175 -0.1470  0.5198  0.3266
    4CHTO   H48 1595   8.179   5.703   1.116  0.9133  2.9253 -0.3250
    4CHTO   O19 1596   8.384   5.661   1.086 -0.5506  0.0424  0.0657
    4CHTO   H35 1597   8.379   5.713   1.008  0.1150 -0.5630 -0.3872
    4CHTO   C21 1598   8.290   5.804   1.268  0.3614 -0.7155 -0.0107
    4CHTO   H49 1599   8.386   5.793   1.317 -0.0756 -0.8576  0.8259
    4CHTO    N4 1600   8.297   5.933   1.192 -0.4415 -0.1697 -0.1542
    4CHTO   H41 1601   8.361   6.003   1.243  0.9904 -1.5685  0.0240
    4CHTO   H42 1602   8.201   5.979   1.173 -0.2981  0.1436 -0.1218
    4CHTO   C22 1603   8.173   5.798   1.370  0.0907  0.3731  0.0431
    4CHTO   H50 1604   8.083   5.798   1.308  0.8857 -1.5372 -1.1530
    4CHTO   O14 1605   8.178   5.672   1.444 -0.4128 -0.8576  0.1818
    4CHTO   C23 1606   8.150   5.555   1.369 -0.3614 -0.2816  0.9610
    4CHTO   H51 1607   8.048   5.556   1.329  0.8191 -2.1182 -2.2940
    4CHTO   C34 1608   8.162   5.431   1.460 -0.2664  0.1756  0.1071
    4CHTO   O23 1609   8.082   5.318   1.416  0.2212 -0.0840 -0.2866
    4CHTO   H38 1610   8.135   5.256   1.369 -2.0529 -1.0287 -1.6971
    4CHTO   O16 1611   8.167   5.907   1.461 -0.1977  0.6456  0.3603
    4CHTO   C24 1612   8.019   5.951   1.484  0.0890 -0.5231 -0.5415
    4CHTO   H52 1613   7.949   5.871   1.461 -0.1366 -0.6832  0.6551
    4CHTO   C26 1614   7.996   6.075   1.393 -0.1722  0.1291  0.1068
    4CHTO   H54 1615   8.087   6.137   1.406 -0.7767  1.2009 -0.7441
    4CHTO   O20 1616   7.992   6.031   1.255  0.3550  0.2263 -0.1029
    4CHTO   H36 1617   7.967   6.102   1.198 -0.6040 -0.9314 -1.1520
    4CHTO   C30 1618   7.879   6.167   1.436 -0.0763 -0.6136  0.1370
    4CHTO   H58 1619   7.784   6.126   1.398 -1.1414  1.6682  0.2772
    4CHTO    N6 1620   7.882   6.304   1.366  0.0236  0.2375  0.3125
    4CHTO   H45 1621   7.942   6.299   1.276 -0.5858 -0.2581 -0.0691
    4CHTO   H46 1622   7.784   6.345   1.346  0.4486  0.9308 -0.3968
    4CHTO   C33 1623   7.869   6.184   1.589 -0.2481 -0.1451 -0.4780
    4CHTO   H61 1624   7.956   6.241   1.626  0.3079 -0.7582 -0.8179
    4CHTO   O18 1625   7.870   6.053   1.655 -0.2410 -0.0083 -0.3646
    4CHTO   C28 1626   7.994   5.985   1.634 -0.7747 -0.1998  0.5657
    4CHTO   H56 1627   8.075   6.050   1.664 -0.5355  0.0667 -0.6345
    4CHTO   C35 1628   8.000   5.865   1.732  0.5065  0.2126  0.1335
    4CHTO   O24 1629   8.125   5.796   1.727  0.1724 -0.4042  0.6987
    4CHTO   H39 1630   8.143   5.764   1.813  0.2238  0.6454  1.0838
    4CHTO    O9 1631   7.755   6.258   1.630  0.1548 -0.3118  0.5204
    4CHTO   C13 1632   7.721   6.297   1.785 -0.0177 -0.2515  0.2218
    4CHTO   H26 1633   7.693   6.207   1.844 -2.7320  1.4425  1.6142
    4CHTO   C11 1634   7.601   6.397   1.776  0.2549  0.2786  0.5586
    4CHTO   H24 1635   7.517   6.344   1.729  0.9831  1.3840 -2.0719
    4CHTO    O8 1636   7.634   6.503   1.684 -0.5931  0.4175  1.0517
    4CHTO    H3 1637   7.563   6.507   1.623 -1.4211 -1.9423  1.7973
    4CHTO    C9 1638   7.567   6.442   1.919 -0.4076  0.0453 -0.0029
    4CHTO   H22 1639   7.538   6.347   1.968  0.1255 -1.4546 -2.4972
    4CHTO    N2 1640   7.442   6.530   1.929  0.2156  0.2939 -0.1079
    4CHTO   H10 1641   7.365   6.470   1.882  1.2412 -0.4475 -0.8744
    4CHTO   H11 1642   7.457   6.618   1.868 -1.9221  0.1842 -0.8025
    4CHTO    C7 1643   7.694   6.506   1.988 -0.0297 -0.4454  0.7142
    4CHTO   H20 1644   7.661   6.525   2.093 -0.8060  1.6423  0.1253
    4CHTO    O4 1645   7.815   6.425   1.991  0.0425  0.6298  0.5104
    4CHTO   C14 1646   7.853   6.356   1.867  0.0627 -0.2436 -0.0326
    4CHTO   H27 1647   7.925   6.274   1.888  0.5698 -0.2446 -1.6804
    4CHTO   C18 1648   7.936   6.462   1.789  0.2618  0.4563 -0.2646
    4CHTO   O13 1649   8.049   6.491   1.861 -0.2314 -0.0189 -0.0243
    4CHTO    H7 1650   8.091   6.410   1.884  0.7424  1.0543  2.0983
    4CHTO    O2 1651   7.730   6.642   1.907 -0.0709  0.4410  0.0840
    4CHTO    C1 1652   7.806   6.749   1.968 -0.3059  0.8166 -0.4222
    4CHTO   H14 1653   7.900   6.742   1.910 -1.6704 -0.3172 -2.5976
    4CHTO    C2 1654   7.832   6.749   2.124 -0.1026 -0.1819 -0.5227
    4CHTO   H15 1655   7.735   6.753   2.176  0.4478 -0.8411  0.5761
    4CHTO    O6 1656   7.912   6.635   2.159 -0.0906  0.1845 -0.2712
    4CHTO    H1 1657   7.926   6.624   2.251  2.6757 -0.2808 -0.7137
    4CHTO    C3 1658   7.911   6.882   2.166  0.9104 -0.2740 -0.1763
    4CHTO   H16 1659   8.011   6.871   2.121  0.5605 -1.4784 -0.6743
    4CHTO    N1 1660   7.932   6.897   2.319  0.1436  0.2064  0.0326
    4CHTO    H8 1661   7.848   6.910   2.386  0.6270 -0.1055  0.7072
    4CHTO    H9 1662   7.986   6.815   2.363  1.8782  0.6242 -1.2553
    4CHTO    C4 1663   7.846   7.017   2.108  0.2023  0.4857 -0.0341
    4CHTO   H17 1664   7.750   7.038   2.156 -0.3252  0.1576 -0.9294
    4CHTO    O1 1665   7.820   6.991   1.967 -0.1578  0.2012  0.0117
    4CHTO    C5 1666   7.739   6.882   1.923 -0.4160 -0.3272  0.3385
    4CHTO   H18 1667   7.645   6.890   1.977 -0.5432 -0.9717  0.2233
    4CHTO   C16 1668   7.720   6.899   1.769  0.1500 -0.5526  0.3150
    4CHTO   O11 1669   7.636   7.010   1.758 -0.5093 -0.1133  0.2020
    4CHTO    H5 1670   7.562   6.998   1.815  0.1119 -1.4842  0.7612
    4CHTO    O3 1671   7.937   7.131   2.122  0.0717  0.4059  0.4968
    4CHTO    C6 1672   7.891   7.273   2.114 -0.0816  0.0939 -0.1120
    4CHTO   H19 1673   7.791   7.274   2.071 -0.6155 -1.8986  0.9818
    4CHTO    C8 1674   7.882   7.339   2.252 -0.3005 -0.0072  0.3630
    4CHTO   H21 1675   7.980   7.342   2.301 -1.1680  3.2287  2.0736
    4CHTO    O7 1676   7.800   7.258   2.337 -0.0780 -0.4709 -0.3153
    4CHTO    H2 1677   7.727   7.299   2.379 -0.0145 -1.3146  0.6418
    4CHTO   C12 1678   7.831   7.483   2.228 -0.2184 -0.5524  0.5056
    4CHTO   H25 1679   7.736   7.487   2.170 -0.3910 -1.4467  0.7184
    4CHTO    N3 1680   7.805   7.555   2.360  0.6160  0.2628  0.1524
    4CHTO   H12 1681   7.742   7.641   2.344 -0.4166 -0.6441 -0.8225
    4CHTO   H13 1682   7.769   7.489   2.439  1.7938  0.1857  0.6271
    4CHTO   C15 1683   7.938   7.563   2.147  0.0024 -0.7254 -0.0816
    4CHTO   H28 1684   8.030   7.579   2.203 -1.6116 -0.1988  2.5483
    4CHTO   O10 1685   7.895   7.703   2.101  0.3172 -0.0489 -0.1987
    4CHTO    H4 1686   7.964   7.735   2.046  0.1824  1.4870  0.4960
    4CHTO    O5 1687   7.946   7.499   2.021 -0.0441 -0.3592 -0.2250
    4CHTO   C10 1688   7.990   7.362   2.031  0.0433  0.0110  0.2170
    4CHTO   H23 1689   8.084   7.355   2.086 -0.7143 -1.2828  1.4013
    4CHTO   C17 1690   8.017   7.307   1.887  0.2786 -0.3922 -0.7854
    4CHTO   O12 1691   8.081   7.180   1.877 -1.0916 -0.2266  0.1762
    4CHTO    H6 1692   8.172   7.197   1.894 -1.1680  1.7372 -1.1990
    5CHTO  H203 1693   8.737   3.667   0.908  0.1380  0.5184  0.0408
    5CHTO   O82 1694   8.674   3.674   0.978  0.1777 -0.8713  0.2201
    5CHTO  C123 1695   8.675   3.576   1.078 -0.2831  0.5776 -0.6107
    5CHTO  H227 1696   8.768   3.517   1.069 -0.6277 -0.0265 -0.2212
    5CHTO   O77 1697   8.679   3.655   1.196  0.1262 -0.3631 -0.1345
    5CHTO  C118 1698   8.662   3.584   1.322  0.1139 -0.0934 -0.2701
    5CHTO  H222 1699   8.750   3.518   1.330 -0.7597 -1.0591  1.5349
    5CHTO  C125 1700   8.673   3.693   1.435  0.1997 -0.2706 -0.0594
    5CHTO   O84 1701   8.785   3.779   1.429 -0.4353  0.0773  0.2621
    5CHTO  H205 1702   8.861   3.723   1.429 -0.4181  0.1012  0.7770
    5CHTO  C114 1703   8.527   3.505   1.327  0.4472 -0.5448 -0.4123
    5CHTO  H218 1704   8.443   3.572   1.311 -0.4551 -1.7008 -0.4940
    5CHTO  C116 1705   8.514   3.411   1.206 -0.2839  0.1021 -0.4094
    5CHTO  H220 1706   8.587   3.329   1.219  1.1279  1.1348 -1.7369
    5CHTO   O79 1707   8.381   3.356   1.205 -0.2380  0.7810 -0.0687
    5CHTO  H201 1708   8.320   3.425   1.190 -0.5351  0.4919 -0.1988
    5CHTO  C120 1709   8.552   3.476   1.069 -0.7094 -0.3352  0.0377
    5CHTO  H224 1710   8.457   3.528   1.047  0.5970  2.5134  0.8239
    5CHTO   N21 1711   8.578   3.370   0.969  0.3245  0.2193  0.0611
    5CHTO  H211 1712   8.678   3.329   0.978  0.1632 -0.5138 -1.4294
    5CHTO  H212 1713   8.509   3.291   0.997 -1.2049  1.7237  0.5964
    5CHTO   O75 1714   8.514   3.438   1.453 -0.0766 -0.6471  0.3124
    5CHTO  C112 1715   8.355   3.394   1.501  0.2259  0.2245 -0.1286
    5CHTO  H216 1716   8.285   3.389   1.417  1.7675  2.2135 -1.5620
    5CHTO   O73 1717   8.313   3.490   1.601  0.3807 -0.6860 -0.2225
    5CHTO  C113 1718   8.175   3.470   1.632 -0.4993 -1.0845 -0.4330
    5CHTO  H217 1719   8.120   3.468   1.536 -2.4295  1.1321  0.5711
    5CHTO  C124 1720   8.128   3.593   1.703 -0.3620  0.0497  0.0734
    5CHTO   O83 1721   8.095   3.697   1.604  0.1861 -0.2084  0.1748
    5CHTO  H204 1722   8.001   3.692   1.600  0.2441 -0.9819 -0.1854
    5CHTO  C109 1723   8.169   3.346   1.723  0.1729 -0.2438  0.0073
    5CHTO  H213 1724   8.231   3.362   1.813 -0.1384 -0.6647  0.3050
    5CHTO  C110 1725   8.229   3.227   1.642  0.1331  0.9495  0.0122
    5CHTO  H214 1726   8.158   3.195   1.565  0.2435 -0.4836  0.5043
    5CHTO   O78 1727   8.238   3.126   1.749  0.3230  0.1131  1.1793
    5CHTO  H200 1728   8.158   3.115   1.796 -1.0351  1.4483 -0.7488
    5CHTO  C111 1729   8.363   3.252   1.568  0.5008 -0.8602  0.3806
    5CHTO  H215 1730   8.443   3.260   1.643 -0.0390 -1.9364  1.0743
    5CHTO   N19 1731   8.400   3.142   1.477  0.5396 -0.0113 -0.4889
    5CHTO  H207 1732   8.474   3.162   1.400 -0.6411  0.5331 -1.5119
    5CHTO  H208 1733   8.408   3.047   1.526  1.3189  0.6710  0.7181
    5CHTO   O74 1734   8.032   3.308   1.768 -0.3807  0.1108  0.3117
    5CHTO  C115 1735   8.027   3.269   1.919 -0.1958 -0.5322 -0.2336
    5CHTO  H219 1736   8.120   3.224   1.953 -0.9498 -0.5875  1.8306
    5CHTO   O76 1737   8.015   3.386   2.006 -0.2071 -0.7138 -0.5889
    5CHTO  C122 1738   7.900   3.465   1.971 -0.2119 -0.1099  0.4751
    5CHTO  H226 1739   7.915   3.509   1.873  2.1304 -0.5136  0.6230
    5CHTO  C126 1740   7.875   3.584   2.069  0.3874 -0.0293 -0.6238
    5CHTO   O85 1741   7.982   3.680   2.078 -0.2140  0.2216 -0.3810
    5CHTO  H206 1742   8.045   3.641   2.135 -1.2696 -0.3498  0.4078
    5CHTO  C121 1743   7.762   3.383   1.968 -0.1707  0.3681 -0.5041
    5CHTO  H225 1744   7.688   3.437   2.031 -1.0430 -2.1317  0.6722
    5CHTO   O81 1745   7.712   3.386   1.838 -0.5519 -0.1681  0.5466
    5CHTO  H202 1746   7.704   3.473   1.805  0.6576 -0.3243 -0.1742
    5CHTO  C119 1747   7.786   3.239   2.017  0.2784 -0.1462  1.1188
    5CHTO  H223 1748   7.821   3.253   2.120  2.4832 -0.3784  0.4260
    5CHTO  C117 1749   7.905   3.170   1.932  0.1076  0.1878 -0.7372
    5CHTO  H221 1750   7.877   3.143   1.830 -0.0444 -3.0060  0.0978
    5CHTO   N20 1751   7.942   3.038   1.993  0.3169 -0.4572  0.3372
    5CHTO  H209 1752   8.029   2.997   1.944 -0.1285 -2.0576  0.8643
    5CHTO  H210 1753   7.972   3.060   2.095 -1.2027 -0.8580  0.8865
    5CHTO   O80 1754   7.653   3.141   2.037 -0.3416 -0.6134 -0.2324
    5CHTO  C103 1755   7.550   3.127   1.936  0.1190 -0.8407  0.7745
    5CHTO  H190 1756   7.567   3.193   1.851 -1.6094 -2.2212 -0.6842
    5CHTO  C101 1757   7.516   2.985   1.871 -0.0778  0.2837 -0.3622
    5CHTO  H188 1758   7.489   2.922   1.956  0.3235 -2.0176 -1.8991
    5CHTO   O68 1759   7.634   2.933   1.791  0.3066  0.5408  0.0516
    5CHTO  H168 1760   7.660   2.990   1.721 -1.3695  1.3402  0.0617
    5CHTO   C99 1761   7.383   2.992   1.792 -0.4226 -0.2580  0.3346
    5CHTO  H186 1762   7.397   3.069   1.713  1.0038  0.1154  0.9554
    5CHTO   N17 1763   7.338   2.867   1.718  0.2801 -0.6167 -0.0746
    5CHTO  H174 1764   7.300   2.890   1.620 -0.4474  0.6166  0.4889
    5CHTO  H175 1765   7.271   2.807   1.778  0.3423 -0.0472  0.5698
    5CHTO   C97 1766   7.272   3.049   1.881  0.0161  0.1145 -0.4201
    5CHTO  H184 1767   7.241   2.981   1.961 -2.4613  0.1273 -1.3264
    5CHTO   O64 1768   7.309   3.176   1.931  0.0896  0.0944 -0.0647
    5CHTO  C104 1769   7.422   3.173   2.011 -0.2543  0.1389 -0.2122
    5CHTO  H191 1770   7.415   3.114   2.103  3.2144  2.6644  1.7905
    5CHTO  C108 1771   7.435   3.318   2.064  0.3726  0.7397 -0.3039
    5CHTO   O71 1772   7.305   3.381   2.089 -0.5867  0.4552 -0.0527
    5CHTO  H171 1773   7.318   3.462   2.136  0.0769  1.3551 -1.7447
    5CHTO   O62 1774   7.151   3.083   1.807 -0.6516 -0.1313 -0.3935
    5CHTO   C91 1775   7.024   3.093   1.884 -0.3412 -0.7385 -0.4240
    5CHTO  H178 1776   7.044   3.101   1.991  1.7487 -0.4586 -0.8178
    5CHTO   C92 1777   6.946   2.961   1.862 -0.1274 -0.2454  1.0447
    5CHTO  H179 1778   6.917   2.952   1.757  0.9602 -3.5398  0.9794
    5CHTO   O66 1779   7.032   2.850   1.882 -0.2262 -0.3477 -0.1139
    5CHTO  H166 1780   6.981   2.777   1.909  0.5553 -0.7065  0.4243
    5CHTO   C93 1781   6.813   2.965   1.949  0.4221  0.1715 -0.4165
    5CHTO  H180 1782   6.830   2.960   2.058  0.2479 -0.0237 -0.3982
    5CHTO   N16 1783   6.729   2.848   1.922  0.5460 -0.1925  0.5374
    5CHTO  H172 1784   6.640   2.851   1.982  0.4929  2.4792  0.3684
    5CHTO  H173 1785   6.785   2.757   1.941 -0.2388 -0.7661  0.1334
    5CHTO   C94 1786   6.733   3.097   1.918 -0.3367  0.2863  0.1791
    5CHTO  H181 1787   6.692   3.102   1.817 -1.9574 -0.0570  0.8002
    5CHTO   O61 1788   6.815   3.212   1.926 -0.2506 -0.4601  0.3579
    5CHTO   C95 1789   6.933   3.210   1.848  0.4865  0.3198 -0.2800
    5CHTO  H182 1790   6.910   3.188   1.744  1.9560 -1.8454 -0.1718
    5CHTO  C106 1791   7.003   3.348   1.846 -0.4001 -0.0033 -0.0713
    5CHTO   O69 1792   6.918   3.438   1.773 -0.3072 -0.3478  0.2084
    5CHTO  H169 1793   6.969   3.506   1.734 -0.9213 -0.2628 -0.4547
    5CHTO   O63 1794   6.624   3.111   2.028 -0.6644  0.1160 -0.4203
    5CHTO   C96 1795   6.476   3.102   1.964  0.6562  0.3375  0.2328
    5CHTO  H183 1796   6.485   3.044   1.872 -0.2121  1.6955 -0.7271
    5CHTO   C98 1797   6.414   3.235   1.925 -0.2169  0.2037 -0.3281
    5CHTO  H185 1798   6.409   3.301   2.013  3.2635  2.4495 -1.7026
    5CHTO   O67 1799   6.504   3.297   1.835  0.0095 -0.0995  0.1530
    5CHTO  H167 1800   6.520   3.386   1.862  2.7301  0.5491 -3.3286
    5CHTO  C102 1801   6.276   3.214   1.856  0.1379  0.2439  0.1061
    5CHTO  H189 1802   6.296   3.175   1.755  0.8140  1.7150 -0.3289
    5CHTO   N18 1803   6.193   3.330   1.822 -0.0598 -0.7903  0.4071
    5CHTO  H176 1804   6.186   3.396   1.908 -0.5462 -2.8230  1.9649
    5CHTO  H177 1805   6.222   3.387   1.735 -1.9672 -0.7320 -0.2179
    5CHTO  C105 1806   6.193   3.098   1.924 -0.9473 -0.4707  0.1124
    5CHTO  H192 1807   6.128   3.141   2.000 -0.6606  0.7513 -0.3161
    5CHTO   O65 1808   6.259   2.989   1.998  0.5661 -0.1250  0.3052
    5CHTO  C100 1809   6.384   3.015   2.057 -0.2044 -0.5178 -0.1201
    5CHTO  H187 1810   6.367   3.059   2.156  1.0146 -2.3858  0.9409
    5CHTO  C107 1811   6.435   2.880   2.101 -0.2174 -0.3821  1.1169
    5CHTO   O70 1812   6.401   2.774   2.006 -0.0281 -0.0689 -0.0548
    5CHTO  H170 1813   6.354   2.698   2.034 -0.5150 -1.0882 -3.4456
    5CHTO   O57 1814   6.108   3.019   1.787  0.3896 -0.1433 -0.0428
    5CHTO   C85 1815   6.012   2.918   1.789  0.2452 -0.4709 -0.0905
    5CHTO  H157 1816   5.953   2.952   1.877 -0.7847  0.1707 -1.0297
    5CHTO   C83 1817   6.083   2.785   1.821  0.3981  0.1376 -0.0625
    5CHTO  H155 1818   6.143   2.794   1.911 -0.6838 -0.8687  0.7833
    5CHTO   O56 1819   6.162   2.750   1.712  0.1844  0.1657 -0.0684
    5CHTO  H135 1820   6.210   2.826   1.686  0.4573 -0.6847 -2.1639
    5CHTO   C81 1821   5.977   2.680   1.853  0.2010  0.0822  0.1193
    5CHTO  H153 1822   5.909   2.729   1.923  0.3817  0.9219 -0.2742
    5CHTO   N14 1823   6.034   2.561   1.917 -0.3487  0.4425  0.1326
    5CHTO  H141 1824   6.104   2.518   1.848 -0.7210  2.7623 -1.7407
    5CHTO  H142 1825   6.086   2.578   2.009 -1.5035  2.5807  0.4286
    5CHTO   C79 1826   5.896   2.650   1.719  0.3991  0.0486 -0.7947
    5CHTO  H151 1827   5.823   2.573   1.743  0.6329  0.3402  0.9139
    5CHTO   O52 1828   5.838   2.776   1.663 -0.2761  0.9895  0.4387
    5CHTO   C86 1829   5.923   2.897   1.666 -0.3158  0.0892  0.4669
    5CHTO  H158 1830   5.985   2.885   1.574 -1.0441 -1.5456  0.1768
    5CHTO   C90 1831   5.834   3.022   1.637  0.2088  0.0507 -0.5048
    5CHTO   O60 1832   5.757   2.996   1.520 -0.1890 -0.2482  0.4710
    5CHTO  H138 1833   5.715   2.912   1.525  0.2248 -0.5071 -0.3443
    5CHTO   O50 1834   5.969   2.582   1.612  0.3353  0.1115  0.2413
    5CHTO   C73 1835   5.956   2.511   1.489  0.6316  0.0862  0.4151
    5CHTO  H145 1836   5.884   2.555   1.419  0.5745 -0.8425 -0.1124
    5CHTO   C74 1837   5.917   2.366   1.517 -0.6296 -0.7655 -0.5040
    5CHTO  H146 1838   5.829   2.383   1.581 -0.2920  0.8370 -0.4435
    5CHTO   O54 1839   5.874   2.300   1.398  0.3541 -0.3012 -0.2005
    5CHTO  H133 1840   5.930   2.226   1.383  0.3711 -0.5510  1.0321
    5CHTO   C75 1841   6.042   2.304   1.605  0.3061 -0.3570 -0.4826
    5CHTO  H147 1842   6.035   2.349   1.706 -4.0584 -0.4170 -0.6701
    5CHTO   N13 1843   6.032   2.165   1.651  0.0388 -0.6681  0.1274
    5CHTO  H139 1844   5.928   2.139   1.638  0.3839 -1.5483 -0.9286
    5CHTO  H140 1845   6.070   2.139   1.749 -0.8641  0.5480  0.8229
    5CHTO   C76 1846   6.182   2.325   1.541 -0.3507  0.2695 -0.8809
    5CHTO  H148 1847   6.185   2.253   1.459  1.3286 -0.5402 -0.1430
    5CHTO   O49 1848   6.200   2.452   1.488  0.2321  0.2327  0.1499
    5CHTO   C77 1849   6.092   2.508   1.411 -0.1272  0.6922 -0.6006
    5CHTO  H149 1850   6.081   2.449   1.321  1.9084 -0.1371 -0.3160
    5CHTO   C88 1851   6.116   2.650   1.363 -0.5185 -0.5755  0.2068
    5CHTO   O58 1852   6.228   2.663   1.273 -0.2199 -0.0238  0.2089
    5CHTO  H136 1853   6.297   2.602   1.292 -3.3906 -3.1941  2.2417
    5CHTO   O51 1854   6.306   2.301   1.669 -0.3360  0.1226  0.8789
    5CHTO   C78 1855   6.443   2.327   1.615 -0.2192 -0.0173 -0.3326
    5CHTO  H150 1856   6.438   2.387   1.522 -1.4240  0.4335  0.0190
    5CHTO   C80 1857   6.507   2.184   1.584 -0.6138  0.0160  0.0160
    5CHTO  H152 1858   6.495   2.109   1.665 -0.2275 -1.2148 -1.0561
    5CHTO   O55 1859   6.443   2.139   1.467 -0.0249  0.2361  0.2051
    5CHTO  H134 1860   6.410   2.051   1.466  0.7990 -0.0844  1.3205
    5CHTO   C84 1861   6.665   2.207   1.541 -0.0447 -0.3221  0.0285
    5CHTO  H156 1862   6.671   2.236   1.436 -2.1721 -2.4222 -0.7179
    5CHTO   N15 1863   6.741   2.080   1.526  0.6584 -0.7905 -0.5272
    5CHTO  H143 1864   6.750   2.026   1.617  0.2835 -1.2509 -0.7636
    5CHTO  H144 1865   6.838   2.089   1.480  1.1100  1.4037  0.7980
    5CHTO   C87 1866   6.732   2.311   1.632  0.3145 -0.3959  0.2726
    5CHTO  H159 1867   6.765   2.257   1.721  0.7076  1.3114  1.1790
    5CHTO   O53 1868   6.649   2.422   1.654 -0.0928 -0.1205 -0.0739
    5CHTO   C82 1869   6.528   2.402   1.720  0.4959  0.1807  0.1426
    5CHTO  H154 1870   6.535   2.338   1.808  1.5186 -1.0710 -0.8343
    5CHTO   C89 1871   6.463   2.534   1.765  0.2294  0.6263  0.0719
    5CHTO   O59 1872   6.350   2.502   1.845 -0.1110  0.8122 -0.2839
    5CHTO  H137 1873   6.290   2.574   1.856  0.6560  1.6097 -1.2736
    5CHTO   O45 1874   6.857   2.345   1.565  0.1894  0.1975  0.1614
    5CHTO   C67 1875   6.956   2.386   1.657  0.1184  0.0059 -0.2752
    5CHTO  H124 1876   6.904   2.410   1.749 -0.5678 -0.6247 -0.4988
    5CHTO   C65 1877   7.057   2.267   1.684 -0.4430  0.2041 -0.3237
    5CHTO  H122 1878   7.049   2.199   1.599 -0.3713  0.6490 -0.6875
    5CHTO   O44 1879   7.003   2.193   1.789 -0.6181  0.7890  0.2152
    5CHTO  H102 1880   7.059   2.193   1.865  0.5977 -0.2906 -0.6604
    5CHTO   C63 1881   7.207   2.308   1.685  0.0051 -0.0561  0.3061
    5CHTO  H120 1882   7.234   2.340   1.584  1.6025 -0.7281  0.4992
    5CHTO   N11 1883   7.307   2.191   1.704 -0.1368  0.7968  0.2983
    5CHTO  H108 1884   7.404   2.235   1.696 -0.3309  1.0142 -0.9809
    5CHTO  H109 1885   7.283   2.136   1.793 -2.7870  0.2425 -0.6947
    5CHTO   C61 1886   7.216   2.433   1.785  0.2087  0.3426  0.0754
    5CHTO  H118 1887   7.322   2.461   1.775  0.6515 -0.3295  2.5566
    5CHTO   O40 1888   7.128   2.548   1.730  0.0039  0.0879  0.0235
    5CHTO   C68 1889   7.035   2.520   1.622 -0.0270  0.0413 -0.6606
    5CHTO  H125 1890   7.093   2.518   1.528 -1.1216  0.5961 -1.3686
    5CHTO   C72 1891   6.942   2.642   1.623 -0.4009 -0.7023  0.0453
    5CHTO   O48 1892   7.005   2.763   1.585  0.0296  0.1079  0.2723
    5CHTO  H105 1893   6.960   2.839   1.618 -1.0886  0.3344 -1.6564
    5CHTO   O38 1894   7.192   2.401   1.923 -0.4675  0.1397 -0.2510
    5CHTO   C55 1895   7.155   2.506   2.015 -0.0955 -0.0245 -0.0134
    5CHTO  H112 1896   7.082   2.579   1.976 -0.4802 -0.5466 -0.2739
    5CHTO   C56 1897   7.290   2.572   2.050 -0.0755 -0.1568  0.7878
    5CHTO  H113 1898   7.349   2.490   2.094 -0.3569 -0.3964  0.7236
    5CHTO   O42 1899   7.360   2.631   1.935  0.3104 -0.0307 -0.2086
    5CHTO  H100 1900   7.389   2.565   1.875  1.1220  0.4098 -0.3092
    5CHTO   C57 1901   7.266   2.681   2.165  0.6217  0.1185  1.1089
    5CHTO  H114 1902   7.228   2.768   2.112  1.0434  1.1145  2.4082
    5CHTO   N10 1903   7.385   2.729   2.241 -0.1708  0.2889 -0.1902
    5CHTO  H106 1904   7.369   2.832   2.272  0.0314  0.1022  0.5277
    5CHTO  H107 1905   7.396   2.672   2.331  3.0574  1.3213  0.1499
    5CHTO   C58 1906   7.159   2.633   2.269 -0.8187 -0.5527 -0.2270
    5CHTO  H115 1907   7.214   2.558   2.330  0.0740 -0.9270 -1.4714
    5CHTO   O37 1908   7.046   2.574   2.211 -0.0566  0.1193  0.3032
    5CHTO   C59 1909   7.071   2.453   2.138  0.3018  0.0445 -0.7161
    5CHTO  H116 1910   7.135   2.387   2.197 -0.2221 -0.5326 -0.7953
    5CHTO   C70 1911   6.939   2.380   2.104  0.3789 -0.2469  0.0490
    5CHTO   O46 1912   6.836   2.464   2.055  0.1661 -0.0793 -0.4697
    5CHTO  H103 1913   6.830   2.544   2.103  0.9467  0.1463 -0.7475
    5CHTO   O39 1914   7.106   2.764   2.376 -0.1879  0.2802 -0.1089
    5CHTO   C60 1915   6.978   2.823   2.347 -0.0579  0.4898  0.0278
    5CHTO  H117 1916   6.961   2.823   2.240  1.6151 -2.0584 -0.3004
    5CHTO   C62 1917   6.860   2.743   2.419  0.2614 -0.0379 -0.1703
    5CHTO  H119 1918   6.854   2.647   2.365 -0.1861  1.2420 -2.4763
    5CHTO   O43 1919   6.894   2.717   2.551 -0.5934 -0.1252 -0.1321
    5CHTO  H101 1920   6.819   2.725   2.607 -0.1969 -0.3009  0.4321
    5CHTO   C66 1921   6.717   2.823   2.405  0.1916  0.3180 -0.0829
    5CHTO  H123 1922   6.696   2.835   2.299 -0.2164  0.6223  0.0291
    5CHTO   N12 1923   6.608   2.739   2.462 -0.2527  0.3958  0.3191
    5CHTO  H110 1924   6.556   2.783   2.546  2.8198 -0.1199  2.5792
    5CHTO  H111 1925   6.557   2.679   2.389  0.6796 -1.5742  1.2382
    5CHTO   C69 1926   6.724   2.964   2.465 -0.0381  0.0435  0.4567
    5CHTO  H126 1927   6.754   2.948   2.571  0.0707  0.1686  0.4439
    5CHTO   O41 1928   6.835   3.030   2.380  0.6809 -0.0706 -0.5839
    5CHTO   C64 1929   6.976   2.964   2.397 -0.3158  0.4140  0.3085
    5CHTO  H121 1930   6.999   2.974   2.505  0.8951 -0.0449  0.0932
    5CHTO   C71 1931   7.076   3.041   2.317  0.1032  0.3893  0.0377
    5CHTO   O47 1932   7.067   3.174   2.367  0.3036 -0.3134 -0.1512
    5CHTO  H104 1933   7.090   3.225   2.292 -0.7458  1.4233  0.6737
    5CHTO   O34 1934   6.595   3.044   2.470  0.0342 -0.3445 -0.0367
    5CHTO   C49 1935   6.584   3.189   2.527 -0.5585 -0.1494 -0.2579
    5CHTO   H91 1936   6.684   3.228   2.510 -0.8560  1.7522  2.1308
    5CHTO   C47 1937   6.544   3.195   2.680  0.2470 -0.4380  0.1186
    5CHTO   H89 1938   6.567   3.301   2.704  1.6956 -0.6729 -0.1683
    5CHTO   O33 1939   6.631   3.105   2.754 -0.3397  0.0800  0.0651
    5CHTO   H70 1940   6.718   3.140   2.760 -0.9721  1.4840  1.5128
    5CHTO   C45 1941   6.384   3.163   2.703  0.3067  0.7457 -0.2914
    5CHTO   H87 1942   6.369   3.064   2.659 -0.8416  0.3644  0.9149
    5CHTO    N8 1943   6.347   3.152   2.849  0.4509 -0.7473 -0.8516
    5CHTO   H75 1944   6.261   3.093   2.876 -1.6139  1.5206 -2.3229
    5CHTO   H76 1945   6.427   3.124   2.916  0.0536 -0.4738 -0.2627
    5CHTO   C43 1946   6.295   3.257   2.605 -0.3483 -0.3640 -0.1808
    5CHTO   H85 1947   6.195   3.216   2.617 -0.9659  1.1971  0.0768
    5CHTO   O29 1948   6.345   3.244   2.470 -0.1298  0.2851 -0.2613
    5CHTO   C50 1949   6.488   3.271   2.440  0.1335 -0.3258  0.8255
    5CHTO   H92 1950   6.483   3.231   2.338  0.2539 -0.4058  0.8514
    5CHTO   C54 1951   6.528   3.419   2.441  0.4381  0.2119  0.0446
    5CHTO   O36 1952   6.661   3.430   2.387 -0.5336 -0.4777  0.0007
    5CHTO   H72 1953   6.718   3.371   2.432 -0.7258  0.0298  0.9196
    5CHTO   O27 1954   6.286   3.394   2.653 -0.4547  0.5183  0.3231
    5CHTO   C37 1955   6.227   3.499   2.727 -0.0661 -0.4265  0.6545
    5CHTO   H79 1956   6.235   3.596   2.674 -2.1020 -0.1734  0.7712
    5CHTO   C38 1957   6.071   3.487   2.742  0.0913  0.2560 -0.4126
    5CHTO   H80 1958   6.050   3.394   2.795 -0.8274  0.0617 -1.1019
    5CHTO   O31 1959   6.008   3.474   2.613 -0.5728  0.2668 -0.1026
    5CHTO   H68 1960   6.029   3.548   2.559  1.4809  0.8683  1.4530
    5CHTO   C39 1961   6.015   3.609   2.825 -0.5289 -1.3716  0.3321
    5CHTO   H81 1962   6.034   3.686   2.750 -0.6619 -2.4014 -0.7608
    5CHTO    N7 1963   5.865   3.599   2.861 -0.0126 -0.5412  0.2462
    5CHTO   H73 1964   5.851   3.540   2.951  0.1808  1.7408  1.8099
    5CHTO   H74 1965   5.823   3.698   2.857  2.4512  0.4495 -1.9834
    5CHTO   C40 1966   6.098   3.652   2.949  0.0414 -0.2895  0.0553
    5CHTO   H82 1967   6.057   3.590   3.030 -3.5219 -1.4918 -2.5416
    5CHTO   O26 1968   6.236   3.639   2.933  0.0706  0.5392 -0.3374
    5CHTO   C41 1969   6.290   3.519   2.865 -0.3253  0.6361 -0.1879
    5CHTO   H83 1970   6.261   3.440   2.936 -0.5812  0.8528 -0.0509
    5CHTO   C52 1971   6.441   3.530   2.841  0.3600  0.0459  0.7895
    5CHTO   O35 1972   6.508   3.538   2.965 -0.4019 -0.0551 -0.2293
    5CHTO   H71 1973   6.488   3.613   3.017  2.0800  1.1696 -0.9595
    5CHTO   O28 1974   6.103   3.794   2.975  0.2908  0.1143 -0.3591
    5CHTO   C42 1975   6.042   3.863   3.090  0.1611 -0.5688 -0.6163
    5CHTO   H84 1976   5.972   3.930   3.040 -0.0155  0.6908  1.2823
    5CHTO   C44 1977   6.144   3.951   3.160 -0.8199 -0.2886 -0.2662
    5CHTO   H86 1978   6.195   4.010   3.083 -0.5820 -1.4902 -1.0311
    5CHTO   O32 1979   6.077   4.054   3.245 -0.0545  0.1668  0.3459
    5CHTO   H69 1980   6.010   4.015   3.298 -1.2690  0.1003 -1.1991
    5CHTO   C48 1981   6.244   3.862   3.252 -0.4010 -0.6280  0.2717
    5CHTO   H90 1982   6.271   3.926   3.336 -2.1947 -0.3312  0.6360
    5CHTO    N9 1983   6.377   3.849   3.185 -0.4330  0.1114  0.7218
    5CHTO   H77 1984   6.408   3.943   3.142  2.6223 -0.2747  1.9096
    5CHTO   H78 1985   6.377   3.770   3.111 -0.0715  0.7513  0.0338
    5CHTO   C51 1986   6.181   3.720   3.290 -0.0826 -0.2365 -0.5962
    5CHTO   H93 1987   6.196   3.664   3.197  0.4609  2.2176 -2.0402
    5CHTO   O30 1988   6.041   3.744   3.316 -0.3798  0.6599 -0.0125
    5CHTO   C46 1989   5.956   3.781   3.197 -0.0790  0.2173 -0.3660
    5CHTO   H88 1990   5.921   3.684   3.161 -0.2130 -0.1763  0.8135
    5CHTO   C53 1991   5.835   3.862   3.246 -0.5104  0.0459  0.4943
    5CHTO   O72 1992   5.728   3.870   3.153 -0.3038 -0.0811 -0.3053
    5CHTO  H199 1993   5.648   3.858   3.201  0.1792  0.7481  0.7210
    5CHTO   O22 1994   6.229   3.659   3.411 -0.3060  0.1420  0.0267
    5CHTO   C31 1995   6.251   3.511   3.414  0.3912 -0.3758  0.4346
    5CHTO   H59 1996   6.265   3.483   3.520  0.0221 -0.0294  0.5730
    5CHTO   C29 1997   6.125   3.432   3.374  0.3510  0.0529 -0.6165
    5CHTO   H57 1998   6.090   3.487   3.285  0.4900  0.5075 -0.3906
    5CHTO   O21 1999   6.028   3.450   3.477 -0.8427  0.1093 -0.7030
    5CHTO   H37 2000   6.036   3.539   3.507  0.1620 -0.1053 -0.3478
    5CHTO   C27 2001   6.154   3.282   3.340 -0.5239  0.1805  0.7003
    5CHTO   H55 2002   6.180   3.228   3.431 -2.3699 -0.1469  1.0653
    5CHTO    N5 2003   6.042   3.211   3.277 -0.0852  0.0016 -0.2342
    5CHTO   H43 2004   5.950   3.198   3.332  0.8872 -0.6854  1.2494
    5CHTO   H44 2005   6.001   3.269   3.196  0.2062 -0.1296 -0.4750
    5CHTO   C25 2006   6.279   3.265   3.252 -0.4531  0.1891  1.2622
    5CHTO   H53 2007   6.258   3.316   3.158 -0.1335 -1.1825  0.4286
    5CHTO   O17 2008   6.396   3.324   3.324  0.0888  0.3009  0.2784
    5CHTO   C32 2009   6.382   3.468   3.335  0.1119  0.8258  0.6134
    5CHTO   H60 2010   6.383   3.511   3.234 -1.0538 -1.1656 -0.2718
    5CHTO   C36 2011   6.505   3.529   3.408  0.4932  0.1006  0.5348
    5CHTO   O25 2012   6.617   3.518   3.321 -0.1824 -0.2501 -0.2253
    5CHTO   H40 2013   6.689   3.574   3.345 -1.1807  0.1590  1.9212
    5CHTO   O15 2014   6.317   3.116   3.209 -0.0679  0.0137 -0.0080
    5CHTO   C19 2015   6.396   2.996   3.250  0.5752 -0.0853 -0.1733
    5CHTO   H47 2016   6.439   3.015   3.350 -2.2659 -0.4850  1.1715
    5CHTO   C20 2017   6.316   2.860   3.260 -0.1218  0.5038  0.9065
    5CHTO   H48 2018   6.264   2.841   3.165  2.5136  1.5122 -0.8203
    5CHTO   O19 2019   6.220   2.885   3.362 -0.5208  0.4065  0.6520
    5CHTO   H35 2020   6.141   2.910   3.318  0.9702  1.5207 -1.4707
    5CHTO   C21 2021   6.419   2.747   3.293 -0.5180  0.0297  0.6246
    5CHTO   H49 2022   6.471   2.767   3.386  2.5853  0.4576 -1.1584
    5CHTO    N4 2023   6.352   2.612   3.300 -0.1976  0.0114  0.1656
    5CHTO   H41 2024   6.382   2.566   3.393  0.3384  0.0872  0.0346
    5CHTO   H42 2025   6.246   2.629   3.307 -0.1851  0.7393 -1.2556
    5CHTO   C22 2026   6.529   2.736   3.183 -0.4763 -0.0147 -0.3506
    5CHTO   H50 2027   6.486   2.712   3.086 -2.0027  0.3022  0.2258
    5CHTO   O14 2028   6.599   2.864   3.179  0.1121  0.3740  0.3526
    5CHTO   C23 2029   6.516   2.978   3.154 -0.2983 -0.5666 -0.0771
    5CHTO   H51 2030   6.484   2.967   3.049 -0.0895  0.5455 -0.2734
    5CHTO   C34 2031   6.615   3.096   3.163  0.1698 -0.2822 -0.5492
    5CHTO   O23 2032   6.719   3.096   3.065  0.1275 -0.1427  0.1196
    5CHTO   H38 2033   6.740   3.186   3.050  1.8877 -0.8658 -1.9716
    5CHTO   O16 2034   6.637   2.642   3.220 -0.0226 -0.0669  0.3019
    5CHTO   C24 2035   6.702   2.551   3.113 -0.2115  0.0479 -0.3929
    5CHTO   H52 2036   6.627   2.495   3.057 -0.5367  0.2682 -0.1815
    5CHTO   C26 2037   6.782   2.447   3.197 -0.6562  0.2476  0.2301
    5CHTO   H54 2038   6.845   2.500   3.271 -2.3522  0.4185  1.5916
    5CHTO   O20 2039   6.676   2.368   3.267 -0.6662 -0.5551  0.9648
    5CHTO   H36 2040   6.640   2.415   3.340 -1.8190  1.8302 -1.0965
    5CHTO   C30 2041   6.882   2.354   3.112 -0.1261  0.3356  0.2657
    5CHTO   H58 2042   6.819   2.297   3.043 -0.8544 -0.0551  1.2430
    5CHTO    N6 2043   6.952   2.255   3.198  0.5100  0.1195 -0.1050
    5CHTO   H45 2044   6.920   2.158   3.162  1.7215  0.9191 -3.4755
    5CHTO   H46 2045   6.934   2.266   3.304 -1.4997 -0.2090 -0.3835
    5CHTO   C33 2046   6.972   2.450   3.029  0.0148 -0.0082  0.0886
    5CHTO   H61 2047   7.030   2.511   3.101 -0.4264  0.5458 -0.0210
    5CHTO   O18 2048   6.892   2.539   2.942  0.4902 -0.7102 -0.0860
    5CHTO   C28 2049   6.797   2.626   3.007  0.1099 -0.2828 -0.1308
    5CHTO   H56 2050   6.848   2.712   3.053 -0.2339  0.9644 -2.0509
    5CHTO   C35 2051   6.699   2.692   2.898 -0.2730 -0.1546  0.1787
    5CHTO   O24 2052   6.758   2.787   2.813  0.4021 -0.6338 -0.6431
    5CHTO   H39 2053   6.709   2.817   2.738  0.7015 -2.1358 -1.4724
    5CHTO    O9 2054   7.072   2.378   2.948 -0.3989 -0.0533 -0.4278
    5CHTO   C13 2055   7.024   2.325   2.793  0.3463 -0.3531 -0.1817
    5CHTO   H26 2056   6.915   2.308   2.800  0.3044 -0.4473 -1.0248
    5CHTO   C11 2057   7.103   2.188   2.780  0.7043 -0.4532  0.3015
    5CHTO   H24 2058   7.067   2.125   2.863  0.2345 -0.5193  0.0456
    5CHTO    O8 2059   7.245   2.199   2.803  0.4421 -0.2551 -0.2172
    5CHTO    H3 2060   7.281   2.238   2.725  2.8342 -0.2225  0.8759
    5CHTO    C9 2061   7.053   2.130   2.646  0.2174  0.0277  0.3541
    5CHTO   H22 2062   6.943   2.127   2.651  0.1278 -1.0986 -1.6328
    5CHTO    N2 2063   7.096   1.995   2.622  0.0260 -0.2059  0.2421
    5CHTO   H10 2064   7.204   1.993   2.616 -0.0585 -1.7173 -1.0042
    5CHTO   H11 2065   7.063   1.932   2.703  3.4134  0.5332  2.3061
    5CHTO    C7 2066   7.096   2.224   2.532  0.3064 -0.4450  0.0512
    5CHTO   H20 2067   7.051   2.189   2.437 -1.2756 -0.3665  0.7506
    5CHTO    O4 2068   7.055   2.367   2.551  0.2553  0.2712  0.1978
    5CHTO   C14 2069   7.063   2.428   2.679  0.5388  0.2713  0.9165
    5CHTO   H27 2070   6.979   2.500   2.669  0.4571 -0.0386 -0.7094
    5CHTO   C18 2071   7.190   2.504   2.695  0.2012 -0.2951  0.1839
    5CHTO   O13 2072   7.210   2.603   2.595  0.6996 -0.1943 -0.4610
    5CHTO    H7 2073   7.299   2.585   2.571  1.1749  0.0879  1.0471
    5CHTO    O2 2074   7.267   2.211   2.514  0.0209 -0.4201 -0.5724
    5CHTO    C1 2075   7.313   2.241   2.381 -0.2143 -0.2729  0.1691
    5CHTO   H14 2076   7.257   2.329   2.343 -0.5426  0.1985  1.6804
    5CHTO    C2 2077   7.301   2.128   2.274  0.0169  0.1289  0.4552
    5CHTO   H15 2078   7.360   2.049   2.322 -0.4951  1.1505  2.8565
    5CHTO    O6 2079   7.164   2.093   2.253  0.1974  0.2207  0.2633
    5CHTO    H1 2080   7.155   2.019   2.311 -0.3220  0.4119  0.4276
    5CHTO    C3 2081   7.366   2.171   2.137  0.0584  0.1623  0.9292
    5CHTO   H16 2082   7.311   2.255   2.094 -0.7886 -0.3880  0.9411
    5CHTO    N1 2083   7.357   2.056   2.038 -0.4193 -0.1225  0.6520
    5CHTO    H8 2084   7.393   2.095   1.945 -0.3945  1.4778  1.3258
    5CHTO    H9 2085   7.419   1.976   2.078 -0.5027 -0.5729 -0.1151
    5CHTO    C4 2086   7.511   2.224   2.164 -0.0090  0.0601 -0.1008
    5CHTO   H17 2087   7.566   2.142   2.210 -1.7671 -1.5297 -0.8009
    5CHTO    O1 2088   7.502   2.334   2.261  0.3746 -0.5173 -0.6697
    5CHTO    C5 2089   7.462   2.285   2.391 -0.1435  0.1168  0.1849
    5CHTO   H18 2090   7.512   2.197   2.430 -1.7711 -1.4509 -1.1662
    5CHTO   C16 2091   7.487   2.404   2.493 -0.1631  0.0775 -0.1263
    5CHTO   O11 2092   7.474   2.367   2.634 -0.4895  0.2807  0.2865
    5CHTO    H5 2093   7.400   2.311   2.643  0.0772 -0.8780 -2.0168
    5CHTO    O3 2094   7.576   2.278   2.047 -0.2346  0.1405 -0.2549
    5CHTO    C6 2095   7.717   2.297   2.051  0.3873 -0.0906 -0.0201
    5CHTO   H19 2096   7.763   2.275   2.148 -3.3440 -0.7353  1.6965
    5CHTO    C8 2097   7.785   2.200   1.957 -0.8885 -0.4245  0.3780
    5CHTO   H21 2098   7.742   2.212   1.857  0.4705 -2.2900 -0.4633
    5CHTO    O7 2099   7.758   2.068   1.998  0.4525 -0.3874 -0.0124
    5CHTO    H2 2100   7.741   2.012   1.925  0.6366  0.4775 -0.7295
    5CHTO   C12 2101   7.941   2.223   1.940 -0.2675  0.0173 -0.0003
    5CHTO   H25 2102   7.989   2.189   2.035 -0.4394  2.8860  1.1611
    5CHTO    N3 2103   8.002   2.131   1.838  0.1127  0.0247 -0.0341
    5CHTO   H12 2104   7.954   2.147   1.743  0.5721  2.1367  0.0755
    5CHTO   H13 2105   7.982   2.028   1.865 -0.5872 -0.0959 -0.9888
    5CHTO   C15 2106   7.968   2.378   1.912 -0.2064  0.6406  0.0593
    5CHTO   H28 2107   7.933   2.404   1.812  1.1321 -0.4221 -0.6978
    5CHTO   O10 2108   8.108   2.431   1.924 -0.9296  0.0869  0.3442
    5CHTO    H4 2109   8.154   2.431   2.006 -0.2603  2.8845  0.0276
    5CHTO    O5 2110   7.899   2.463   2.005 -0.3847  0.6012 -0.0609
    5CHTO   C10 2111   7.760   2.451   2.018 -0.3125  0.6317  0.4549
    5CHTO   H23 2112   7.727   2.479   1.918  1.4310  2.3376  0.3266
    5CHTO   C17 2113   7.702   2.545   2.124  0.2595 -0.0568 -0.3436
    5CHTO   O12 2114   7.774   2.556   2.246 -0.8971 -0.0715  0.1450
    5CHTO    H6 2115   7.752   2.481   2.299 -0.4539 -1.0100 -0.9785
    6CHTO  H203 2116   7.607   4.554   0.301  0.5126 -0.9478  2.4796
    6CHTO   O82 2117   7.518   4.526   0.309 -0.1355  0.2210 -0.0663
    6CHTO  C123 2118   7.434   4.639   0.301  0.0606  0.4450 -0.0394
    6CHTO  H227 2119   7.477   4.705   0.224  0.7157  0.2260  0.1416
    6CHTO   O77 2120   7.303   4.589   0.256 -0.0796  0.4298  0.3939
    6CHTO  C118 2121   7.210   4.696   0.229 -0.6356  0.1652 -0.0201
    6CHTO  H222 2122   7.255   4.765   0.157  1.2234 -0.4228  0.5509
    6CHTO  C125 2123   7.088   4.624   0.163  0.0373  0.3105  0.2814
    6CHTO   O84 2124   6.995   4.718   0.113  0.3095 -0.1205 -0.0831
    6CHTO  H205 2125   6.956   4.678   0.038  3.5020 -1.2896 -1.2260
    6CHTO  C114 2126   7.180   4.775   0.356 -1.0437  0.5001  0.3914
    6CHTO  H218 2127   7.136   4.705   0.428  1.5130 -0.4023  1.1643
    6CHTO  C116 2128   7.309   4.828   0.425 -0.6467 -0.1573 -0.1245
    6CHTO  H220 2129   7.345   4.919   0.372 -0.2091 -0.0591  0.3385
    6CHTO   O79 2130   7.269   4.868   0.560 -0.3505  0.0337 -0.2627
    6CHTO  H201 2131   7.206   4.937   0.558  1.2363  1.5041 -1.1491
    6CHTO  C120 2132   7.423   4.715   0.436 -0.1483 -0.3371 -0.4668
    6CHTO  H224 2133   7.391   4.646   0.517 -2.1148  1.5969  0.4555
    6CHTO   N21 2134   7.553   4.773   0.485 -0.3589 -0.0978  0.7077
    6CHTO  H211 2135   7.601   4.709   0.558 -3.5670 -2.5044  0.7888
    6CHTO  H212 2136   7.621   4.804   0.407 -0.8274  0.8598  0.6798
    6CHTO   O75 2137   7.087   4.878   0.328 -0.4391 -0.0535  0.6448
    6CHTO  C112 2138   6.952   4.891   0.428  0.2110 -0.6469 -0.5163
    6CHTO  H216 2139   6.983   4.877   0.532  1.2281  0.4618 -0.6537
    6CHTO   O73 2140   6.856   4.792   0.388  0.0286 -0.1016 -0.0373
    6CHTO  C113 2141   6.719   4.800   0.440  0.7091 -0.1610  0.3799
    6CHTO  H217 2142   6.722   4.765   0.545 -0.6963 -0.8337  0.1983
    6CHTO  C124 2143   6.651   4.699   0.352 -0.4228 -0.0576 -0.0766
    6CHTO   O83 2144   6.715   4.568   0.363 -0.3701 -0.0262 -0.1321
    6CHTO  H204 2145   6.798   4.571   0.320  0.0082 -2.5000  0.3474
    6CHTO  C109 2146   6.658   4.945   0.420 -0.3040 -0.1407 -0.1350
    6CHTO  H213 2147   6.643   4.959   0.312  0.3611 -0.2177 -0.2420
    6CHTO  C110 2148   6.754   5.051   0.477  0.3584 -0.3105  0.1408
    6CHTO  H214 2149   6.774   5.035   0.583  0.3690  0.0262  0.1917
    6CHTO   O78 2150   6.700   5.184   0.445  0.0844  0.8429  0.1042
    6CHTO  H200 2151   6.742   5.250   0.497 -0.1493  0.6330  0.5685
    6CHTO  C111 2152   6.891   5.039   0.415 -0.4359 -0.5610 -0.3079
    6CHTO  H215 2153   6.882   5.061   0.308 -0.3081  0.3718 -0.1298
    6CHTO   N19 2154   6.994   5.132   0.468 -0.1570 -0.1061 -0.3372
    6CHTO  H207 2155   7.081   5.131   0.404 -0.6037  0.0917 -0.9519
    6CHTO  H208 2156   6.953   5.232   0.473  0.8771  0.3410 -0.6425
    6CHTO   O74 2157   6.528   4.951   0.483  0.2133 -0.0432 -0.2170
    6CHTO  C115 2158   6.500   4.925   0.644 -0.5181 -0.3868  0.2371
    6CHTO  H219 2159   6.578   4.864   0.688  1.2893  0.5782 -1.5679
    6CHTO   O76 2160   6.512   5.053   0.724 -0.1105  0.0864 -0.2871
    6CHTO  C122 2161   6.400   5.138   0.733  0.7759  0.3665 -0.1245
    6CHTO  H226 2162   6.417   5.219   0.661 -2.8720  0.9158 -0.4585
    6CHTO  C126 2163   6.408   5.206   0.876 -0.2970  0.4830  0.2307
    6CHTO   O85 2164   6.499   5.324   0.880  0.3262 -0.9882 -0.4142
    6CHTO  H206 2165   6.579   5.296   0.839  0.3714  0.5730 -1.4081
    6CHTO  C121 2166   6.259   5.076   0.719  0.1970 -0.3110 -0.0490
    6CHTO  H225 2167   6.185   5.123   0.786 -0.2095  0.7171 -1.2002
    6CHTO   O81 2168   6.210   5.098   0.591  0.1107 -0.8948  0.0024
    6CHTO  H202 2169   6.198   5.190   0.581 -0.3763 -0.8700  0.7594
    6CHTO  C119 2170   6.268   4.927   0.755  0.6135  0.2881  0.8259
    6CHTO  H223 2171   6.314   4.922   0.853  2.5180 -1.8335 -0.1159
    6CHTO  C117 2172   6.359   4.852   0.654 -0.6002  0.1650  0.3692
    6CHTO  H221 2173   6.318   4.846   0.553  0.1186  2.9990 -0.1342
    6CHTO   N20 2174   6.382   4.710   0.700 -0.4372  0.4254 -0.0148
    6CHTO  H209 2175   6.415   4.645   0.621  1.0059 -0.8641  1.6427
    6CHTO  H210 2176   6.460   4.705   0.775  0.0660 -3.1142 -0.7240
    6CHTO   O80 2177   6.120   4.864   0.779 -0.2269  0.3210  0.3694
    6CHTO  C103 2178   6.075   4.815   0.923  0.0014 -0.3758 -0.7627
    6CHTO  H190 2179   6.156   4.751   0.958 -2.0066 -3.2454 -1.2043
    6CHTO  C101 2180   6.034   4.932   1.029 -0.4695 -0.0732 -0.3920
    6CHTO  H188 2181   5.964   5.000   0.981 -0.2817 -0.4404 -1.2057
    6CHTO   O68 2182   6.156   5.023   1.067 -0.3859  0.1615 -0.5344
    6CHTO  H168 2183   6.219   4.975   1.117  1.6104  2.1146 -1.0986
    6CHTO   C99 2184   5.961   4.872   1.152  0.2579 -0.0388 -0.3128
    6CHTO  H186 2185   6.032   4.811   1.211  0.1944 -0.4527 -0.6640
    6CHTO   N17 2186   5.909   4.970   1.255 -0.2563 -0.2102 -0.8202
    6CHTO  H174 2187   5.822   5.018   1.211  1.0059  1.1955 -1.8523
    6CHTO  H175 2188   5.989   5.034   1.287 -0.4207 -0.5834  0.3751
    6CHTO   C97 2189   5.847   4.769   1.116  0.1954 -0.0262 -0.2797
    6CHTO  H184 2190   5.768   4.830   1.070  1.5226  2.6084  0.8617
    6CHTO   O64 2191   5.894   4.670   1.021  0.3427  0.1659 -0.6510
    6CHTO  C104 2192   5.956   4.719   0.900 -1.0772  0.0448 -0.3615
    6CHTO  H191 2193   5.886   4.766   0.831  0.0794 -0.2491 -1.7728
    6CHTO  C108 2194   6.014   4.600   0.822  0.1509 -0.3906  0.7392
    6CHTO   O71 2195   5.914   4.511   0.765 -0.0188  0.4903 -0.1357
    6CHTO  H171 2196   5.855   4.478   0.830 -2.3541  1.6318 -1.6100
    6CHTO   O62 2197   5.800   4.688   1.228 -0.2544 -0.3530 -0.4465
    6CHTO   C91 2198   5.661   4.668   1.221  0.1282  0.0748 -0.0976
    6CHTO  H178 2199   5.617   4.764   1.192  1.0929 -0.1988 -2.5786
    6CHTO   C92 2200   5.621   4.634   1.368  0.4745 -0.3948  0.5870
    6CHTO  H179 2201   5.651   4.719   1.432 -1.6615  0.3744  0.6154
    6CHTO   O66 2202   5.478   4.645   1.378 -0.2037 -0.0113 -0.0935
    6CHTO  H166 2203   5.452   4.629   1.466  1.3970  0.3058  0.4540
    6CHTO   C93 2204   5.655   4.489   1.406  0.3878  0.2070  0.7006
    6CHTO  H180 2205   5.580   4.446   1.475  2.2234 -2.0287  1.3871
    6CHTO   N16 2206   5.784   4.483   1.485 -0.6052 -0.0301 -0.7082
    6CHTO  H172 2207   5.764   4.465   1.589 -1.6376 -0.6164 -1.0077
    6CHTO  H173 2208   5.869   4.427   1.448  0.3166  2.6487 -2.9220
    6CHTO   C94 2209   5.652   4.394   1.282 -0.2931  1.1525  0.2122
    6CHTO  H181 2210   5.750   4.385   1.236 -1.2077 -0.9754 -1.4207
    6CHTO   O61 2211   5.567   4.447   1.181 -0.0723 -0.2181  0.4034
    6CHTO   C95 2212   5.625   4.560   1.111  0.2893  0.0806  0.0729
    6CHTO  H182 2213   5.718   4.529   1.062  0.0436 -1.1607  0.3668
    6CHTO  C106 2214   5.527   4.606   1.003 -0.0453 -0.0076 -0.0821
    6CHTO   O69 2215   5.508   4.514   0.898  0.3800 -0.2258  0.4980
    6CHTO  H169 2216   5.484   4.565   0.823  0.4132 -0.3625  0.3926
    6CHTO   O63 2217   5.606   4.253   1.326  0.7343 -0.6464 -0.0756
    6CHTO   C96 2218   5.651   4.129   1.218  0.1613  0.4870  0.2281
    6CHTO  H183 2219   5.745   4.165   1.176  1.5500 -1.5762  1.4808
    6CHTO   C98 2220   5.541   4.103   1.120  0.5132 -0.1401  0.7488
    6CHTO  H185 2221   5.442   4.116   1.167  0.0255 -0.1224 -0.2674
    6CHTO   O67 2222   5.540   4.202   1.014  0.0191  0.5308  0.4368
    6CHTO  H167 2223   5.511   4.161   0.935  0.4157  0.2824  0.4237
    6CHTO  C102 2224   5.550   3.956   1.053 -0.2536 -0.0238 -0.4366
    6CHTO  H189 2225   5.558   3.972   0.945 -0.1737  0.5727 -0.3443
    6CHTO   N18 2226   5.428   3.871   1.080 -0.5307 -0.2397  0.2598
    6CHTO  H176 2227   5.402   3.865   1.185 -0.7718 -0.7645  0.1733
    6CHTO  H177 2228   5.436   3.770   1.041 -0.8254  0.4773 -1.7211
    6CHTO  C105 2229   5.681   3.880   1.093  0.8067 -0.6979  0.6184
    6CHTO  H192 2230   5.673   3.778   1.057  1.0623 -0.2571 -0.7265
    6CHTO   O65 2231   5.696   3.877   1.232  0.1653  0.4556 -0.4408
    6CHTO  C100 2232   5.688   3.998   1.303  0.4656 -0.0437  0.2549
    6CHTO  H187 2233   5.609   3.988   1.379  0.5893  0.8546  0.5060
    6CHTO  C107 2234   5.820   4.002   1.376  0.5813  0.7254 -0.4479
    6CHTO   O70 2235   5.884   4.123   1.417 -0.0201  0.0556  0.2857
    6CHTO  H170 2236   5.944   4.100   1.485  0.8127  2.2932  0.3450
    6CHTO   O57 2237   5.782   3.964   1.019  1.0927  0.2009 -0.5700
    6CHTO   C85 2238   5.874   3.900   0.935 -1.0166 -0.2490 -0.0321
    6CHTO  H157 2239   5.816   3.834   0.867 -0.0013 -1.6030  0.3715
    6CHTO   C83 2240   5.967   3.787   1.002 -0.1611  0.1600  0.7412
    6CHTO  H155 2241   5.906   3.697   1.012  0.2180 -0.3647 -1.4347
    6CHTO   O56 2242   6.000   3.820   1.135 -0.0351 -0.1908  0.2844
    6CHTO  H135 2243   6.018   3.744   1.187  1.4081  0.4045  0.6831
    6CHTO   C81 2244   6.083   3.742   0.917 -0.0871 -0.7384 -0.1872
    6CHTO  H153 2245   6.035   3.692   0.832 -1.6386 -0.1416  0.3132
    6CHTO   N14 2246   6.170   3.636   0.977 -0.0298  0.3353  0.0892
    6CHTO  H141 2247   6.111   3.564   1.028  1.5220 -1.1940 -0.2411
    6CHTO  H142 2248   6.230   3.595   0.898  0.0005 -0.4265  0.5148
    6CHTO   C79 2249   6.166   3.866   0.861  0.0314 -0.0297  0.1520
    6CHTO  H151 2250   6.248   3.829   0.800  1.1467  1.6427  0.5894
    6CHTO   O52 2251   6.076   3.945   0.782 -0.1555  0.0370  0.1988
    6CHTO   C86 2252   5.960   4.002   0.851 -0.0806 -0.3014 -0.3672
    6CHTO  H158 2253   6.000   4.086   0.911  2.1930 -1.9618  0.5290
    6CHTO   C90 2254   5.871   4.068   0.743  0.5032  0.0379  0.2124
    6CHTO   O60 2255   5.944   4.172   0.675 -0.0227  0.0082 -0.1495
    6CHTO  H138 2256   5.991   4.148   0.597  1.3901  3.7440 -0.5644
    6CHTO   O50 2257   6.239   3.940   0.960  0.1245 -0.1048 -0.7845
    6CHTO   C73 2258   6.264   3.967   1.101 -0.6855  0.1289  0.4934
    6CHTO  H145 2259   6.245   3.876   1.159  1.4789 -1.4803 -1.2690
    6CHTO   C74 2260   6.162   4.082   1.151  0.2257 -0.3118  0.4397
    6CHTO  H146 2261   6.061   4.044   1.130 -0.4719  1.2794  0.8534
    6CHTO   O54 2262   6.165   4.103   1.293  0.2887 -0.4284  0.1180
    6CHTO  H133 2263   6.237   4.143   1.339  1.9252 -1.1259 -1.7611
    6CHTO   C75 2264   6.190   4.213   1.062  0.0030 -0.3641  0.6619
    6CHTO  H147 2265   6.173   4.189   0.956 -0.8497 -0.3490  0.7913
    6CHTO   N13 2266   6.096   4.321   1.089 -0.2326  0.2690 -0.0888
    6CHTO  H139 2267   5.993   4.290   1.081 -0.1604 -0.1512  0.5705
    6CHTO  H140 2268   6.121   4.409   1.031 -1.1668  0.0882 -0.7694
    6CHTO   C76 2269   6.342   4.252   1.086  0.4742  0.1867 -0.0018
    6CHTO  H148 2270   6.357   4.269   1.192  1.8213 -2.8633  0.3550
    6CHTO   O49 2271   6.427   4.145   1.056  0.2614  0.2255 -0.0627
    6CHTO   C77 2272   6.412   4.017   1.120  0.2850 -0.0795 -0.4696
    6CHTO  H149 2273   6.435   4.020   1.226  0.1395  0.7997 -0.4526
    6CHTO   C88 2274   6.507   3.909   1.062  0.4119 -0.5722  0.2330
    6CHTO   O58 2275   6.505   3.892   0.913 -0.3087  0.1214  0.1064
    6CHTO  H136 2276   6.508   3.799   0.900  0.7223  0.3954 -1.8165
    6CHTO   O51 2277   6.392   4.369   0.988 -0.9454  0.1632  0.3283
    6CHTO   C78 2278   6.470   4.480   1.051  0.0237  0.2322  0.0543
    6CHTO  H150 2279   6.525   4.447   1.142 -1.0098  2.1544  1.3827
    6CHTO   C80 2280   6.375   4.596   1.095 -0.1941  0.4653  0.1450
    6CHTO  H152 2281   6.320   4.642   1.010 -0.9092  0.4190  0.5797
    6CHTO   O55 2282   6.299   4.549   1.203  0.0095 -0.1914  0.0390
    6CHTO  H134 2283   6.243   4.612   1.244 -0.3263 -0.6444  0.2835
    6CHTO   C84 2284   6.467   4.714   1.150 -0.6088 -0.3816  0.3983
    6CHTO  H156 2285   6.503   4.668   1.242  1.2356  3.2832  1.5829
    6CHTO   N15 2286   6.386   4.833   1.187 -0.3554 -0.6290 -0.2528
    6CHTO  H143 2287   6.441   4.910   1.236  1.7040 -2.1763 -0.1013
    6CHTO  H144 2288   6.308   4.801   1.253 -0.6356  0.9658  0.2095
    6CHTO   C87 2289   6.584   4.755   1.051  0.0154 -0.1911  0.2703
    6CHTO  H159 2290   6.539   4.794   0.960 -0.2034  0.0695  0.4934
    6CHTO   O53 2291   6.668   4.601   1.013 -0.2936 -0.2749  0.3085
    6CHTO   C82 2292   6.572   4.523   0.948  0.9264 -0.4617  0.4476
    6CHTO  H154 2293   6.524   4.578   0.868  0.0293  0.6788  1.7428
    6CHTO   C89 2294   6.635   4.394   0.892 -0.3835  0.2891  0.4289
    6CHTO   O59 2295   6.725   4.418   0.786  0.3219  0.1565 -0.6159
    6CHTO  H137 2296   6.734   4.345   0.729 -3.1936 -0.7995 -0.0760
    6CHTO   O45 2297   6.690   4.872   1.138  0.5087 -0.3552 -0.3862
    6CHTO   C67 2298   6.825   4.834   1.134 -0.5023  0.7165 -0.5381
    6CHTO  H124 2299   6.837   4.733   1.174  1.8714  0.8290 -0.8612
    6CHTO   C65 2300   6.878   4.834   0.995  0.6072 -0.1276  0.0185
    6CHTO  H122 2301   6.790   4.825   0.932  0.6923 -0.2494 -0.0834
    6CHTO   O44 2302   6.965   4.732   0.976 -0.1980  0.5139 -0.1475
    6CHTO  H102 2303   6.981   4.710   0.887  3.5494 -0.5561  0.6928
    6CHTO   C63 2304   6.932   4.977   0.963  0.2586  0.0938  0.2864
    6CHTO  H120 2305   6.857   5.049   0.996 -0.2661 -0.5859  0.5981
    6CHTO   N11 2306   6.943   5.017   0.819 -0.8343  0.0503  0.3015
    6CHTO  H108 2307   6.957   5.121   0.800  1.0024 -0.6555 -2.4133
    6CHTO  H109 2308   7.002   4.946   0.766 -0.3037  0.9701 -0.3602
    6CHTO   C61 2309   7.058   5.009   1.053  1.1645  0.0036  0.1459
    6CHTO  H118 2310   7.088   5.112   1.027  1.0069 -0.7684 -3.3117
    6CHTO   O40 2311   7.040   4.999   1.202 -0.0261 -0.5367  0.6609
    6CHTO   C68 2312   6.907   4.937   1.243 -0.0460 -0.4049 -0.1107
    6CHTO  H125 2313   6.836   5.022   1.250  1.0432  0.5030  0.0282
    6CHTO   C72 2314   6.921   4.875   1.384 -0.6261 -0.4654  0.0130
    6CHTO   O48 2315   7.009   4.761   1.368 -0.1436 -0.1701 -0.0179
    6CHTO  H105 2316   6.952   4.695   1.332  0.5187 -0.9043  0.2675
    6CHTO   O38 2317   7.162   4.916   1.013  0.3537 -0.1944 -0.4633
    6CHTO   C55 2318   7.292   4.974   1.021  0.1135 -0.3363  0.6707
    6CHTO  H112 2319   7.297   5.065   1.084  1.1922 -0.0585  0.1969
    6CHTO   C56 2320   7.353   5.002   0.872  0.1262 -0.3195 -0.1491
    6CHTO  H113 2321   7.337   4.909   0.815 -0.4545 -0.3182  0.0075
    6CHTO   O42 2322   7.272   5.105   0.807  0.5100  0.1797 -0.3594
    6CHTO  H100 2323   7.187   5.112   0.845  0.9695  1.1943  0.4974
    6CHTO   C57 2324   7.511   5.043   0.876  0.1965 -0.1094 -0.5360
    6CHTO  H114 2325   7.518   5.149   0.902 -0.7140  0.0694 -1.0185
    6CHTO   N10 2326   7.580   5.038   0.750  0.4263  0.2800 -0.0703
    6CHTO  H106 2327   7.648   5.121   0.748 -2.7644  2.9932 -2.4661
    6CHTO  H107 2328   7.511   5.050   0.667  0.6613 -1.0547 -0.4802
    6CHTO   C58 2329   7.589   4.951   0.980 -0.0100 -0.3894  0.0919
    6CHTO  H115 2330   7.600   4.847   0.941 -0.8870 -1.2697  2.1029
    6CHTO   O37 2331   7.518   4.932   1.104  0.5788 -0.1959  0.0324
    6CHTO   C59 2332   7.386   4.871   1.094 -0.6479  0.6481 -0.2676
    6CHTO  H116 2333   7.402   4.778   1.039 -1.6394  1.3203 -1.7319
    6CHTO   C70 2334   7.344   4.838   1.238 -0.1132 -0.6977 -0.1275
    6CHTO   O46 2335   7.266   4.724   1.242 -0.0688 -0.0867 -0.4793
    6CHTO  H103 2336   7.322   4.649   1.230 -0.1111 -0.0989 -0.6008
    6CHTO   O39 2337   7.719   5.023   1.040 -0.3338  0.5577  0.3270
    6CHTO   C60 2338   7.845   4.952   1.018 -0.0409  0.5259 -0.1584
    6CHTO  H117 2339   7.825   4.845   1.024  0.5347  0.3604 -1.0658
    6CHTO   C62 2340   7.905   4.968   0.874  0.2761  0.0891  0.2155
    6CHTO  H119 2341   7.852   4.900   0.805  0.9205 -0.6540  0.4505
    6CHTO   O43 2342   7.892   5.107   0.831  0.1046  0.1269 -0.4041
    6CHTO  H101 2343   7.966   5.159   0.854  0.8469 -1.0244 -0.1366
    6CHTO   C66 2344   8.054   4.900   0.875 -0.1461 -0.6444  0.3407
    6CHTO  H123 2345   8.044   4.793   0.893 -1.0711 -0.3769  1.4732
    6CHTO   N12 2346   8.120   4.910   0.742  0.1743 -0.4835  0.0317
    6CHTO  H110 2347   8.055   4.878   0.662  1.0325 -0.5718 -0.6382
    6CHTO  H111 2348   8.165   5.006   0.722  2.6870 -1.3765  1.2724
    6CHTO   C69 2349   8.136   4.962   0.994 -0.5818  1.2528  0.6320
    6CHTO  H126 2350   8.131   5.072   0.980 -2.0524  1.0424 -0.5058
    6CHTO   O41 2351   8.072   4.921   1.115 -1.1474 -0.1392 -0.0075
    6CHTO   C64 2352   7.940   4.987   1.132 -0.7815  0.0113 -0.8839
    6CHTO  H121 2353   7.954   5.097   1.141 -2.7239  0.0189  3.2768
    6CHTO   C71 2354   7.882   4.936   1.267  0.5048 -0.1943 -0.7195
    6CHTO   O47 2355   7.858   4.793   1.267  0.3135  0.0414  0.2772
    6CHTO  H104 2356   7.917   4.755   1.329  0.1851  0.6838  0.7987
    6CHTO   O34 2357   8.296   4.911   0.996 -0.0678 -0.4401  0.4783
    6CHTO   C49 2358   8.434   4.965   0.961 -0.0498 -0.7530 -0.2177
    6CHTO   H91 2359   8.449   4.916   0.865  0.5859 -0.5848 -0.2024
    6CHTO   C47 2360   8.546   4.924   1.066 -0.7613 -0.0183  0.3725
    6CHTO   H89 2361   8.643   4.968   1.037 -1.4672  1.1818 -0.2106
    6CHTO   O33 2362   8.558   4.782   1.073  0.0388 -0.1514 -0.1183
    6CHTO   H70 2363   8.642   4.755   1.039  1.1854  0.5132  2.0779
    6CHTO   C45 2364   8.501   4.980   1.209 -0.0298 -0.6881 -0.1968
    6CHTO   H87 2365   8.398   4.956   1.239 -0.3499  1.5360  0.5937
    6CHTO    N8 2366   8.592   4.943   1.324  0.4654  0.1591  0.5987
    6CHTO   H75 2367   8.567   5.010   1.405 -1.8407 -1.2089  1.0726
    6CHTO   H76 2368   8.579   4.841   1.357  1.1163  0.3068  1.3352
    6CHTO   C43 2369   8.485   5.143   1.201  0.3627 -0.7465  0.4757
    6CHTO   H85 2370   8.434   5.174   1.292  0.1476 -0.0828  0.1315
    6CHTO   O29 2371   8.413   5.181   1.085  0.1662 -0.3757 -0.0983
    6CHTO   C50 2372   8.438   5.122   0.960  0.1784 -0.0346 -0.2197
    6CHTO   H92 2373   8.353   5.146   0.894 -0.7634  1.9414  1.6693
    6CHTO   C54 2374   8.555   5.183   0.883  0.0740  0.0633  0.0129
    6CHTO   O36 2375   8.554   5.151   0.744  0.2095 -0.1851  0.0080
    6CHTO   H72 2376   8.489   5.204   0.701 -1.7110 -2.7430 -0.3576
    6CHTO   O27 2377   8.614   5.213   1.208  0.7197  0.3674  0.4812
    6CHTO   C37 2378   8.685   5.324   1.268 -0.1091 -0.3639 -0.2095
    6CHTO   H79 2379   8.792   5.298   1.268 -0.0672 -0.3130 -2.3005
    6CHTO   C38 2380   8.670   5.451   1.185 -0.1025  0.5120 -0.3326
    6CHTO   H80 2381   8.562   5.463   1.168 -0.3114 -0.5357  0.2636
    6CHTO   O31 2382   8.736   5.428   1.055 -0.0497 -0.7531 -0.4958
    6CHTO   H68 2383   8.691   5.473   0.985 -2.5774 -1.3125  0.7184
    6CHTO   C39 2384   8.743   5.579   1.249 -0.4842  0.0121 -0.2714
    6CHTO   H81 2385   8.849   5.555   1.257 -0.4263 -0.2428 -1.5893
    6CHTO    N7 2386   8.744   5.714   1.175  0.4167  0.1735 -0.2819
    6CHTO   H73 2387   8.812   5.787   1.219 -0.7283  1.5968 -0.8266
    6CHTO   H74 2388   8.642   5.748   1.169  0.2159 -0.2488  0.7427
    6CHTO   C40 2389   8.702   5.591   1.399 -0.0434 -0.8430  0.4439
    6CHTO   H82 2390   8.602   5.633   1.411  0.5503  0.6161  0.4779
    6CHTO   O26 2391   8.719   5.463   1.463  0.1018 -0.2421 -0.1506
    6CHTO   C41 2392   8.639   5.354   1.413  0.1502  0.4109 -1.0897
    6CHTO   H83 2393   8.530   5.365   1.423  0.4176  2.1385  0.1108
    6CHTO   C52 2394   8.667   5.238   1.503 -0.6902 -0.2677 -0.6923
    6CHTO   O35 2395   8.584   5.232   1.620 -0.0018  0.1876 -0.3285
    6CHTO   H71 2396   8.599   5.309   1.672 -1.1413 -0.7245  1.4000
    6CHTO   O28 2397   8.791   5.684   1.470  0.0792  0.2582  0.0131
    6CHTO   C42 2398   8.786   5.721   1.610  0.5157  0.3856 -0.4967
    6CHTO   H84 2399   8.871   5.786   1.630 -0.3889  1.8137 -1.1341
    6CHTO   C44 2400   8.794   5.606   1.721  0.7981  0.0578 -0.0020
    6CHTO   H86 2401   8.706   5.542   1.714  1.1709 -0.3883 -0.6189
    6CHTO   O32 2402   8.900   5.519   1.683  0.4016 -0.0744 -0.3364
    6CHTO   H69 2403   8.979   5.567   1.669 -0.3050  1.5974  1.1817
    6CHTO   C48 2404   8.808   5.668   1.864 -0.1468 -0.0532 -0.0437
    6CHTO   H90 2405   8.892   5.737   1.875  0.7597 -1.2195  0.5671
    6CHTO    N9 2406   8.829   5.572   1.980  0.7127  0.2268  0.3660
    6CHTO   H77 2407   8.837   5.624   2.075  0.2041 -0.7945  0.9781
    6CHTO   H78 2408   8.747   5.502   1.977 -0.3129  1.4517 -4.1673
    6CHTO   C51 2409   8.683   5.759   1.899  0.5779 -0.4349 -1.1465
    6CHTO   H93 2410   8.592   5.699   1.903 -0.5010  1.3205  3.5178
    6CHTO   O30 2411   8.676   5.859   1.796 -0.4287 -0.1403 -0.5599
    6CHTO   C46 2412   8.662   5.813   1.644 -0.1836  0.4143  0.4963
    6CHTO   H88 2413   8.570   5.756   1.633  1.6641 -2.8443  1.2578
    6CHTO   C53 2414   8.643   5.931   1.545  0.4215  0.3562 -0.3600
    6CHTO   O72 2415   8.521   6.001   1.581 -0.2454 -0.1388 -0.0473
    6CHTO  H199 2416   8.548   6.059   1.649  0.2870 -0.6663  0.1975
    6CHTO   O22 2417   8.695   5.833   2.018  0.2526 -0.4172  0.4909
    6CHTO   C31 2418   8.580   5.919   2.066 -0.4856 -0.1775  0.0411
    6CHTO   H59 2419   8.627   5.992   2.136 -2.8853  2.8009 -1.3709
    6CHTO   C29 2420   8.501   6.011   1.963  0.2960  0.2178  0.1678
    6CHTO   H57 2421   8.456   5.955   1.880 -1.1971  1.6060 -0.0027
    6CHTO   O21 2422   8.593   6.096   1.888  0.0752 -0.1063  0.4755
    6CHTO   H37 2423   8.663   6.131   1.940  1.7925 -2.2978 -0.2861
    6CHTO   C27 2424   8.390   6.098   2.029 -0.2192  0.3843  0.0502
    6CHTO   H55 2425   8.442   6.181   2.079  0.5580 -0.1659  0.1500
    6CHTO    N5 2426   8.296   6.160   1.930  0.1303 -0.1235  0.1362
    6CHTO   H43 2427   8.363   6.201   1.856 -0.5092  0.1883 -0.2748
    6CHTO   H44 2428   8.258   6.250   1.975  1.0615  0.7287 -0.7558
    6CHTO   C25 2429   8.299   6.024   2.131  0.2780  0.4899 -0.0811
    6CHTO   H53 2430   8.228   5.955   2.083 -0.1263  0.5157  0.4846
    6CHTO   O17 2431   8.378   5.930   2.211 -0.0077 -0.4105  0.0570
    6CHTO   C32 2432   8.466   5.840   2.146 -0.2340 -0.8573  0.3376
    6CHTO   H60 2433   8.401   5.786   2.077 -0.2711 -1.1296  0.5821
    6CHTO   C36 2434   8.520   5.759   2.266 -0.4096  0.2786 -0.2280
    6CHTO   O25 2435   8.617   5.672   2.218 -0.5692 -0.4208 -0.1693
    6CHTO   H40 2436   8.677   5.638   2.281 -1.1867  0.0051  0.6650
    6CHTO   O15 2437   8.236   6.127   2.228  0.6071  0.3928 -0.2517
    6CHTO   C19 2438   8.126   6.181   2.309 -0.3585 -0.4171  0.2920
    6CHTO   H47 2439   8.106   6.102   2.382  2.3282 -1.8784 -0.4907
    6CHTO   C20 2440   8.155   6.300   2.396 -0.4995  0.2235  0.1241
    6CHTO   H48 2441   8.196   6.386   2.341  0.7530  0.4556  1.3830
    6CHTO   O19 2442   8.260   6.258   2.486  0.2374 -0.7419  0.5189
    6CHTO   H35 2443   8.341   6.304   2.473 -0.0719 -0.2954  0.1677
    6CHTO   C21 2444   8.028   6.342   2.483 -0.1886 -0.2837 -0.0990
    6CHTO   H49 2445   8.001   6.254   2.542  1.3492  0.2480  1.4607
    6CHTO    N4 2446   8.041   6.458   2.572 -0.5033 -0.3598 -0.1539
    6CHTO   H41 2447   8.104   6.533   2.527 -1.0675 -0.1971 -0.6755
    6CHTO   H42 2448   8.091   6.419   2.660 -0.4381 -0.7274 -0.3577
    6CHTO   C22 2449   7.898   6.358   2.398 -0.6253 -0.5041  0.3669
    6CHTO   H50 2450   7.915   6.450   2.343 -2.1297 -1.2549 -1.4043
    6CHTO   O14 2451   7.876   6.249   2.303  0.5824  0.5815  0.1641
    6CHTO   C23 2452   7.988   6.206   2.229 -0.5777  0.0061 -0.2409
    6CHTO   H51 2453   8.000   6.273   2.142  0.2115  0.5407  0.2768
    6CHTO   C34 2454   7.941   6.079   2.166 -0.0467  0.3598  0.5992
    6CHTO   O23 2455   7.918   5.971   2.260  0.2357  0.7918 -0.0787
    6CHTO   H38 2456   7.826   5.955   2.255  0.9435 -3.6746 -0.8658
    6CHTO   O16 2457   7.771   6.361   2.467 -0.3643  0.6034 -0.1193
    6CHTO   C24 2458   7.654   6.433   2.383  0.4679 -0.1414 -0.1081
    6CHTO   H52 2459   7.676   6.440   2.276  1.0114 -0.7260 -0.0395
    6CHTO   C26 2460   7.630   6.576   2.437 -0.0812  0.0557  0.1803
    6CHTO   H54 2461   7.596   6.573   2.543  0.5448  1.8259  0.4429
    6CHTO   O20 2462   7.753   6.652   2.436  0.1196 -0.3894  0.4750
    6CHTO   H36 2463   7.755   6.726   2.495 -0.4125  0.3423 -0.4217
    6CHTO   C30 2464   7.518   6.636   2.351  0.1480 -0.0386  0.0095
    6CHTO   H58 2465   7.556   6.637   2.248  0.9341 -0.4820  0.2934
    6CHTO    N6 2466   7.489   6.783   2.375  0.3479 -0.2066 -0.4013
    6CHTO   H45 2467   7.493   6.829   2.277  3.7257  1.0685  0.2605
    6CHTO   H46 2468   7.540   6.849   2.443 -0.8018 -1.7225  2.0035
    6CHTO   C33 2469   7.388   6.545   2.350  0.1593 -0.4796 -0.2549
    6CHTO   H61 2470   7.356   6.532   2.455  0.2691 -0.9725 -0.2799
    6CHTO   O18 2471   7.426   6.416   2.309  0.3247  0.5036  0.1439
    6CHTO   C28 2472   7.525   6.346   2.395 -0.7455 -0.4095  0.3179
    6CHTO   H56 2473   7.496   6.343   2.500 -1.5482 -1.3333  0.0846
    6CHTO   C35 2474   7.548   6.215   2.328  0.0327 -0.6750  0.1668
    6CHTO   O24 2475   7.598   6.111   2.406 -0.2315 -0.1373 -0.2582
    6CHTO   H39 2476   7.634   6.043   2.352  3.8329  1.5648  0.0871
    6CHTO    O9 2477   7.274   6.594   2.277  0.2322 -0.1631 -0.1368
    6CHTO   C13 2478   7.123   6.583   2.343  0.0160 -0.8637 -0.5865
    6CHTO   H26 2479   7.119   6.646   2.434  3.2476 -2.0705  0.4666
    6CHTO   C11 2480   7.100   6.431   2.378  0.3671 -0.5800  0.6501
    6CHTO   H24 2481   7.170   6.403   2.457  2.3200  2.0649 -0.0710
    6CHTO    O8 2482   7.128   6.343   2.274  0.0804  0.1788 -0.0975
    6CHTO    H3 2483   7.146   6.258   2.308  0.6688  0.0703 -0.6719
    6CHTO    C9 2484   6.956   6.420   2.432  0.5621 -0.1876 -0.6017
    6CHTO   H22 2485   6.948   6.504   2.503  1.1959  0.7052 -1.5698
    6CHTO    N2 2486   6.922   6.292   2.499  0.3443 -0.0126  0.1780
    6CHTO   H10 2487   6.816   6.300   2.518  0.3621 -0.0267  0.2820
    6CHTO   H11 2488   6.970   6.276   2.595 -1.2745  3.2034  1.6196
    6CHTO    C7 2489   6.852   6.454   2.319  0.3435  0.1936  0.9993
    6CHTO   H20 2490   6.755   6.455   2.373  0.4137 -0.4820  1.1470
    6CHTO    O4 2491   6.871   6.585   2.265 -0.0160 -0.2960  0.1755
    6CHTO   C14 2492   7.003   6.641   2.246  0.0475 -0.1368 -0.8519
    6CHTO   H27 2493   7.008   6.747   2.277 -1.4419 -0.3016 -0.0223
    6CHTO   C18 2494   7.032   6.641   2.099  0.2773 -0.6257 -0.3554
    6CHTO   O13 2495   6.942   6.729   2.029 -0.3307 -0.0141  0.4367
    6CHTO    H7 2496   6.898   6.680   1.962 -1.8228  0.7194  0.8805
    6CHTO    O2 2497   6.856   6.335   2.189 -0.5827  0.3338  0.1050
    6CHTO    C1 2498   6.736   6.323   2.111 -0.2923  0.5834 -0.5324
    6CHTO   H14 2499   6.765   6.258   2.026 -0.3364 -1.4295  0.9499
    6CHTO    C2 2500   6.668   6.455   2.063  0.4670  0.1540  0.3214
    6CHTO   H15 2501   6.648   6.526   2.145 -0.2773  0.5541 -0.1947
    6CHTO    O6 2502   6.758   6.518   1.967  0.4430  0.3817 -0.4568
    6CHTO    H1 2503   6.765   6.611   1.981 -0.6728  0.9460 -3.3745
    6CHTO    C3 2504   6.517   6.421   2.005  0.1698  0.5136  0.3761
    6CHTO   H16 2505   6.529   6.369   1.909  0.8910  2.9465 -0.8926
    6CHTO    N1 2506   6.449   6.548   1.968 -0.6832  0.4620  0.2349
    6CHTO    H8 2507   6.349   6.535   1.929  0.9224 -2.7462 -3.0438
    6CHTO    H9 2508   6.448   6.610   2.057  0.3741 -1.0533  1.3302
    6CHTO    C4 2509   6.443   6.324   2.101 -0.9506  0.1990  0.4897
    6CHTO   H17 2510   6.425   6.375   2.195 -2.0585 -0.3817  0.6015
    6CHTO    O1 2511   6.517   6.201   2.122  0.0173  0.2015 -0.2967
    6CHTO    C5 2512   6.636   6.236   2.201  0.0263 -0.0350  0.1733
    6CHTO   H18 2513   6.610   6.300   2.285  0.5360  0.2646  0.1079
    6CHTO   C16 2514   6.697   6.100   2.251 -0.0993  0.7622  0.6858
    6CHTO   O11 2515   6.612   6.016   2.329  0.5374 -0.5884  0.1413
    6CHTO    H5 2516   6.597   6.053   2.414 -0.3954 -0.8796  0.1094
    6CHTO    O3 2517   6.317   6.281   2.038 -0.0650 -0.1206  0.1525
    6CHTO    C6 2518   6.202   6.262   2.128  0.9294  0.3229  0.3885
    6CHTO   H19 2519   6.232   6.269   2.232 -2.1568 -0.2465  1.3437
    6CHTO    C8 2520   6.087   6.363   2.104 -0.1670  0.4611  0.0559
    6CHTO   H21 2521   6.051   6.359   2.001 -1.0486 -0.7931  0.3961
    6CHTO    O7 2522   6.152   6.495   2.135  0.4086  0.1729 -0.2443
    6CHTO    H2 2523   6.224   6.511   2.077 -0.6903 -1.0362 -1.9791
    6CHTO   C12 2524   5.970   6.332   2.203  0.6157 -0.2200  0.1373
    6CHTO   H25 2525   6.009   6.337   2.306  0.4253  1.0135  0.1472
    6CHTO    N3 2526   5.864   6.441   2.202 -0.0349  0.4780  0.2213
    6CHTO   H12 2527   5.855   6.453   2.095  2.4689  1.9000  0.1346
    6CHTO   H13 2528   5.771   6.407   2.244 -0.2578  1.2054  0.3263
    6CHTO   C15 2529   5.920   6.184   2.163  0.1424  0.4784 -0.4786
    6CHTO   H28 2530   5.885   6.184   2.060 -1.8571 -2.5898  0.1343
    6CHTO   O10 2531   5.821   6.130   2.261  0.6323 -0.0553  0.5510
    6CHTO    H4 2532   5.795   6.197   2.322  2.1297  3.3638 -2.4047
    6CHTO    O5 2533   6.036   6.096   2.191 -0.1801 -0.2936 -0.1829
    6CHTO   C10 2534   6.151   6.112   2.111 -0.1577 -0.4967 -0.4599
    6CHTO   H23 2535   6.134   6.074   2.010 -0.2813 -1.2688 -0.1559
    6CHTO   C17 2536   6.256   6.018   2.171 -0.5274 -0.4160  0.7544
    6CHTO   O12 2537   6.222   5.878   2.178 -0.1542 -0.5625  0.0390
    6CHTO    H6 2538   6.297   5.824   2.195 -1.0454 -1.4363  1.2459
    7CHTO  H203 2539   5.230   2.238   2.581  0.4979 -0.1396  0.3479
    7CHTO   O82 2540   5.274   2.206   2.504  0.1214 -0.3245  0.2094
    7CHTO  C123 2541   5.377   2.302   2.469 -0.3761  0.1599 -0.2195
    7CHTO  H227 2542   5.331   2.401   2.462 -1.1993 -0.0357  2.1581
    7CHTO   O77 2543   5.464   2.291   2.582 -0.4657  0.2724 -0.4141
    7CHTO  C118 2544   5.583   2.373   2.587  0.1019  1.1342  0.1245
    7CHTO  H222 2545   5.557   2.480   2.584 -0.2648  1.0716  0.9091
    7CHTO  C125 2546   5.660   2.348   2.727 -0.1741 -0.0164  0.3039
    7CHTO   O84 2547   5.568   2.331   2.832 -0.3970  0.6694  0.1826
    7CHTO  H205 2548   5.612   2.347   2.913  1.0185 -0.5094 -0.3392
    7CHTO  C114 2549   5.671   2.341   2.466  0.2273  0.9696 -0.3448
    7CHTO  H218 2550   5.707   2.240   2.484 -0.6711  1.2227  3.2402
    7CHTO  C116 2551   5.597   2.341   2.332  0.5380  0.2742  0.2943
    7CHTO  H220 2552   5.581   2.446   2.300  0.6688 -0.8114 -3.5779
    7CHTO   O79 2553   5.684   2.272   2.242  0.0127  0.2105  0.0927
    7CHTO  H201 2554   5.741   2.329   2.195 -0.1564 -0.1690 -0.5746
    7CHTO  C120 2555   5.459   2.270   2.337 -0.1649  0.5754 -0.5661
    7CHTO  H224 2556   5.480   2.162   2.324 -1.9763 -0.1469  2.0752
    7CHTO   N21 2557   5.379   2.293   2.217  0.1680 -0.1073  0.2749
    7CHTO  H211 2558   5.425   2.235   2.138  0.9183 -1.2702  1.5423
    7CHTO  H212 2559   5.277   2.264   2.235  0.5793 -0.8243  1.4860
    7CHTO   O75 2560   5.776   2.437   2.480  0.0712 -0.0625  0.1783
    7CHTO  C112 2561   5.916   2.368   2.461  0.6591 -0.8969  0.1002
    7CHTO  H216 2562   5.899   2.304   2.374 -3.1490 -1.3054  1.0237
    7CHTO   O73 2563   5.954   2.293   2.577 -0.0553 -0.2288 -0.8644
    7CHTO  C113 2564   6.075   2.218   2.558  0.4431 -0.3623  0.5213
    7CHTO  H217 2565   6.076   2.145   2.474  0.8658  1.2356 -0.8940
    7CHTO  C124 2566   6.092   2.145   2.686  0.1013  0.2593 -0.1002
    7CHTO   O83 2567   6.012   2.031   2.723  0.2241 -0.2145 -0.0339
    7CHTO  H204 2568   6.031   2.017   2.814 -0.4519  2.3615  0.5426
    7CHTO  C109 2569   6.199   2.318   2.538  0.1782 -0.7330 -0.5429
    7CHTO  H213 2570   6.205   2.378   2.630  0.2081  1.0622 -1.7106
    7CHTO  C110 2571   6.172   2.415   2.419 -0.8860 -0.3204 -0.1657
    7CHTO  H214 2572   6.181   2.360   2.326 -2.7785  0.9743 -1.1430
    7CHTO   O78 2573   6.277   2.511   2.403 -0.3008  0.0022  0.4058
    7CHTO  H200 2574   6.361   2.480   2.431  0.5872  1.0202 -1.1143
    7CHTO  C111 2575   6.029   2.479   2.437 -0.1444 -0.3207  0.7886
    7CHTO  H215 2576   6.039   2.544   2.525 -0.6475  0.5185  0.2315
    7CHTO   N19 2577   5.988   2.570   2.329  0.2153  0.0690  0.0150
    7CHTO  H207 2578   5.880   2.566   2.320  0.0456  2.2730  0.7821
    7CHTO  H208 2579   6.031   2.544   2.233  0.5143 -1.3673  0.5302
    7CHTO   O74 2580   6.327   2.246   2.517 -0.4030  0.1124  0.4850
    7CHTO  C115 2581   6.441   2.298   2.597  0.2177 -0.0017 -0.1253
    7CHTO  H219 2582   6.447   2.407   2.592 -1.6078  0.2942  2.8832
    7CHTO   O76 2583   6.424   2.266   2.740  0.3332 -0.1594 -0.3797
    7CHTO  C122 2584   6.456   2.142   2.798  0.0750  0.2713  0.0271
    7CHTO  H226 2585   6.383   2.071   2.760 -0.1344  1.2604 -1.4620
    7CHTO  C126 2586   6.425   2.150   2.950 -0.2350 -0.0320 -0.2204
    7CHTO   O85 2587   6.433   2.025   3.019  0.3009 -0.5042 -0.2349
    7CHTO  H206 2588   6.350   1.980   3.013  0.6637 -1.0712 -1.1127
    7CHTO  C121 2589   6.609   2.115   2.765  0.2063  0.2059  0.4127
    7CHTO  H225 2590   6.667   2.204   2.796 -1.7225  1.3447  0.8045
    7CHTO   O81 2591   6.670   2.005   2.846 -0.4137 -0.2046  0.2856
    7CHTO  H202 2592   6.764   2.014   2.845 -0.4444  0.1201  0.2560
    7CHTO  C119 2593   6.621   2.102   2.612  0.0171 -0.1768  0.0618
    7CHTO  H223 2594   6.727   2.081   2.597  0.3453  1.0908  0.5929
    7CHTO  C117 2595   6.582   2.236   2.539 -0.4908 -0.8119 -1.0581
    7CHTO  H221 2596   6.554   2.235   2.434 -0.9793  2.3761 -1.0200
    7CHTO   N20 2597   6.702   2.334   2.545  0.1451 -0.1700 -0.0480
    7CHTO  H209 2598   6.687   2.415   2.616 -1.3568 -2.0515  1.8699
    7CHTO  H210 2599   6.724   2.367   2.445 -0.5194  0.8781  0.1477
    7CHTO   O80 2600   6.551   1.977   2.545  0.4657 -0.3562 -0.3385
    7CHTO  C103 2601   6.600   1.922   2.428  0.4887  0.1447 -0.7385
    7CHTO  H190 2602   6.580   1.995   2.349 -0.7740  2.6901  1.8301
    7CHTO  C101 2603   6.754   1.879   2.434 -0.8169 -1.0408 -0.1590
    7CHTO  H188 2604   6.776   1.844   2.535  3.3439  0.4267 -0.4554
    7CHTO   O68 2605   6.849   1.998   2.408 -0.2811 -0.1038 -0.7272
    7CHTO  H168 2606   6.840   2.072   2.465 -0.5645 -0.7885  0.1357
    7CHTO   C99 2607   6.790   1.766   2.322  0.0962  0.2325 -0.1323
    7CHTO  H186 2608   6.798   1.814   2.223 -1.9135 -0.1854 -0.5222
    7CHTO   N17 2609   6.922   1.697   2.353 -0.5481 -0.2920 -0.9147
    7CHTO  H174 2610   6.990   1.719   2.272  0.5346  1.6634  0.5074
    7CHTO  H175 2611   6.915   1.592   2.380  3.4613 -0.8659 -1.8404
    7CHTO   C97 2612   6.683   1.656   2.307 -0.2640 -0.1269  0.4626
    7CHTO  H184 2613   6.674   1.600   2.401  1.6268 -0.9368  0.1761
    7CHTO   O64 2614   6.563   1.728   2.274  0.7236  0.0420  0.7619
    7CHTO  C104 2615   6.509   1.790   2.391 -0.3686 -0.2118 -0.1935
    7CHTO  H191 2616   6.504   1.726   2.479  0.4103  0.3758  0.2865
    7CHTO  C108 2617   6.362   1.837   2.367  0.0008 -0.0407  0.1532
    7CHTO   O71 2618   6.276   1.724   2.342 -0.2592  0.3152  0.1725
    7CHTO  H171 2619   6.253   1.675   2.419 -2.6936  0.8476 -0.1498
    7CHTO   O62 2620   6.702   1.565   2.195 -0.0672  0.9670  0.1914
    7CHTO   C91 2621   6.617   1.450   2.170  0.0539 -0.4208  0.6120
    7CHTO  H178 2622   6.681   1.365   2.146  0.2956 -0.7953  2.4997
    7CHTO   C92 2623   6.522   1.478   2.044  0.0176  0.3091  0.4691
    7CHTO  H179 2624   6.472   1.575   2.059 -3.4940 -1.1346 -1.3621
    7CHTO   O66 2625   6.613   1.486   1.934 -0.5043 -0.3627 -0.6539
    7CHTO  H166 2626   6.626   1.572   1.901 -0.8561 -0.4334 -0.9796
    7CHTO   C93 2627   6.402   1.378   2.024 -0.3170 -0.1671 -0.2537
    7CHTO  H180 2628   6.448   1.284   1.990 -2.0841 -0.9865 -0.4510
    7CHTO   N16 2629   6.298   1.422   1.924  0.2272  0.7976  0.1202
    7CHTO  H172 2630   6.352   1.436   1.831 -0.3109 -0.4586 -0.3929
    7CHTO  H173 2631   6.242   1.510   1.951 -1.3024  0.0709 -0.6166
    7CHTO   C94 2632   6.324   1.359   2.158 -0.4392 -0.1489  0.4261
    7CHTO  H181 2633   6.272   1.448   2.192 -1.2656 -0.5445  0.2012
    7CHTO   O61 2634   6.422   1.313   2.262  0.5681 -0.2697 -0.2379
    7CHTO   C95 2635   6.530   1.397   2.297 -0.6779  0.4942 -0.3445
    7CHTO  H182 2636   6.497   1.482   2.357  1.0268  0.8819  0.0807
    7CHTO  C106 2637   6.616   1.304   2.392  0.0562 -0.5565  0.1475
    7CHTO   O69 2638   6.760   1.317   2.385 -0.3146 -0.3685 -0.5415
    7CHTO  H169 2639   6.804   1.254   2.439 -1.5566 -0.8381 -0.0414
    7CHTO   O63 2640   6.204   1.242   2.144 -0.2777  0.3687  0.3114
    7CHTO   C96 2641   6.091   1.263   2.265 -0.8234  0.1773  0.4524
    7CHTO  H183 2642   6.064   1.368   2.261  2.6595  1.0631 -1.5951
    7CHTO   C98 2643   6.145   1.227   2.407  0.6054  0.5006  0.1235
    7CHTO  H185 2644   6.242   1.274   2.430  0.3340  0.0039  2.4390
    7CHTO   O67 2645   6.051   1.287   2.497  0.5963  0.2628 -0.0637
    7CHTO  H167 2646   6.087   1.285   2.584  1.7911  1.1183 -0.5257
    7CHTO  C102 2647   6.154   1.064   2.431 -0.0099  0.7530 -0.0433
    7CHTO  H189 2648   6.145   1.042   2.539 -1.7460 -0.3132 -0.3903
    7CHTO   N18 2649   6.282   1.004   2.392 -0.0721 -0.0414  0.0298
    7CHTO  H176 2650   6.349   1.003   2.477 -0.6194 -2.0665  0.4736
    7CHTO  H177 2651   6.264   0.900   2.366  1.9655 -0.5383  0.4791
    7CHTO  C105 2652   6.025   0.992   2.366 -0.6557  0.1243  0.1590
    7CHTO  H192 2653   6.056   0.931   2.281 -2.2830 -4.7787  2.8617
    7CHTO   O65 2654   5.926   1.085   2.318  0.1935 -0.1392 -0.5859
    7CHTO  C100 2655   5.962   1.183   2.222  0.4647 -0.2485  0.1840
    7CHTO  H187 2656   5.992   1.142   2.124  2.6711  0.9722  0.3174
    7CHTO  C107 2657   5.848   1.289   2.182 -0.2548  0.2108 -0.2470
    7CHTO   O70 2658   5.724   1.218   2.156  0.0792  0.0794  0.1681
    7CHTO  H170 2659   5.671   1.271   2.098 -1.1192  0.4341  1.5668
    7CHTO   O57 2660   5.960   0.900   2.484  0.0672  0.0333  0.4911
    7CHTO   C85 2661   5.974   0.757   2.492 -0.6228  0.3568 -0.1923
    7CHTO  H157 2662   6.039   0.731   2.406  1.4363  0.5767  1.2318
    7CHTO   C83 2663   5.828   0.703   2.470  0.3580 -0.5356  0.0489
    7CHTO  H155 2664   5.798   0.745   2.375  1.5878  1.6846  0.5911
    7CHTO   O56 2665   5.743   0.762   2.571  0.4466  0.3943  0.1767
    7CHTO  H135 2666   5.766   0.727   2.655 -1.7886 -1.1655  0.1724
    7CHTO   C81 2667   5.831   0.551   2.460  0.5626 -0.8800 -0.3760
    7CHTO  H153 2668   5.896   0.525   2.376  1.1900 -0.1358 -0.1235
    7CHTO   N14 2669   5.698   0.498   2.434  0.2435 -0.0324 -0.3443
    7CHTO  H141 2670   5.700   0.411   2.373 -1.3179  0.0045 -0.4872
    7CHTO  H142 2671   5.639   0.475   2.521  1.1511  1.5220  0.7115
    7CHTO   C79 2672   5.889   0.491   2.593 -0.3917 -0.0859 -0.3532
    7CHTO  H151 2673   5.904   0.384   2.581 -2.6492 -0.4554 -0.1617
    7CHTO   O52 2674   6.023   0.549   2.625  0.0298  0.1236  0.1662
    7CHTO   C86 2675   6.028   0.693   2.631  0.4189 -0.3113  0.9306
    7CHTO  H158 2676   5.968   0.718   2.720 -0.0013 -0.1631  0.6065
    7CHTO   C90 2677   6.172   0.745   2.656 -0.2327 -0.2742 -0.3378
    7CHTO   O60 2678   6.215   0.749   2.790 -0.3071  0.2791  0.6398
    7CHTO  H138 2679   6.293   0.706   2.818 -0.1412  1.7029  2.4989
    7CHTO   O50 2680   5.810   0.518   2.712  0.0655 -0.5616  0.6305
    7CHTO   C73 2681   5.798   0.423   2.814  0.2728 -0.4681 -0.3640
    7CHTO  H145 2682   5.888   0.360   2.807  0.3470 -0.3402 -0.5786
    7CHTO   C74 2683   5.675   0.320   2.788  0.2598 -0.1084  0.1315
    7CHTO  H146 2684   5.688   0.299   2.681 -0.9847 -0.3012  0.0129
    7CHTO   O54 2685   5.693   0.204   2.870 -0.3683  0.7181  0.2013
    7CHTO  H133 2686   5.782   0.176   2.864  0.6202  3.1598  2.4269
    7CHTO   C75 2687   5.546   0.409   2.809 -0.1526  0.4942 -0.8665
    7CHTO  H147 2688   5.535   0.487   2.732  0.4014  1.3545 -0.0795
    7CHTO   N13 2689   5.425   0.318   2.783  0.1807 -0.5869 -0.5714
    7CHTO  H139 2690   5.407   0.286   2.682  1.3981 -1.2207 -0.6023
    7CHTO  H140 2691   5.336   0.365   2.821  1.4474  1.1038  0.4126
    7CHTO   C76 2692   5.541   0.476   2.959 -0.2039 -0.1911  0.6102
    7CHTO  H148 2693   5.533   0.395   3.031 -2.3368  0.7989  1.5231
    7CHTO   O49 2694   5.667   0.553   2.982 -0.5102 -0.2569  0.0955
    7CHTO   C77 2695   5.788   0.479   2.958 -0.3163  0.3325 -0.6501
    7CHTO  H149 2696   5.791   0.398   3.031  1.7074  0.9372 -0.0459
    7CHTO   C88 2697   5.909   0.563   2.993 -0.6397 -0.0266 -0.1722
    7CHTO   O58 2698   5.907   0.565   3.127  0.6573 -0.3514  0.1117
    7CHTO  H136 2699   5.843   0.620   3.168  0.8887 -0.6774  0.9206
    7CHTO   O51 2700   5.425   0.577   2.979  0.1437  0.1178  0.1674
    7CHTO   C78 2701   5.379   0.593   3.116 -0.0250  0.0507 -0.2477
    7CHTO  H150 2702   5.450   0.544   3.186 -1.7699 -3.3031 -0.7132
    7CHTO   C80 2703   5.249   0.524   3.139 -0.4272 -0.4641 -0.2628
    7CHTO  H152 2704   5.169   0.571   3.077 -1.5430  0.2244  1.6382
    7CHTO   O55 2705   5.259   0.393   3.085 -0.1136  0.0126 -0.0661
    7CHTO  H134 2706   5.302   0.401   3.002  1.4331 -0.1050  0.7055
    7CHTO   C84 2707   5.204   0.529   3.291  0.2511  0.8615  0.1225
    7CHTO  H156 2708   5.285   0.483   3.347 -0.1088 -1.4294 -1.1634
    7CHTO   N15 2709   5.084   0.448   3.319  0.4383 -0.4937 -0.0162
    7CHTO  H143 2710   5.011   0.473   3.244  1.0101 -0.7299 -0.6505
    7CHTO  H144 2711   5.112   0.345   3.311 -0.6073 -0.9168  1.4514
    7CHTO   C87 2712   5.186   0.677   3.330 -0.3623 -0.5519  0.1502
    7CHTO  H159 2713   5.092   0.713   3.289 -2.2232 -0.8033  4.0522
    7CHTO   O53 2714   5.325   0.774   3.277 -0.5090  0.2917 -0.1398
    7CHTO   C82 2715   5.370   0.746   3.142 -0.6354 -0.4574 -0.2988
    7CHTO  H154 2716   5.293   0.782   3.074 -0.0138  2.0394  0.2824
    7CHTO   C89 2717   5.494   0.826   3.114  0.6361 -0.6136 -0.0235
    7CHTO   O59 2718   5.454   0.969   3.103  0.3964  0.9200 -0.3444
    7CHTO  H137 2719   5.448   1.014   3.185  2.3875 -0.5969  0.7066
    7CHTO   O45 2720   5.185   0.684   3.487 -1.1785 -0.3468 -0.3186
    7CHTO   C67 2721   5.233   0.790   3.563 -0.3149 -0.5282  0.0584
    7CHTO  H124 2722   5.317   0.843   3.518 -1.1063  1.3806  0.7979
    7CHTO   C65 2723   5.120   0.897   3.578  0.1355 -0.3786  0.1544
    7CHTO  H122 2724   5.024   0.847   3.566 -0.7467  0.9540  1.4795
    7CHTO   O44 2725   5.140   0.995   3.473  0.4331  0.1282 -0.0895
    7CHTO  H102 2726   5.068   0.995   3.412 -1.4692 -0.4586  2.1074
    7CHTO   C63 2727   5.112   0.960   3.722 -0.1936 -0.8569 -0.0297
    7CHTO  H120 2728   5.076   0.883   3.791 -1.6110 -0.4058 -0.2535
    7CHTO   N11 2729   5.025   1.081   3.742  0.2369 -0.6648  0.0796
    7CHTO  H108 2730   4.925   1.048   3.723 -0.3492 -0.1468  2.1456
    7CHTO  H109 2731   5.021   1.111   3.844  0.2069  2.4482 -0.7697
    7CHTO   C61 2732   5.258   0.983   3.775  0.4157 -1.3522 -0.3601
    7CHTO  H118 2733   5.251   1.027   3.875 -0.0137 -1.6626 -0.2493
    7CHTO   O40 2734   5.329   0.857   3.786 -0.2529  0.2100 -0.2659
    7CHTO   C68 2735   5.283   0.744   3.704  0.5155 -0.0729 -0.3065
    7CHTO  H125 2736   5.199   0.697   3.759 -0.8415  1.1399 -1.2949
    7CHTO   C72 2737   5.393   0.635   3.699  1.0712 -0.1347  0.1195
    7CHTO   O48 2738   5.517   0.669   3.644  0.4146 -0.2306 -0.4455
    7CHTO  H105 2739   5.574   0.703   3.711 -0.2879  1.0130 -0.4667
    7CHTO   O38 2740   5.324   1.084   3.690 -0.2830  0.4493 -0.1938
    7CHTO   C55 2741   5.462   1.117   3.714  0.4532  0.6068 -0.1949
    7CHTO  H112 2742   5.501   1.024   3.757 -0.0514  0.1044 -0.8082
    7CHTO   C56 2743   5.485   1.244   3.810  0.0422  0.3365 -0.1817
    7CHTO  H113 2744   5.430   1.321   3.755 -0.1458 -0.7220 -1.5129
    7CHTO   O42 2745   5.417   1.235   3.938  0.0316 -0.0482 -0.1294
    7CHTO  H100 2746   5.446   1.308   3.989 -1.7080  0.9515 -0.5395
    7CHTO   C57 2747   5.643   1.276   3.815  1.0228 -0.2620  0.0497
    7CHTO  H114 2748   5.708   1.209   3.871 -0.6347 -1.8653  0.1148
    7CHTO   N10 2749   5.667   1.407   3.886 -0.0410  0.1479 -0.7180
    7CHTO  H106 2750   5.765   1.406   3.930 -0.7436  1.5293  0.9650
    7CHTO  H107 2751   5.657   1.490   3.817 -0.3686  1.7723  1.2213
    7CHTO   C58 2752   5.699   1.284   3.672 -0.0710 -0.3386 -0.6421
    7CHTO  H115 2753   5.645   1.364   3.616 -1.8475 -0.7895  0.3967
    7CHTO   O37 2754   5.681   1.167   3.600  0.6975 -0.4026 -0.0207
    7CHTO   C59 2755   5.544   1.128   3.579  0.5452 -0.5815 -0.0812
    7CHTO  H116 2756   5.502   1.215   3.527 -0.0045 -0.7810  0.0234
    7CHTO   C70 2757   5.550   0.995   3.503  0.2739  0.0861  0.8395
    7CHTO   O46 2758   5.634   0.991   3.388  0.1210  0.2669  0.0080
    7CHTO  H103 2759   5.633   1.073   3.342 -2.2488 -0.7426 -1.8229
    7CHTO   O39 2760   5.863   1.307   3.684 -0.0448  0.5174  0.1184
    7CHTO   C60 2761   5.951   1.230   3.611  0.2504  0.4144  0.5150
    7CHTO  H117 2762   5.940   1.127   3.645 -2.6847  0.5783  0.1835
    7CHTO   C62 2763   5.930   1.248   3.456  0.0103 -0.8318  0.6280
    7CHTO  H119 2764   5.823   1.229   3.435  0.3154 -3.3018  1.1008
    7CHTO   O43 2765   5.952   1.383   3.407 -0.0587  0.2151 -0.4255
    7CHTO  H101 2766   6.045   1.387   3.397 -0.0708 -0.3735 -0.8370
    7CHTO   C66 2767   6.011   1.135   3.375 -0.4372  0.1581 -1.0981
    7CHTO  H123 2768   5.982   1.036   3.409  0.1909  0.0890 -0.7564
    7CHTO   N12 2769   5.967   1.140   3.232 -0.0262  0.3094  0.5194
    7CHTO  H110 2770   5.878   1.079   3.226 -0.3623  0.4542  3.3638
    7CHTO  H111 2771   5.972   1.236   3.183 -0.3402 -0.3334 -0.8019
    7CHTO   C69 2772   6.167   1.142   3.402 -0.2868  0.4324 -0.1425
    7CHTO  H126 2773   6.217   1.217   3.337  0.8126 -1.0647 -1.0666
    7CHTO   O41 2774   6.195   1.162   3.565 -0.3077  0.1857 -0.1176
    7CHTO   C64 2775   6.094   1.268   3.649  0.2335  0.0437  0.1580
    7CHTO  H121 2776   6.116   1.374   3.623 -1.6862  1.1592  2.8653
    7CHTO   C71 2777   6.122   1.254   3.797  0.3729 -0.2560  0.0673
    7CHTO   O47 2778   6.055   1.354   3.876 -0.0229  0.2569  0.5383
    7CHTO  H104 2779   6.112   1.427   3.893 -1.4071  2.2144 -2.7714
    7CHTO   O34 2780   6.205   1.002   3.366 -0.0036 -0.0938  0.2825
    7CHTO   C49 2781   6.270   0.876   3.287 -0.1045  0.3608 -0.1681
    7CHTO   H91 2782   6.323   0.829   3.370 -1.7071 -0.3265  0.4682
    7CHTO   C47 2783   6.380   0.935   3.197  0.0404  0.1192  0.5069
    7CHTO   H89 2784   6.470   0.929   3.262 -0.6524 -0.7582  1.3946
    7CHTO   O33 2785   6.355   1.069   3.158  0.6161  0.0011  0.3882
    7CHTO   H70 2786   6.310   1.114   3.226  3.2994  2.4563  0.6626
    7CHTO   C45 2787   6.391   0.848   3.064 -0.7303 -0.4473  0.2588
    7CHTO   H87 2788   6.308   0.869   2.995 -0.7466  1.6498  0.8932
    7CHTO    N8 2789   6.517   0.871   2.987 -0.2266 -0.0306 -0.2234
    7CHTO   H75 2790   6.525   0.826   2.889  1.2409 -0.1924 -0.0429
    7CHTO   H76 2791   6.594   0.825   3.047 -0.0255  0.1071 -0.3734
    7CHTO   C43 2792   6.367   0.693   3.095 -0.4570  0.0480  0.2046
    7CHTO   H85 2793   6.379   0.648   2.996 -0.2619  1.5367 -0.4551
    7CHTO   O29 2794   6.234   0.664   3.154  0.8015  0.8025  0.2706
    7CHTO   C50 2795   6.171   0.773   3.220  0.4365  0.7291  0.3445
    7CHTO   H92 2796   6.102   0.828   3.154 -0.9041 -1.0453  0.2477
    7CHTO   C54 2797   6.077   0.705   3.324  0.5900 -0.5053 -0.4816
    7CHTO   O36 2798   5.973   0.791   3.378  0.3891  0.1614 -0.1662
    7CHTO   H72 2799   5.905   0.799   3.315 -0.5148 -1.8264  0.4882
    7CHTO   O27 2800   6.478   0.640   3.174  0.3930 -0.4634 -0.1640
    7CHTO   C37 2801   6.532   0.526   3.226 -0.1405 -0.8439  0.0865
    7CHTO   H79 2802   6.497   0.519   3.330 -1.7750 -1.7802 -0.4971
    7CHTO   C38 2803   6.484   0.407   3.156  0.4022  0.1055 -0.2414
    7CHTO   H80 2804   6.495   0.415   3.047 -1.4453  0.0852 -0.4400
    7CHTO   O31 2805   6.346   0.393   3.190 -0.0297  0.1601  0.0700
    7CHTO   H68 2806   6.296   0.392   3.111 -0.4047 -2.2977  0.2859
    7CHTO   C39 2807   6.554   0.271   3.202  0.0844 -0.5507 -0.0781
    7CHTO   H81 2808   6.521   0.259   3.305  1.3788  1.3746  0.6004
    7CHTO    N7 2809   6.513   0.149   3.136  0.3365 -0.1167  0.4139
    7CHTO   H73 2810   6.471   0.070   3.198 -2.6973  0.1505 -1.1797
    7CHTO   H74 2811   6.588   0.115   3.067 -0.5606  0.8930 -1.0643
    7CHTO   C40 2812   6.706   0.293   3.187  0.0680  0.9045  0.0709
    7CHTO   H82 2813   6.737   0.309   3.084  2.2649  1.9844  0.8709
    7CHTO   O26 2814   6.742   0.405   3.269  0.6322  0.2237 -0.3565
    7CHTO   C41 2815   6.687   0.534   3.219  0.1444 -0.2714 -0.3735
    7CHTO   H83 2816   6.717   0.559   3.116 -0.6404 -0.1870 -0.5849
    7CHTO   C52 2817   6.746   0.653   3.313  0.2520 -0.1431 -0.2553
    7CHTO   O35 2818   6.713   0.775   3.250 -0.1858  0.6082 -0.0454
    7CHTO   H71 2819   6.767   0.791   3.175  2.0874  0.5181  1.5181
    7CHTO   O28 2820   6.794   0.192   3.240  0.2668  0.3783 -0.2893
    7CHTO   C42 2821   6.933   0.166   3.203  0.0115  0.3831 -0.3736
    7CHTO   H84 2822   6.965   0.110   3.291 -0.2538 -1.9155 -1.7012
    7CHTO   C44 2823   7.025   0.291   3.188 -0.2361  0.0002  0.8901
    7CHTO   H86 2824   6.992   0.353   3.104 -0.4211 -1.0514  0.1660
    7CHTO   O32 2825   6.997   0.360   3.307 -0.3940  0.2319  0.6036
    7CHTO   H69 2826   7.047   0.329   3.380 -0.2940 -1.5362 -0.2093
    7CHTO   C48 2827   7.179   0.256   3.163 -0.0143 -0.5579  0.2376
    7CHTO   H90 2828   7.221   0.195   3.242  1.5435  0.7837  0.4730
    7CHTO    N9 2829   7.264   0.374   3.178 -0.2561 -0.2189 -0.5186
    7CHTO   H77 2830   7.247   0.415   3.276 -0.0888 -0.0254 -0.5709
    7CHTO   H78 2831   7.263   0.442   3.094 -1.4596  0.0004 -0.3448
    7CHTO   C51 2832   7.190   0.182   3.026 -0.2839  0.1777 -0.0509
    7CHTO   H93 2833   7.137   0.242   2.952  1.3441  0.7017 -0.8198
    7CHTO   O30 2834   7.126   0.057   3.048  0.6460 -0.0708 -0.0050
    7CHTO   C46 2835   6.957   0.076   3.082 -0.0929  0.0565  0.0043
    7CHTO   H88 2836   6.913   0.113   2.989 -0.3936  1.2243  0.6005
    7CHTO   C53 2837   6.919  -0.073   3.111 -0.1042  0.1053  0.3138
    7CHTO   O72 2838   6.776  -0.082   3.147 -0.3780 -0.4336  0.2981
    7CHTO  H199 2839   6.721  -0.015   3.111 -1.0846  0.9485  3.8454
    7CHTO   O22 2840   7.323   0.156   2.981 -0.0412  0.4835  0.6005
    7CHTO   C31 2841   7.353   0.125   2.848 -0.1902 -0.7651  0.0309
    7CHTO   H59 2842   7.459   0.092   2.846  0.3786  0.9696  0.3802
    7CHTO   C29 2843   7.268   0.007   2.798 -0.1048 -0.1505  0.1479
    7CHTO   H57 2844   7.162   0.035   2.808 -0.4116 -0.6393 -1.4728
    7CHTO   O21 2845   7.305  -0.105   2.877  0.0904 -0.3245  0.4366
    7CHTO   H37 2846   7.268  -0.185   2.844  0.3298 -1.9054  3.7985
    7CHTO   C27 2847   7.295  -0.026   2.646  0.0495  0.2499 -0.4673
    7CHTO   H55 2848   7.398  -0.062   2.630  0.8635  1.3103  2.0944
    7CHTO    N5 2849   7.201  -0.128   2.595 -0.4463  0.0079  0.0904
    7CHTO   H43 2850   7.233  -0.146   2.493 -0.4556  2.0323 -0.2884
    7CHTO   H44 2851   7.106  -0.077   2.599 -1.4181 -1.6855 -0.8095
    7CHTO   C25 2852   7.291   0.108   2.560  0.0600 -0.2323 -0.0347
    7CHTO   H53 2853   7.189   0.144   2.581 -0.4117 -0.5165 -1.7844
    7CHTO   O17 2854   7.379   0.209   2.622  0.0083 -0.7395  0.5975
    7CHTO   C32 2855   7.346   0.252   2.755  0.6004 -0.0093  0.2859
    7CHTO   H60 2856   7.242   0.284   2.742  0.9804  0.1337 -2.9830
    7CHTO   C36 2857   7.445   0.357   2.808  0.3535 -0.4037  0.4719
    7CHTO   O25 2858   7.454   0.478   2.729  0.3224 -0.1710  0.2919
    7CHTO   H40 2859   7.517   0.530   2.775  1.3236  1.8861 -3.2309
    7CHTO   O15 2860   7.340   0.083   2.393  0.4056 -0.0304  0.4613
    7CHTO   C19 2861   7.265   0.160   2.290  0.6685  0.1199  0.0075
    7CHTO   H47 2862   7.310   0.126   2.196  0.0645 -0.4974 -0.0630
    7CHTO   C20 2863   7.109   0.147   2.294  0.2822  0.2057  0.3450
    7CHTO   H48 2864   7.067   0.191   2.386  1.6938  3.0704 -0.3301
    7CHTO   O19 2865   7.078   0.006   2.289 -0.4302  0.1157 -0.2384
    7CHTO   H35 2866   6.985  -0.000   2.280 -0.4288  0.6717 -0.6930
    7CHTO   C21 2867   7.041   0.226   2.178  0.2778  0.1597 -0.1051
    7CHTO   H49 2868   7.088   0.188   2.088 -0.8335 -0.9172 -0.2493
    7CHTO    N4 2869   6.895   0.213   2.174 -0.0178 -0.2078 -0.3710
    7CHTO   H41 2870   6.840   0.306   2.170  0.1244 -0.0274  1.2974
    7CHTO   H42 2871   6.865   0.148   2.255  0.2701  0.5192  0.3256
    7CHTO   C22 2872   7.081   0.371   2.203  0.1122 -0.7563 -0.2515
    7CHTO   H50 2873   7.042   0.402   2.300 -2.2382 -1.7321 -0.8588
    7CHTO   O14 2874   7.220   0.381   2.189  0.5406  0.0066 -0.7980
    7CHTO   C23 2875   7.292   0.320   2.297  0.1555  0.4134 -0.4759
    7CHTO   H51 2876   7.258   0.364   2.392 -1.8132 -1.7578 -0.1499
    7CHTO   C34 2877   7.439   0.351   2.270 -0.0336  0.6603  0.1601
    7CHTO   O23 2878   7.524   0.317   2.386 -0.7422  0.1659  0.0927
    7CHTO   H38 2879   7.500   0.345   2.473 -0.0913 -0.6757  0.5546
    7CHTO   O16 2880   7.029   0.459   2.098  0.0760 -0.2925  0.4327
    7CHTO   C24 2881   7.057   0.607   2.132  0.6185  0.6676  0.0436
    7CHTO   H52 2882   7.146   0.621   2.193 -0.1904 -0.1627  1.4447
    7CHTO   C26 2883   6.929   0.657   2.196  0.2339 -0.2847  0.4805
    7CHTO   H54 2884   6.845   0.639   2.125  0.4458  0.8285 -0.0720
    7CHTO   O20 2885   6.895   0.578   2.312  0.2030  0.1808 -0.1864
    7CHTO   H36 2886   6.857   0.494   2.296  2.1676 -0.2421 -2.9502
    7CHTO   C30 2887   6.952   0.810   2.229 -0.3967 -0.4794 -0.2927
    7CHTO   H58 2888   7.044   0.812   2.289 -1.0390  0.3549  0.6716
    7CHTO    N6 2889   6.836   0.871   2.299 -0.3898 -0.0852  0.3133
    7CHTO   H45 2890   6.865   0.957   2.357  0.5123  0.6416 -1.2013
    7CHTO   H46 2891   6.791   0.796   2.363  1.2835 -2.9119 -1.7147
    7CHTO   C33 2892   6.986   0.894   2.102  0.1287  0.6423 -0.5357
    7CHTO   H61 2893   6.903   0.896   2.030 -0.0384  3.4022 -0.3217
    7CHTO   O18 2894   7.097   0.825   2.037  0.4832 -0.1377  0.0978
    7CHTO   C28 2895   7.083   0.689   2.004  0.1090  0.9652  0.8358
    7CHTO   H56 2896   6.996   0.683   1.938  1.1524  2.9407 -0.7636
    7CHTO   C35 2897   7.212   0.651   1.935  0.6194 -0.0176  0.2244
    7CHTO   O24 2898   7.335   0.694   1.995 -0.2765 -0.5290  0.2526
    7CHTO   H39 2899   7.322   0.782   2.025  1.9076  0.7317 -2.3595
    7CHTO    O9 2900   7.014   1.033   2.125  0.0936  0.0298  0.2798
    7CHTO   C13 2901   7.173   1.078   2.183 -0.6843 -0.5968  0.4595
    7CHTO   H26 2902   7.241   1.042   2.103  0.6895  2.0990  0.3481
    7CHTO   C11 2903   7.208   1.021   2.325  0.1577  0.7385  0.7026
    7CHTO   H24 2904   7.216   0.912   2.313 -0.4811  1.0168 -2.9840
    7CHTO    O8 2905   7.106   1.051   2.425  0.3863 -0.1786 -0.0130
    7CHTO    H3 2906   7.149   1.030   2.505  0.3954 -2.2495 -0.5394
    7CHTO    C9 2907   7.354   1.072   2.367 -0.8046 -0.0854 -0.1647
    7CHTO   H22 2908   7.418   1.031   2.287 -1.1024  2.9481 -2.0531
    7CHTO    N2 2909   7.406   1.012   2.487 -0.0599  0.3496 -0.1552
    7CHTO   H10 2910   7.510   0.985   2.482 -0.4526 -1.0455 -1.1760
    7CHTO   H11 2911   7.386   1.077   2.571  1.3349  2.4384 -1.3808
    7CHTO    C7 2912   7.355   1.228   2.348 -0.0404  0.1736  0.1551
    7CHTO   H20 2913   7.426   1.241   2.264  1.3356 -0.5925  1.1630
    7CHTO    O4 2914   7.232   1.286   2.307 -0.2130  0.1049  0.7041
    7CHTO   C14 2915   7.184   1.238   2.180  0.2227  0.2786 -0.2120
    7CHTO   H27 2916   7.258   1.258   2.099  0.8951  1.9279  0.8049
    7CHTO   C18 2917   7.057   1.313   2.146 -0.7989 -0.5435  0.5483
    7CHTO   O13 2918   7.064   1.457   2.175  0.1215 -0.2576 -0.1220
    7CHTO    H7 2919   6.999   1.512   2.137 -0.1038  0.6484  1.5174
    7CHTO    O2 2920   7.407   1.308   2.483 -0.3159 -0.0141  0.5347
    7CHTO    C1 2921   7.475   1.430   2.448  0.3530  0.6584  0.5500
    7CHTO   H14 2922   7.445   1.456   2.345 -1.8312 -1.0729  0.7082
    7CHTO    C2 2923   7.630   1.434   2.462  0.3882  0.0718  0.0551
    7CHTO   H15 2924   7.636   1.395   2.564 -1.1249 -0.3652 -0.0051
    7CHTO    O6 2925   7.694   1.341   2.370 -0.3736 -0.2569  0.1634
    7CHTO    H1 2926   7.726   1.266   2.417  0.5359 -0.0524 -0.1170
    7CHTO    C3 2927   7.691   1.586   2.453 -0.5445  0.2152  0.1848
    7CHTO   H16 2928   7.675   1.613   2.348 -0.6695 -1.8334 -0.3394
    7CHTO    N1 2929   7.832   1.592   2.482 -0.1598  0.0223  0.0424
    7CHTO    H8 2930   7.877   1.687   2.455 -1.4548  0.9427  1.0876
    7CHTO    H9 2931   7.860   1.557   2.580  3.1550 -0.4091 -0.9791
    7CHTO    C4 2932   7.599   1.682   2.541 -0.1418 -0.1698  0.4578
    7CHTO   H17 2933   7.634   1.671   2.644  1.2748  0.8992  0.1153
    7CHTO    O1 2934   7.460   1.664   2.532 -0.2672  0.1335  0.0771
    7CHTO    C5 2935   7.394   1.535   2.543  0.1776 -0.0795 -0.4334
    7CHTO   H18 2936   7.399   1.505   2.648 -1.8042  0.2847 -0.2084
    7CHTO   C16 2937   7.244   1.560   2.507  0.1808 -0.1808  0.4761
    7CHTO   O11 2938   7.159   1.447   2.524  0.8340  0.2872  0.1111
    7CHTO    H5 2939   7.130   1.444   2.614 -0.6691 -1.2211 -0.4043
    7CHTO    O3 2940   7.612   1.820   2.499 -0.1340 -0.4890 -0.5458
    7CHTO    C6 2941   7.710   1.910   2.544  0.0545  0.4574 -0.0558
    7CHTO   H19 2942   7.780   1.859   2.610  1.6525  0.9934 -1.2775
    7CHTO    C8 2943   7.789   1.987   2.428  0.3538 -0.5028  0.1137
    7CHTO   H21 2944   7.718   2.044   2.367  0.4090  0.3000  0.7956
    7CHTO    O7 2945   7.850   1.890   2.344 -0.5244 -0.3901 -0.0284
    7CHTO    H2 2946   7.849   1.925   2.257  2.8554 -0.1237 -0.0402
    7CHTO   C12 2947   7.884   2.091   2.496  0.2714  0.2390  0.3523
    7CHTO   H25 2948   7.954   2.029   2.556  1.6963 -0.2152 -1.7196
    7CHTO    N3 2949   7.979   2.157   2.394 -0.2785  0.5450 -0.3276
    7CHTO   H12 2950   7.911   2.231   2.354 -0.6583 -0.4033 -1.4413
    7CHTO   H13 2951   8.068   2.194   2.443 -0.6174  1.4907 -0.4174
    7CHTO   C15 2952   7.793   2.181   2.582 -0.0476  0.5953  0.4224
    7CHTO   H28 2953   7.729   2.238   2.515  1.5174  1.2004 -0.6030
    7CHTO   O10 2954   7.887   2.285   2.669  0.7814  0.2773 -0.3666
    7CHTO    H4 2955   7.941   2.240   2.731 -3.0187 -0.6681  2.4234
    7CHTO    O5 2956   7.709   2.113   2.682  0.3036  0.4526 -0.3511
    7CHTO   C10 2957   7.627   2.013   2.631  0.4156  0.1317  0.3478
    7CHTO   H23 2958   7.556   2.060   2.563 -0.9358 -0.9028  1.0207
    7CHTO   C17 2959   7.535   1.950   2.741 -0.5258  0.2521 -0.0961
    7CHTO   O12 2960   7.510   2.044   2.841  0.5960 -0.2871 -0.9009
    7CHTO    H6 2961   7.511   1.997   2.922  3.5248  0.9501 -0.1259
    8CHTO  H203 2962   7.591   8.622   1.257 -0.9874 -1.4040  0.5329
    8CHTO   O82 2963   7.640   8.632   1.337  0.1836  0.2195 -0.3459
    8CHTO  C123 2964   7.553   8.633   1.447  0.2452  0.1887  0.1218
    8CHTO  H227 2965   7.606   8.673   1.534 -0.9369 -1.2341  1.5175
    8CHTO   O77 2966   7.453   8.742   1.421 -0.1035  0.4712  0.1887
    8CHTO  C118 2967   7.351   8.747   1.523 -0.3497 -0.5435 -0.1666
    8CHTO  H222 2968   7.411   8.759   1.614 -0.6576 -1.0574  0.1112
    8CHTO  C125 2969   7.269   8.879   1.490 -0.0851  0.1498  0.0179
    8CHTO   O84 2970   7.182   8.920   1.596  0.3413  0.6046 -0.2550
    8CHTO  H205 2971   7.170   9.012   1.583  1.6126  0.8728  0.3413
    8CHTO  C114 2972   7.266   8.621   1.520  0.0067 -0.2873 -0.4107
    8CHTO  H218 2973   7.230   8.608   1.418  0.5300 -1.4696 -0.4500
    8CHTO  C116 2974   7.362   8.503   1.554  0.4327  0.2664 -0.2578
    8CHTO  H220 2975   7.401   8.506   1.657 -0.4717  1.3484  0.0635
    8CHTO   O79 2976   7.289   8.380   1.552  0.2779 -0.1613 -0.0248
    8CHTO  H201 2977   7.261   8.353   1.637  1.3864 -1.2307  0.0044
    8CHTO  C120 2978   7.491   8.494   1.468 -0.0900  0.5527  0.1094
    8CHTO  H224 2979   7.457   8.454   1.370  2.9609  0.3158 -0.8798
    8CHTO   N21 2980   7.593   8.390   1.509  0.2215 -0.0917 -0.1207
    8CHTO  H211 2981   7.591   8.382   1.616  0.0586  0.9378 -0.0489
    8CHTO  H212 2982   7.695   8.411   1.479  0.3887  0.1133  0.5921
    8CHTO   O75 2983   7.164   8.631   1.622 -0.2741  0.1439 -0.1214
    8CHTO  C112 2984   7.021   8.541   1.594  0.1068  0.0607 -0.4458
    8CHTO  H216 2985   7.037   8.453   1.530 -1.0047 -0.1266 -0.4733
    8CHTO   O73 2986   6.936   8.634   1.535  0.5578 -0.3654 -0.1150
    8CHTO  C113 2987   6.805   8.583   1.509 -0.1897  0.5556 -0.1598
    8CHTO  H217 2988   6.819   8.493   1.446 -0.1681  0.3515  0.1305
    8CHTO  C124 2989   6.738   8.693   1.428 -0.5946 -0.2091  0.2178
    8CHTO   O83 2990   6.718   8.805   1.516  0.1629  0.0931 -0.4286
    8CHTO  H204 2991   6.690   8.884   1.474 -0.6951 -0.3692 -0.7386
    8CHTO  C109 2992   6.725   8.535   1.642 -0.4438 -0.2244  0.0845
    8CHTO  H213 2993   6.716   8.623   1.707  1.7007  0.9531 -1.1695
    8CHTO  C110 2994   6.817   8.429   1.710  0.0200  0.5431  0.6450
    8CHTO  H214 2995   6.819   8.340   1.647 -1.8961 -0.2572  1.6879
    8CHTO   O78 2996   6.750   8.396   1.830  0.0115  0.0857  0.2074
    8CHTO  H200 2997   6.811   8.355   1.888  0.0830 -2.2333 -1.4362
    8CHTO  C111 2998   6.961   8.490   1.733  0.1255 -0.1536 -0.0581
    8CHTO  H215 2999   6.953   8.574   1.803 -0.2412 -0.7219  0.5799
    8CHTO   N19 3000   7.054   8.387   1.792  0.2820 -0.2349  0.6078
    8CHTO  H207 3001   7.026   8.355   1.891  1.3973 -0.0403  1.0003
    8CHTO  H208 3002   7.160   8.409   1.786  0.1742 -0.0018 -0.6065
    8CHTO   O74 3003   6.589   8.489   1.614 -0.3537  0.4380  0.0109
    8CHTO  C115 3004   6.467   8.549   1.684 -0.2919 -0.2647 -0.2029
    8CHTO  H219 3005   6.409   8.473   1.737  0.2463  0.5255  1.5465
    8CHTO   O76 3006   6.512   8.656   1.806 -0.2233 -0.4366 -0.1104
    8CHTO  C122 3007   6.396   8.715   1.869 -0.2989 -0.1134  0.0678
    8CHTO  H226 3008   6.434   8.813   1.897 -0.6239  0.1466 -0.4011
    8CHTO  C126 3009   6.372   8.641   2.007 -0.1652  0.1116  0.2740
    8CHTO   O85 3010   6.355   8.500   1.999 -0.1884  0.4960 -0.0236
    8CHTO  H206 3011   6.428   8.464   1.953  1.4811  3.5845  0.0373
    8CHTO  C121 3012   6.266   8.736   1.771  0.6737 -0.5517  0.0132
    8CHTO  H225 3013   6.197   8.649   1.778 -0.8260  0.5480 -0.7323
    8CHTO   O81 3014   6.192   8.857   1.798 -0.2242  0.4385 -0.5164
    8CHTO  H202 3015   6.221   8.939   1.763  0.4814  1.3001  1.9562
    8CHTO  C119 3016   6.317   8.748   1.623  0.2147  0.1122  1.2536
    8CHTO  H223 3017   6.234   8.783   1.561 -0.5443 -3.0862  0.3902
    8CHTO  C117 3018   6.380   8.619   1.567 -0.5070  0.3651  0.2215
    8CHTO  H221 3019   6.442   8.630   1.478 -1.3311 -1.0710 -0.5544
    8CHTO   N20 3020   6.274   8.523   1.518  0.0160 -1.0448 -0.1679
    8CHTO  H209 3021   6.205   8.496   1.597  1.1406  0.3933  1.3481
    8CHTO  H210 3022   6.305   8.434   1.466 -4.5988 -1.1799 -2.9904
    8CHTO   O80 3023   6.416   8.860   1.601  0.0494 -0.6926 -0.2165
    8CHTO  C103 3024   6.362   9.024   1.569  0.3493 -0.0541 -0.0803
    8CHTO  H190 3025   6.254   9.030   1.577  0.4265  3.8898 -0.9882
    8CHTO  C101 3026   6.429   9.138   1.647 -0.2576 -0.6091  0.3242
    8CHTO  H188 3027   6.537   9.122   1.646 -0.2659 -0.6053 -2.7436
    8CHTO   O68 3028   6.364   9.136   1.788 -0.2180  0.0966 -0.3989
    8CHTO  H168 3029   6.358   9.047   1.819 -1.2352  0.1252 -0.5030
    8CHTO   C99 3030   6.407   9.277   1.574 -0.0922  0.7486 -0.3467
    8CHTO  H186 3031   6.297   9.289   1.568 -0.2199 -1.2814 -2.5876
    8CHTO   N17 3032   6.461   9.391   1.648  0.2012 -0.0445  0.1787
    8CHTO  H174 3033   6.567   9.392   1.628 -0.0375  0.9180 -1.1167
    8CHTO  H175 3034   6.436   9.387   1.753  0.5823  2.3131  0.3957
    8CHTO   C97 3035   6.453   9.271   1.425 -0.1327 -0.0207  0.3064
    8CHTO  H184 3036   6.563   9.265   1.422 -0.1393  0.6904 -1.5980
    8CHTO   O64 3037   6.390   9.166   1.348  0.5136 -0.5640 -0.3693
    8CHTO  C104 3038   6.400   9.041   1.418  0.5193  0.4137 -0.6189
    8CHTO  H191 3039   6.504   9.007   1.409  0.6607  0.6318  0.1200
    8CHTO  C108 3040   6.313   8.936   1.349 -0.3416 -0.2947  0.3829
    8CHTO   O71 3041   6.367   8.910   1.219 -0.2543 -0.2955  0.2577
    8CHTO  H171 3042   6.302   8.898   1.152 -0.8883 -1.6741  1.1066
    8CHTO   O62 3043   6.393   9.380   1.354 -0.2853 -0.0911  0.4190
    8CHTO   C91 3044   6.475   9.432   1.248 -0.2486 -0.6565  0.0510
    8CHTO  H178 3045   6.565   9.370   1.241 -0.7082 -1.1956 -1.2472
    8CHTO   C92 3046   6.544   9.567   1.291  0.8306  0.3458  0.0757
    8CHTO  H179 3047   6.470   9.639   1.329 -1.3792 -0.3839 -2.6771
    8CHTO   O66 3048   6.630   9.547   1.404  0.3488 -0.6804  0.7530
    8CHTO  H166 3049   6.697   9.612   1.417  1.9034 -1.7641 -1.5174
    8CHTO   C93 3050   6.619   9.650   1.173 -0.1842 -0.8535 -0.0612
    8CHTO  H180 3051   6.701   9.581   1.148 -0.1385 -0.1562 -1.9263
    8CHTO   N16 3052   6.672   9.785   1.195 -0.7546  0.1311 -0.1860
    8CHTO  H172 3053   6.651   9.824   1.294 -0.8562  1.1600 -0.6047
    8CHTO  H173 3054   6.778   9.800   1.177 -0.2385 -1.7914  1.1254
    8CHTO   C94 3055   6.524   9.653   1.048  0.1950  0.1261  0.0338
    8CHTO  H181 3056   6.431   9.704   1.074 -1.0852 -2.4672  0.7367
    8CHTO   O61 3057   6.489   9.516   1.022 -0.3609  0.2468  0.2119
    8CHTO   C95 3058   6.400   9.453   1.112  0.2099  0.3423 -0.2867
    8CHTO  H182 3059   6.316   9.520   1.130  0.3446  0.1425  1.1886
    8CHTO  C106 3060   6.347   9.318   1.053 -0.5428 -0.5275 -0.1825
    8CHTO   O69 3061   6.241   9.269   1.133 -0.7413 -0.1928  0.3807
    8CHTO  H169 3062   6.286   9.232   1.207 -1.5271  2.3026  2.1637
    8CHTO   O63 3063   6.586   9.741   0.915 -0.0272 -0.0485 -0.0845
    8CHTO   C96 3064   6.480   9.731   0.780  0.0613 -0.4559 -0.2787
    8CHTO  H183 3065   6.423   9.640   0.797 -0.4416 -0.5947 -2.6076
    8CHTO   C98 3066   6.567   9.721   0.653  0.9280  0.1076  0.4250
    8CHTO  H185 3067   6.632   9.810   0.648  1.6451 -0.5110 -1.8284
    8CHTO   O67 3068   6.652   9.604   0.664  0.1126 -0.3482  0.5051
    8CHTO  H167 3069   6.674   9.566   0.582  1.5633 -0.0856  0.7662
    8CHTO  C102 3070   6.472   9.711   0.528  0.1631 -0.4087 -0.0673
    8CHTO  H189 3071   6.413   9.620   0.546  0.6522 -1.6784 -4.2056
    8CHTO   N18 3072   6.542   9.681   0.400 -0.5486  0.4473 -0.1855
    8CHTO  H176 3073   6.562   9.575   0.392  0.9090  0.7666 -0.9372
    8CHTO  H177 3074   6.640   9.725   0.410  0.2128 -1.3877  0.7539
    8CHTO  C105 3075   6.382   9.834   0.524 -0.0426 -0.2630  0.0366
    8CHTO  H192 3076   6.441   9.922   0.499  3.3099 -2.4042  0.0322
    8CHTO   O65 3077   6.312   9.858   0.649  0.2926  0.5179 -0.0360
    8CHTO  C100 3078   6.380   9.855   0.776  0.1262  0.4359 -0.3411
    8CHTO  H187 3079   6.438   9.948   0.783  0.3015  0.2827  0.3521
    8CHTO  C107 3080   6.275   9.844   0.879 -0.1118  0.5433 -0.2844
    8CHTO   O70 3081   6.313   9.919   0.993  0.0843  0.5195  0.5586
    8CHTO  H170 3082   6.250   9.927   1.062 -0.9035  2.5189 -0.5010
    8CHTO   O57 3083   6.263   9.815   0.415 -0.2090  0.4710 -0.2404
    8CHTO   C85 3084   6.200   9.937   0.356 -1.3824  0.1696 -0.1221
    8CHTO  H157 3085   6.285   9.986   0.305 -1.5928  1.8328  1.0960
    8CHTO   C83 3086   6.144  10.041   0.463  0.6452 -0.3056 -0.4883
    8CHTO  H155 3087   6.232  10.069   0.522  0.3397 -0.3352 -0.0110
    8CHTO   O56 3088   6.058   9.970   0.555  0.3191  0.2034 -0.5665
    8CHTO  H135 3089   6.014  10.027   0.615 -1.4890 -1.8233  0.1028
    8CHTO   C81 3090   6.083  10.162   0.388 -0.5667 -0.2050  0.2530
    8CHTO  H153 3091   6.158  10.193   0.315 -0.1911 -0.0076  0.7148
    8CHTO   N14 3092   6.064  10.272   0.480 -0.1110 -1.0321 -0.1146
    8CHTO  H141 3093   6.015  10.353   0.429 -1.3696 -1.2179  0.7700
    8CHTO  H142 3094   5.998  10.240   0.558  0.9926 -1.0047  0.8316
    8CHTO   C79 3095   5.959  10.116   0.310 -0.0881  0.0062  0.8150
    8CHTO  H151 3096   5.932  10.203   0.250  0.8792  0.3016  0.7894
    8CHTO   O52 3097   5.990  10.010   0.218  0.4585  0.2742 -0.6405
    8CHTO   C86 3098   6.085   9.907   0.255  0.0313  0.0317  0.4079
    8CHTO  H158 3099   6.022   9.824   0.291 -0.5561 -0.3577 -1.4538
    8CHTO   C90 3100   6.154   9.856   0.125  0.5941  0.0651 -0.3073
    8CHTO   O60 3101   6.062   9.792   0.035 -0.5468 -0.2476  0.0662
    8CHTO  H138 3102   6.031   9.706   0.058 -0.3831 -0.9796 -2.2716
    8CHTO   O50 3103   5.844  10.077   0.385 -0.3451  0.2591 -0.0574
    8CHTO   C73 3104   5.702  10.044   0.392  0.0953 -0.5200 -0.0332
    8CHTO  H145 3105   5.658   9.987   0.309 -0.0859 -1.8921  0.9828
    8CHTO   C74 3106   5.629  10.183   0.411  0.3959 -0.7898  0.6164
    8CHTO  H146 3107   5.648  10.250   0.326  1.7015 -0.7326  0.9512
    8CHTO   O54 3108   5.489  10.150   0.403 -0.2455  0.1999  0.1695
    8CHTO  H133 3109   5.456  10.117   0.322 -1.9654  1.0573  0.4988
    8CHTO   C75 3110   5.662  10.250   0.551  0.1328 -0.0597 -0.1860
    8CHTO  H147 3111   5.767  10.281   0.543 -0.1670  0.8244 -0.6814
    8CHTO   N13 3112   5.578  10.367   0.584 -0.3981  0.1797 -0.5204
    8CHTO  H139 3113   5.611  10.445   0.518  0.4142 -0.5456 -0.9790
    8CHTO  H140 3114   5.475  10.338   0.567  0.7661 -3.9139 -1.1778
    8CHTO   C76 3115   5.641  10.138   0.671 -0.1592  0.2058 -0.4040
    8CHTO  H148 3116   5.539  10.103   0.687  0.0582  0.2623  1.2491
    8CHTO   O49 3117   5.722  10.020   0.637 -0.1776  0.0246  0.6926
    8CHTO   C77 3118   5.676   9.954   0.517 -0.5854  0.2714  0.1178
    8CHTO  H149 3119   5.574   9.918   0.512  0.0683 -1.2976 -4.2411
    8CHTO   C88 3120   5.748   9.820   0.496 -0.2434 -0.2055 -0.9321
    8CHTO   O58 3121   5.688   9.731   0.399 -0.4038 -0.0827  0.2654
    8CHTO  H136 3122   5.634   9.672   0.448  0.3893  0.3819  1.7205
    8CHTO   O51 3123   5.694  10.198   0.827  0.3781 -0.0463  0.0032
    8CHTO   C78 3124   5.720  10.079   0.935  0.3102  0.1410  0.6648
    8CHTO  H150 3125   5.718   9.976   0.894  0.1119  0.4570 -0.1302
    8CHTO   C80 3126   5.618  10.088   1.056  0.0228  0.0274  0.2256
    8CHTO  H152 3127   5.616  10.193   1.092 -0.2396  0.7590 -1.8337
    8CHTO   O55 3128   5.493  10.045   1.002 -1.0474  0.1748 -0.5711
    8CHTO  H134 3129   5.451  10.108   0.946 -3.5216 -0.3497  0.6361
    8CHTO   C84 3130   5.655   9.996   1.179 -0.4470 -0.3019  1.0727
    8CHTO  H156 3131   5.651   9.889   1.160 -0.1517 -0.0661 -0.3005
    8CHTO   N15 3132   5.559  10.001   1.297  0.2007  0.8106  0.0260
    8CHTO  H143 3133   5.601   9.956   1.385 -1.2733  0.1001  0.3806
    8CHTO  H144 3134   5.536  10.103   1.315 -0.6053  0.4174  1.2776
    8CHTO   C87 3135   5.805  10.033   1.218  0.6551  0.1531  0.0764
    8CHTO  H159 3136   5.817  10.135   1.252  0.6571  0.3958 -0.6506
    8CHTO   O53 3137   5.901  10.022   1.086 -0.1082 -0.1196 -0.2659
    8CHTO   C82 3138   5.861  10.102   0.979  0.2532 -0.0084  0.9927
    8CHTO  H154 3139   5.880  10.204   1.012 -2.1004  1.8082 -2.9307
    8CHTO   C89 3140   5.950  10.079   0.853 -0.4886  0.0277  0.3174
    8CHTO   O59 3141   6.083  10.127   0.878  0.6793 -0.3265 -0.1425
    8CHTO  H137 3142   6.075  10.218   0.896 -1.3390 -0.7587  1.3735
    8CHTO   O45 3143   5.874   9.936   1.337 -0.7337  0.6397 -0.0270
    8CHTO   C67 3144   5.879   9.795   1.299 -0.0165 -0.3470 -0.3174
    8CHTO  H124 3145   5.840   9.787   1.198 -1.4101 -2.0306  0.3401
    8CHTO   C65 3146   6.028   9.750   1.304 -0.0401 -0.1711  0.7732
    8CHTO  H122 3147   6.074   9.838   1.262 -1.6916  0.2878 -0.1331
    8CHTO   O44 3148   6.037   9.631   1.219  0.3731 -0.2950  0.1379
    8CHTO  H102 3149   5.959   9.587   1.192  0.5418 -2.2403  2.5468
    8CHTO   C63 3150   6.077   9.737   1.446 -0.2372 -0.1324  0.8579
    8CHTO  H120 3151   6.063   9.832   1.498 -0.4413  0.4938 -0.3345
    8CHTO   N11 3152   6.223   9.719   1.465  0.2171  0.1624  0.1284
    8CHTO  H108 3153   6.270   9.800   1.516  1.1921 -0.9267  0.9704
    8CHTO  H109 3154   6.256   9.633   1.519  1.6038 -0.1240 -1.1445
    8CHTO   C61 3155   5.996   9.628   1.528  0.0519 -0.4993  0.6916
    8CHTO  H118 3156   6.023   9.639   1.634  0.0864 -1.4681  0.7814
    8CHTO   O40 3157   5.850   9.659   1.519 -0.1738  0.0738  0.5971
    8CHTO   C68 3158   5.785   9.713   1.391 -0.6436  0.2305  0.6510
    8CHTO  H125 3159   5.704   9.773   1.437 -0.1285  2.0203 -0.7589
    8CHTO   C72 3160   5.715   9.596   1.316 -0.5391  0.5318  0.3383
    8CHTO   O48 3161   5.607   9.536   1.392 -0.0955  0.4186  0.5576
    8CHTO  H105 3162   5.535   9.511   1.339  0.2804 -1.6519  0.9875
    8CHTO   O38 3163   6.025   9.493   1.481  0.3752  0.3543 -0.5431
    8CHTO   C55 3164   5.939   9.383   1.530  0.0323 -0.0253  0.5951
    8CHTO  H112 3165   5.835   9.396   1.500  0.0988 -0.8105 -0.0036
    8CHTO   C56 3166   5.953   9.362   1.686 -0.4503  0.6004 -0.3532
    8CHTO  H113 3167   6.058   9.380   1.714 -0.6872 -0.0851  1.0266
    8CHTO   O42 3168   5.880   9.464   1.758 -0.4123 -0.5687 -0.2050
    8CHTO  H100 3169   5.917   9.550   1.753  1.5029 -1.2252  1.9043
    8CHTO   C57 3170   5.902   9.219   1.733  0.5441 -0.5681  0.3421
    8CHTO  H114 3171   5.793   9.208   1.732  0.6018 -1.1479  0.3671
    8CHTO   N10 3172   5.952   9.187   1.870  0.2567 -0.5414  0.6578
    8CHTO  H106 3173   5.891   9.113   1.921  1.7836 -1.6961  0.8570
    8CHTO  H107 3174   6.053   9.149   1.869  1.2906  2.1777  0.1995
    8CHTO   C58 3175   5.957   9.108   1.636  0.4478 -0.1102  0.1398
    8CHTO  H115 3176   6.067   9.090   1.641  0.1879 -2.7103 -1.9961
    8CHTO   O37 3177   5.909   9.149   1.505 -0.3321  0.0847 -0.0758
    8CHTO   C59 3178   5.988   9.260   1.457 -0.2486  0.7994 -0.1559
    8CHTO  H116 3179   6.093   9.235   1.471 -0.6253  0.1609  1.7137
    8CHTO   C70 3180   5.956   9.261   1.306  1.0624  0.0218  0.6033
    8CHTO   O46 3181   5.818   9.280   1.281  0.6859 -0.2207 -0.8035
    8CHTO  H103 3182   5.808   9.333   1.204  0.8927 -0.0962 -0.7443
    8CHTO   O39 3183   5.896   8.941   1.651  0.3761  0.5869  0.4278
    8CHTO   C60 3184   5.753   8.919   1.626 -0.0890  0.2157 -0.0816
    8CHTO  H117 3185   5.703   9.011   1.656 -2.0940 -1.3733  1.5367
    8CHTO   C62 3186   5.711   8.893   1.481  0.7174  0.8163 -0.0618
    8CHTO  H119 3187   5.750   8.979   1.422  0.4748  1.5094  0.7831
    8CHTO   O43 3188   5.779   8.780   1.426 -0.1409  0.1015  0.4076
    8CHTO  H101 3189   5.866   8.765   1.458  0.0003  1.6850  0.8471
    8CHTO   C66 3190   5.548   8.881   1.479 -0.2569  1.0421  0.2075
    8CHTO  H123 3191   5.506   8.979   1.500  0.8862  1.5526  0.1642
    8CHTO   N12 3192   5.503   8.858   1.341 -0.5048 -0.0681  0.3276
    8CHTO  H110 3193   5.556   8.770   1.306  2.0958  0.8092  1.9663
    8CHTO  H111 3194   5.398   8.844   1.318  0.0278  1.1453 -3.0188
    8CHTO   C69 3195   5.496   8.775   1.580  0.1990 -0.2584 -0.4664
    8CHTO  H126 3196   5.521   8.672   1.550  0.1342  0.0646 -1.6762
    8CHTO   O41 3197   5.563   8.796   1.718 -0.0103 -0.3335 -0.2813
    8CHTO   C64 3198   5.708   8.805   1.720  0.1709  0.0798  0.1219
    8CHTO  H121 3199   5.758   8.715   1.679 -1.4585 -1.1394  0.7269
    8CHTO   C71 3200   5.748   8.827   1.868 -0.0394  0.0259 -0.2613
    8CHTO   O47 3201   5.681   8.940   1.921  0.2371 -0.3655 -0.2268
    8CHTO  H104 3202   5.718   9.019   1.887 -0.3671 -0.2550 -0.6551
    8CHTO   O34 3203   5.353   8.795   1.596 -0.8803  0.1818 -0.0136
    8CHTO   C49 3204   5.269   8.877   1.688 -0.2553 -0.4089  0.1820
    8CHTO   H91 3205   5.275   8.828   1.786  0.7455  1.4092  1.0690
    8CHTO   C47 3206   5.124   8.862   1.637  0.2144 -0.5213  0.4851
    8CHTO   H89 3207   5.064   8.909   1.717 -0.7037  0.3748 -0.6961
    8CHTO   O33 3208   5.081   8.721   1.638  0.2624 -0.3154  0.2053
    8CHTO   H70 3209   4.990   8.710   1.659  0.5091 -2.1649  0.4053
    8CHTO   C45 3210   5.109   8.950   1.504 -0.0972 -0.3327  0.4741
    8CHTO   H87 3211   5.177   8.912   1.427  0.1966 -0.2474  0.6902
    8CHTO    N8 3212   4.974   8.936   1.446 -0.0228 -0.3216  0.6774
    8CHTO   H75 3213   4.942   8.834   1.460 -2.4744  0.3431  0.1264
    8CHTO   H76 3214   4.912   9.009   1.497  2.1250  0.7219  1.8742
    8CHTO   C43 3215   5.157   9.104   1.526  0.3997  0.2100 -0.6150
    8CHTO   H85 3216   5.153   9.154   1.429 -1.8212 -0.1343 -0.7283
    8CHTO   O29 3217   5.291   9.114   1.587  0.5776  0.3251 -0.0057
    8CHTO   C50 3218   5.315   9.026   1.701 -0.2839  0.4584 -0.4261
    8CHTO   H92 3219   5.423   9.028   1.721 -0.1077 -0.9576 -1.2244
    8CHTO   C54 3220   5.259   9.088   1.831 -0.0742  0.7850 -0.5801
    8CHTO   O36 3221   5.278   9.018   1.961 -0.5468 -0.2149 -0.2172
    8CHTO   H72 3222   5.298   9.080   2.028  2.4222 -1.7385  0.3968
    8CHTO   O27 3223   5.061   9.177   1.602 -0.0524 -0.0528 -0.5119
    8CHTO   C37 3224   5.021   9.314   1.627 -0.4089 -0.5976 -0.1059
    8CHTO   H79 3225   4.966   9.323   1.723  1.1814 -0.8809  0.8461
    8CHTO   C38 3226   5.141   9.418   1.636  0.4057 -0.0244 -0.4399
    8CHTO   H80 3227   5.193   9.407   1.540  1.3018  2.9690 -0.3321
    8CHTO   O31 3228   5.226   9.377   1.750 -0.2572 -0.9115  0.3203
    8CHTO   H68 3229   5.191   9.379   1.837 -0.3618 -0.6651  0.2731
    8CHTO   C39 3230   5.095   9.573   1.652 -0.7803  0.1258  0.3631
    8CHTO   H81 3231   5.042   9.585   1.747 -2.2056  0.4760 -0.4641
    8CHTO    N7 3232   5.207   9.670   1.659  0.3078  0.7063  0.2489
    8CHTO   H73 3233   5.277   9.650   1.739 -0.5354 -1.0643  0.5646
    8CHTO   H74 3234   5.162   9.767   1.677 -2.1958 -0.1340 -1.3475
    8CHTO   C40 3235   4.985   9.609   1.546 -0.0314 -0.2208  0.0319
    8CHTO   H82 3236   5.030   9.622   1.448 -0.3817 -1.5271 -0.3111
    8CHTO   O26 3237   4.881   9.506   1.542  0.1206  0.3231  0.5327
    8CHTO   C41 3238   4.930   9.367   1.508  0.4614  1.2299  0.4467
    8CHTO   H83 3239   4.980   9.381   1.411  0.8302  2.5838  0.8158
    8CHTO   C52 3240   4.802   9.281   1.479 -0.7115 -0.2073 -0.0631
    8CHTO   O35 3241   4.774   9.301   1.340 -0.1181  0.4416 -0.1409
    8CHTO   H71 3242   4.702   9.361   1.335 -1.8412 -1.4393  0.9608
    8CHTO   O28 3243   4.909   9.731   1.573 -0.1646 -0.1007  0.2344
    8CHTO   C42 3244   4.858   9.815   1.466 -0.2624 -0.6391  0.4714
    8CHTO   H84 3245   4.818   9.902   1.518  5.5220  1.8745  1.1261
    8CHTO   C44 3246   4.738   9.744   1.389  0.9094  0.4604  0.0244
    8CHTO   H86 3247   4.771   9.648   1.349  0.3759  0.8908 -1.4950
    8CHTO   O32 3248   4.646   9.703   1.487 -0.1089 -0.1802 -0.2109
    8CHTO   H69 3249   4.573   9.665   1.441 -0.3746  1.4519 -1.2004
    8CHTO   C48 3250   4.684   9.829   1.271 -0.3138  0.4802  0.2466
    8CHTO   H90 3251   4.637   9.922   1.302 -1.6596 -0.8645  2.3695
    8CHTO    N9 3252   4.577   9.762   1.199  0.2339  0.3356 -0.2732
    8CHTO   H77 3253   4.605   9.740   1.097  0.3507 -3.6170  0.5426
    8CHTO   H78 3254   4.560   9.678   1.264 -0.3257  0.9058  0.3196
    8CHTO   C51 3255   4.802   9.864   1.177 -0.4866 -0.6027  0.9640
    8CHTO   H93 3256   4.842   9.774   1.130  2.2897  0.1458  1.7826
    8CHTO   O30 3257   4.906   9.933   1.251  0.1432 -0.0582 -0.3499
    8CHTO   C46 3258   4.958   9.868   1.360  0.3676  0.3307  0.1313
    8CHTO   H88 3259   5.007   9.778   1.323 -0.3983  0.4717 -1.2324
    8CHTO   C53 3260   5.060   9.957   1.443  0.1869 -0.3969 -0.2205
    8CHTO   O72 3261   5.168   9.983   1.358 -0.7673 -0.0034  0.1009
    8CHTO  H199 3262   5.243   9.944   1.399 -0.4070  0.1858 -0.3669
    8CHTO   O22 3263   4.749   9.961   1.085 -0.5238  0.5332  0.6394
    8CHTO   C31 3264   4.815  10.003   0.959  0.2462 -0.4343  0.0766
    8CHTO   H59 3265   4.747  10.080   0.918  0.2097 -0.2445  0.4900
    8CHTO   C29 3266   4.949  10.065   0.979 -0.5261 -0.2825 -0.0550
    8CHTO   H57 3267   5.005   9.990   1.036  0.0326  0.3950  0.3102
    8CHTO   O21 3268   4.943  10.183   1.062 -0.2447  0.1699 -0.4133
    8CHTO   H37 3269   4.904  10.252   1.012  0.6121  0.4944 -0.6293
    8CHTO   C27 3270   5.028  10.096   0.846  0.1832  0.3271 -0.3819
    8CHTO   H55 3271   4.970  10.170   0.789  0.7961  1.7296  0.8012
    8CHTO    N5 3272   5.168  10.140   0.863 -0.2066 -0.0259 -0.3389
    8CHTO   H43 3273   5.244  10.064   0.866 -1.0484 -0.8207  0.8572
    8CHTO   H44 3274   5.190  10.222   0.795  0.3023  0.6446  0.6167
    8CHTO   C25 3275   5.029   9.962   0.760  0.2862 -0.5791 -0.3461
    8CHTO   H53 3276   5.069   9.884   0.827  1.4129 -1.8725 -2.4725
    8CHTO   O17 3277   4.893   9.922   0.738  0.2252  0.8074 -0.4386
    8CHTO   C32 3278   4.819   9.887   0.863  0.0179 -0.6275 -0.3568
    8CHTO   H60 3279   4.860   9.800   0.914 -0.9133  0.0238  1.5548
    8CHTO   C36 3280   4.673   9.844   0.822 -0.4358  0.1074  0.5944
    8CHTO   O25 3281   4.679   9.722   0.735 -0.2146 -0.0677 -0.5665
    8CHTO   H40 3282   4.620   9.657   0.769 -0.4192  0.0098 -0.7688
    8CHTO   O15 3283   5.091   9.983   0.629 -0.4293 -0.9035 -0.1484
    8CHTO   C19 3284   5.135   9.922   0.504 -1.0179  0.0887 -0.2115
    8CHTO   H47 3285   5.067   9.836   0.497 -0.5223 -0.4607  1.3302
    8CHTO   C20 3286   5.116  10.010   0.372  0.5631  0.3564 -0.0928
    8CHTO   H48 3287   5.163  10.109   0.385  0.5450  0.6055 -1.8438
    8CHTO   O19 3288   4.977  10.022   0.371  0.2896 -0.1591 -0.4223
    8CHTO   H35 3289   4.945  10.077   0.440  1.9591 -1.4344  1.4675
    8CHTO   C21 3290   5.155   9.942   0.240  0.1528 -0.8907  0.2010
    8CHTO   H49 3291   5.082   9.866   0.212  2.9712 -3.1700 -1.2003
    8CHTO    N4 3292   5.161  10.038   0.122  0.1574 -0.3399 -0.4212
    8CHTO   H41 3293   5.255  10.082   0.093  0.1690  1.0160  1.6020
    8CHTO   H42 3294   5.121   9.983   0.038 -0.5910 -0.4607  0.0162
    8CHTO   C22 3295   5.295   9.871   0.253  0.4871 -0.7543  0.0148
    8CHTO   H50 3296   5.379   9.941   0.253  0.5507 -0.8268  0.6275
    8CHTO   O14 3297   5.300   9.792   0.372 -0.3160  0.1929  0.0485
    8CHTO   C23 3298   5.280   9.858   0.499 -0.4186  0.3166  0.3278
    8CHTO   H51 3299   5.360   9.934   0.504  1.1259 -1.2549  0.0822
    8CHTO   C34 3300   5.303   9.760   0.610 -0.1820  0.1252 -0.5122
    8CHTO   O23 3301   5.240   9.638   0.596  0.8186  0.0950 -0.4278
    8CHTO   H38 3302   5.206   9.604   0.677  1.9599 -1.0432 -0.4090
    8CHTO   O16 3303   5.315   9.772   0.147 -0.3078  0.3898 -0.2736
    8CHTO   C24 3304   5.462   9.723   0.123 -0.7404  0.1547 -0.2945
    8CHTO   H52 3305   5.517   9.724   0.217 -1.5576 -0.2527  0.1997
    8CHTO   C26 3306   5.529   9.811   0.018 -0.0846 -0.7798 -0.4592
    8CHTO   H54 3307   5.484   9.805  -0.083  2.2486 -3.4329 -1.4220
    8CHTO   O20 3308   5.526   9.948   0.057  0.7798 -0.5969 -0.3050
    8CHTO   H36 3309   5.461   9.998   0.011  0.4674  0.3254  1.1084
    8CHTO   C30 3310   5.675   9.768  -0.008 -0.2419 -0.1886  1.5369
    8CHTO   H58 3311   5.719   9.767   0.093 -0.2180  0.9893  1.5479
    8CHTO    N6 3312   5.752   9.868  -0.092  0.1755  0.4801  0.2893
    8CHTO   H45 3313   5.698   9.961  -0.098  0.9772  0.8267 -2.5086
    8CHTO   H46 3314   5.844   9.888  -0.039  0.4946 -1.4658  0.5401
    8CHTO   C33 3315   5.662   9.622  -0.063  0.7980 -0.7009 -0.0140
    8CHTO   H61 3316   5.592   9.617  -0.148 -2.9815 -0.1237  2.8932
    8CHTO   O18 3317   5.599   9.540   0.046  0.0445 -0.6479  0.7666
    8CHTO   C28 3318   5.462   9.576   0.070 -0.6046 -0.6137 -0.3828
    8CHTO   H56 3319   5.406   9.577  -0.023  2.2823  0.7608 -2.1994
    8CHTO   C35 3320   5.400   9.479   0.164  0.8723  0.1066 -0.6777
    8CHTO   O24 3321   5.404   9.337   0.130 -0.2029 -0.9293 -0.0790
    8CHTO   H39 3322   5.494   9.316   0.114 -0.0475  0.2342 -0.8143
    8CHTO    O9 3323   5.788   9.569  -0.106  0.1390 -0.2918 -0.0353
    8CHTO   C13 3324   5.777   9.454  -0.218  0.4808 -0.4160 -0.0999
    8CHTO   H26 3325   5.696   9.481  -0.288 -1.1741 -1.2528  1.4308
    8CHTO   C11 3326   5.731   9.319  -0.135  0.4587 -0.4964 -0.0109
    8CHTO   H24 3327   5.625   9.331  -0.111  0.8973  0.4936  1.5610
    8CHTO    O8 3328   5.805   9.300  -0.016  0.0251 -0.3579 -0.4262
    8CHTO    H3 3329   5.898   9.314  -0.018 -0.1597  0.9905 -0.4915
    8CHTO    C9 3330   5.764   9.197  -0.229 -0.3999  0.0899 -0.0320
    8CHTO   H22 3331   5.723   9.228  -0.327 -2.3509 -0.6321  0.5317
    8CHTO    N2 3332   5.699   9.071  -0.188  0.2333  0.1562 -0.2210
    8CHTO   H10 3333   5.655   9.080  -0.090  0.0001  1.9065 -0.4840
    8CHTO   H11 3334   5.628   9.053  -0.267 -1.9079 -0.0155  1.6883
    8CHTO    C7 3335   5.919   9.193  -0.254  0.0456 -1.1591  0.0089
    8CHTO   H20 3336   5.928   9.162  -0.360  1.2394 -3.6961  0.8123
    8CHTO    O4 3337   5.980   9.322  -0.241 -0.0013 -0.0625 -0.4014
    8CHTO   C14 3338   5.914   9.434  -0.295  0.5237 -0.3856 -0.7207
    8CHTO   H27 3339   5.894   9.412  -0.402  0.5627  0.1050 -0.8325
    8CHTO   C18 3340   6.009   9.554  -0.292  0.4756 -0.1227  0.2771
    8CHTO   O13 3341   5.953   9.671  -0.345  0.3054 -0.5276 -0.3338
    8CHTO    H7 3342   5.995   9.748  -0.311 -0.8313 -0.1848  0.3209
    8CHTO    O2 3343   5.998   9.083  -0.159  0.2251  0.4537 -0.2199
    8CHTO    C1 3344   6.139   9.062  -0.172  0.3187 -0.5436  0.7212
    8CHTO   H14 3345   6.192   9.159  -0.161  1.3526 -1.1583  1.1293
    8CHTO    C2 3346   6.188   8.994  -0.300 -0.0925  0.0658  0.0072
    8CHTO   H15 3347   6.122   8.910  -0.326 -1.1655  1.3761 -1.6171
    8CHTO    O6 3348   6.176   9.083  -0.409 -0.1491 -0.2932 -0.1924
    8CHTO    H1 3349   6.199   9.041  -0.489  0.7115 -1.2464  0.5384
    8CHTO    C3 3350   6.345   8.946  -0.279  0.4605 -0.2644 -0.5651
    8CHTO   H16 3351   6.403   9.039  -0.279  1.6582 -1.0017 -0.6456
    8CHTO    N1 3352   6.387   8.862  -0.392  0.1407 -0.1760 -0.0060
    8CHTO    H8 3353   6.429   8.920  -0.472 -0.8328  1.3793  0.5951
    8CHTO    H9 3354   6.473   8.805  -0.360  0.1151 -0.4834 -0.4797
    8CHTO    C4 3355   6.363   8.875  -0.136  0.1061 -0.4341  0.0489
    8CHTO   H17 3356   6.306   8.782  -0.138  2.1557 -1.7649  2.0046
    8CHTO    O1 3357   6.311   8.954  -0.030  0.2845  0.4810  0.0160
    8CHTO    C5 3358   6.175   8.981  -0.043  0.4156  0.0124 -0.0898
    8CHTO   H18 3359   6.124   8.886  -0.052  0.9726 -0.1964 -1.1833
    8CHTO   C16 3360   6.124   9.049   0.085 -0.1252 -0.1602  0.1585
    8CHTO   O11 3361   6.100   8.957   0.190  0.5488 -0.2099  0.5023
    8CHTO    H5 3362   6.045   8.885   0.164  0.9798 -0.8176  1.2356
    8CHTO    O3 3363   6.503   8.852  -0.108 -0.1757  0.1188 -0.1338
    8CHTO    C6 3364   6.520   8.737  -0.019 -0.3145  0.3105  0.1169
    8CHTO   H19 3365   6.427   8.703   0.026 -0.0963  1.0487  1.1465
    8CHTO    C8 3366   6.583   8.620  -0.106  0.5359 -0.1991 -0.1255
    8CHTO   H21 3367   6.666   8.662  -0.162  1.6745  0.9863  2.3970
    8CHTO    O7 3368   6.480   8.579  -0.198 -0.4639  0.4096  0.1619
    8CHTO    H2 3369   6.507   8.529  -0.273 -3.7523  1.0458 -1.5174
    8CHTO   C12 3370   6.638   8.509  -0.009 -0.4423 -0.5073  0.4620
    8CHTO   H25 3371   6.548   8.458   0.032 -1.4049  1.0737  0.3122
    8CHTO    N3 3372   6.718   8.401  -0.087 -0.0523 -0.2335 -0.0403
    8CHTO   H12 3373   6.685   8.304  -0.053 -1.5285  0.0247 -0.6833
    8CHTO   H13 3374   6.823   8.411  -0.065  0.1254 -2.9591  0.4952
    8CHTO   C15 3375   6.718   8.569   0.109  0.5876 -0.0670 -0.6616
    8CHTO   H28 3376   6.811   8.611   0.069  0.9871  0.8232  1.1649
    8CHTO   O10 3377   6.747   8.441   0.211 -0.2502  0.0332  0.4503
    8CHTO    H4 3378   6.805   8.375   0.176 -0.1631 -0.1127  0.8620
    8CHTO    O5 3379   6.648   8.665   0.183  0.5130  0.0463  0.2949
    8CHTO   C10 3380   6.617   8.779   0.099 -0.3767  0.2041  0.1464
    8CHTO   H23 3381   6.707   8.817   0.052  0.6791 -1.5921  0.6540
    8CHTO   C17 3382   6.563   8.901   0.173  0.2180  0.2399  0.1175
    8CHTO   O12 3383   6.441   8.866   0.242 -0.3411  0.1059 -0.1676
    8CHTO    H6 3384   6.397   8.944   0.271  0.7485  0.6435  0.0813
    9CHTO  H203 3385   8.205   3.585   1.321  2.1926  2.4304  0.8882
    9CHTO   O82 3386   8.142   3.654   1.315  0.2329  0.5721 -0.2922
    9CHTO  C123 3387   8.169   3.728   1.192 -0.0955 -0.0220 -0.1797
    9CHTO  H227 3388   8.083   3.795   1.178 -0.1716  0.1015  0.8590
    9CHTO   O77 3389   8.292   3.798   1.230  0.5756  0.0526 -0.4910
    9CHTO  C118 3390   8.324   3.906   1.139  0.9753  0.0646 -0.2035
    9CHTO  H222 3391   8.229   3.962   1.135  1.5017  1.0813  0.9896
    9CHTO  C125 3392   8.439   3.995   1.211 -0.0190 -0.1783  0.3509
    9CHTO   O84 3393   8.570   3.937   1.215 -0.3253  0.2554  0.4658
    9CHTO  H205 3394   8.566   3.864   1.274 -2.8248  1.9895  2.5596
    9CHTO  C114 3395   8.370   3.841   1.004 -0.3415  0.8549  0.2285
    9CHTO  H218 3396   8.457   3.778   1.023 -0.4315  0.3457 -0.9767
    9CHTO  C116 3397   8.247   3.755   0.946  0.1158  0.5716 -0.2566
    9CHTO  H220 3398   8.168   3.824   0.910 -0.7515  0.1184  0.7379
    9CHTO   O79 3399   8.294   3.691   0.830 -0.0608  0.8945  0.1974
    9CHTO  H201 3400   8.364   3.631   0.841 -0.4300  0.3431 -0.4275
    9CHTO  C120 3401   8.188   3.651   1.050  0.4025  0.5965 -0.0190
    9CHTO  H224 3402   8.267   3.572   1.049  0.2404  0.4244  0.8751
    9CHTO   N21 3403   8.062   3.583   1.003  0.0984  0.3196 -0.0975
    9CHTO  H211 3404   8.065   3.571   0.895 -1.0268 -3.2364  0.1907
    9CHTO  H212 3405   7.982   3.647   1.035 -0.5470  0.6366 -2.2904
    9CHTO   O75 3406   8.414   3.954   0.928  0.7189  0.7065 -0.2101
    9CHTO  C112 3407   8.446   3.936   0.752  0.5606  0.3828  0.6723
    9CHTO  H216 3408   8.367   3.882   0.699  0.4804  0.1652  1.0140
    9CHTO   O73 3409   8.576   3.873   0.734  0.0359 -0.0291 -0.2437
    9CHTO  C113 3410   8.615   3.847   0.604  0.4323 -0.2009  0.2280
    9CHTO  H217 3411   8.543   3.778   0.556 -0.2801  2.4209 -2.6273
    9CHTO  C124 3412   8.751   3.771   0.603 -0.3546 -0.1839 -0.6244
    9CHTO   O83 3413   8.853   3.838   0.684  0.3507  0.0649 -0.3773
    9CHTO  H204 3414   8.906   3.769   0.718 -1.2642 -2.2428 -2.3843
    9CHTO  C109 3415   8.621   3.971   0.522 -0.2538  0.2348  0.3397
    9CHTO  H213 3416   8.719   4.017   0.546 -0.2166 -0.6823  2.0530
    9CHTO  C110 3417   8.504   4.077   0.543  0.0765  0.5944  0.7276
    9CHTO  H214 3418   8.417   4.063   0.479  1.2206 -0.3441 -0.6472
    9CHTO   O78 3419   8.553   4.205   0.502 -0.0855  0.1255 -0.2314
    9CHTO  H200 3420   8.484   4.259   0.469 -0.0832 -0.1852 -0.7621
    9CHTO  C111 3421   8.455   4.077   0.692 -0.1487  0.2881  0.2992
    9CHTO  H215 3422   8.531   4.128   0.754 -0.1160 -0.5360  0.9364
    9CHTO   N19 3423   8.322   4.153   0.707  0.1208  0.1224  0.2359
    9CHTO  H207 3424   8.327   4.243   0.647  0.4647 -0.5942 -0.7986
    9CHTO  H208 3425   8.242   4.090   0.673  0.5395  1.2204 -2.9812
    9CHTO   O74 3426   8.617   3.940   0.381 -0.0695  0.2684  0.1279
    9CHTO  C115 3427   8.779   3.923   0.310 -0.4064 -0.0396 -0.0375
    9CHTO  H219 3428   8.856   3.946   0.383  0.5044  0.4617 -1.1476
    9CHTO   O76 3429   8.816   3.762   0.266 -0.1881  0.3055 -0.2593
    9CHTO  C122 3430   8.953   3.745   0.238 -0.7050 -0.2959 -0.0837
    9CHTO  H226 3431   8.958   3.667   0.161 -0.1099  0.9419 -1.3213
    9CHTO  C126 3432   9.031   3.697   0.361  0.7253  0.2376  0.1439
    9CHTO   O85 3433   8.980   3.568   0.407 -0.3346 -0.4202  0.4984
    9CHTO  H206 3434   8.975   3.501   0.342 -3.5457  1.6381 -1.5517
    9CHTO  C121 3435   9.019   3.878   0.179  0.6575  0.4152  0.7858
    9CHTO  H225 3436   9.062   3.930   0.267  0.2319  1.0167  0.6456
    9CHTO   O81 3437   9.131   3.831   0.099  0.4077  0.0822  0.7709
    9CHTO  H202 3438   9.178   3.906   0.066 -1.4168  0.1053 -2.0011
    9CHTO  C119 3439   8.914   3.963   0.096 -0.1381  1.0420  0.5899
    9CHTO  H223 3440   8.971   4.045   0.054  2.7916 -2.5725 -2.9345
    9CHTO  C117 3441   8.808   4.018   0.194  0.2322 -0.1876  0.6336
    9CHTO  H221 3442   8.710   4.035   0.150  0.5659  1.9830  0.6709
    9CHTO   N20 3443   8.849   4.157   0.243  0.7447 -0.2930 -0.0549
    9CHTO  H209 3444   8.879   4.216   0.158 -0.0408 -1.1138 -0.9194
    9CHTO  H210 3445   8.934   4.152   0.309 -1.2174  1.8402  2.7709
    9CHTO   O80 3446   8.854   3.900  -0.026  0.1631  0.3077  0.0654
    9CHTO  C103 3447   8.754   3.983  -0.123 -0.4190  0.6849 -0.7278
    9CHTO  H190 3448   8.663   4.005  -0.067 -0.9726 -2.1789 -0.4072
    9CHTO  C101 3449   8.826   4.107  -0.195 -0.3926 -0.0138  0.0376
    9CHTO  H188 3450   8.920   4.084  -0.246 -0.1541 -0.7201  0.7823
    9CHTO   O68 3451   8.847   4.213  -0.091  0.2903 -0.4192 -0.3007
    9CHTO  H168 3452   8.939   4.210  -0.069  0.0106 -1.9992  0.7179
    9CHTO   C99 3453   8.739   4.158  -0.318 -0.3006  0.1636 -0.5885
    9CHTO  H186 3454   8.641   4.191  -0.280 -1.0991 -1.0017 -1.5976
    9CHTO   N17 3455   8.796   4.285  -0.384  0.1811  0.3079 -0.4628
    9CHTO  H174 3456   8.837   4.353  -0.310  0.3789  1.1938 -1.3751
    9CHTO  H175 3457   8.723   4.335  -0.445  0.8786  2.3021  0.2998
    9CHTO   C97 3458   8.699   4.043  -0.417 -0.5826  0.9484 -0.2519
    9CHTO  H184 3459   8.788   4.007  -0.471 -0.5733  0.8488 -0.1675
    9CHTO   O64 3460   8.631   3.939  -0.340 -0.1258  0.1154 -0.1339
    9CHTO  C104 3461   8.717   3.880  -0.236 -0.2245  0.3025  0.1423
    9CHTO  H191 3462   8.808   3.842  -0.283 -0.0513 -0.4346  1.0659
    9CHTO  C108 3463   8.648   3.759  -0.173  0.0387  0.1097 -0.6686
    9CHTO   O71 3464   8.612   3.664  -0.277  0.4530 -0.1790 -0.2138
    9CHTO  H171 3465   8.699   3.638  -0.302 -0.1869 -0.4810 -2.2048
    9CHTO   O62 3466   8.601   4.103  -0.504 -0.3894  0.1795 -0.1473
    9CHTO   C91 3467   8.572   4.039  -0.622 -0.0696  0.0668  0.1766
    9CHTO  H178 3468   8.650   3.966  -0.644  0.1427  0.9697 -2.2195
    9CHTO   C92 3469   8.589   4.141  -0.741 -0.1574 -0.5728  0.2826
    9CHTO  H179 3470   8.690   4.181  -0.720  0.8564 -2.2799 -1.2316
    9CHTO   O66 3471   8.594   4.066  -0.861 -0.4647  0.1216 -0.3281
    9CHTO  H166 3472   8.680   4.075  -0.897 -0.5255  0.3484 -0.4122
    9CHTO   C93 3473   8.479   4.254  -0.756 -0.2055 -0.6543 -0.5336
    9CHTO  H180 3474   8.481   4.273  -0.865  1.3925 -2.8549 -0.9222
    9CHTO   N16 3475   8.513   4.379  -0.680 -0.1170 -0.5945 -0.4642
    9CHTO  H172 3476   8.590   4.443  -0.719 -1.8367  0.9665 -1.3429
    9CHTO  H173 3477   8.531   4.347  -0.578 -0.3731 -1.9971 -0.8429
    9CHTO   C94 3478   8.341   4.194  -0.716 -0.0607 -0.2282  0.4601
    9CHTO  H181 3479   8.308   4.229  -0.619 -1.3071 -2.4450  0.8767
    9CHTO   O61 3480   8.337   4.046  -0.720  0.1554 -0.4182  0.3636
    9CHTO   C95 3481   8.426   3.983  -0.626  0.3172 -0.7826  0.7968
    9CHTO  H182 3482   8.377   3.992  -0.529 -0.5112  0.0672  0.3161
    9CHTO  C106 3483   8.401   3.835  -0.649 -0.1283  0.1118 -0.2131
    9CHTO   O69 3484   8.493   3.751  -0.575  0.1179 -0.3025  0.0211
    9CHTO  H169 3485   8.572   3.751  -0.627 -0.0398  1.4456 -0.2395
    9CHTO   O63 3486   8.225   4.268  -0.819 -0.1229  0.4654 -0.3745
    9CHTO   C96 3487   8.061   4.256  -0.738  0.1351 -0.1662  0.7124
    9CHTO  H183 3488   8.083   4.214  -0.640  0.0529  0.0186  0.8105
    9CHTO   C98 3489   7.955   4.169  -0.809  0.1331  1.8077 -0.4957
    9CHTO  H185 3490   7.953   4.212  -0.910 -1.1512 -0.1653 -1.3400
    9CHTO   O67 3491   8.017   4.042  -0.811  0.3375  0.6043 -0.4018
    9CHTO  H167 3492   7.997   3.998  -0.891 -1.0946  0.3137  0.0953
    9CHTO  C102 3493   7.806   4.173  -0.743 -1.0036  0.0976 -0.1693
    9CHTO  H189 3494   7.814   4.110  -0.653 -1.8267  0.4204  0.1397
    9CHTO   N18 3495   7.706   4.104  -0.824  0.1657  0.3146  0.3543
    9CHTO  H176 3496   7.735   4.003  -0.849 -1.2622  0.0531 -0.2660
    9CHTO  H177 3497   7.692   4.148  -0.921 -0.8196  1.6093  1.0659
    9CHTO  C105 3498   7.770   4.322  -0.708 -0.4283  0.1264  0.6780
    9CHTO  H192 3499   7.761   4.384  -0.797 -0.9482 -0.4809  0.3065
    9CHTO   O65 3500   7.882   4.379  -0.634  0.3178  0.2477 -0.3441
    9CHTO  C100 3501   7.999   4.395  -0.708 -0.1883  0.0008  0.4674
    9CHTO  H187 3502   7.972   4.440  -0.805  1.7083 -0.0078 -0.0888
    9CHTO  C107 3503   8.097   4.491  -0.634  0.1812  0.0995  0.1227
    9CHTO   O70 3504   8.045   4.624  -0.615  0.2344  0.0483 -0.5436
    9CHTO  H170 3505   8.086   4.658  -0.538 -0.4332 -2.1225  0.8153
    9CHTO   O57 3506   7.626   4.333  -0.632 -0.2656  0.2053 -0.3698
    9CHTO   C85 3507   7.543   4.450  -0.638 -0.6032  0.1256  0.2105
    9CHTO  H157 3508   7.548   4.476  -0.746 -0.8720  0.0749  0.1870
    9CHTO   C83 3509   7.612   4.576  -0.579  0.0417  0.2954  0.4196
    9CHTO  H155 3510   7.696   4.589  -0.646 -0.9243 -0.1102 -0.8809
    9CHTO   O56 3511   7.661   4.554  -0.447  0.1687 -0.5122  0.1976
    9CHTO  H135 3512   7.594   4.570  -0.384  2.3520  1.5965  2.0620
    9CHTO   C81 3513   7.522   4.701  -0.600 -0.4447  0.8540  0.4237
    9CHTO  H153 3514   7.490   4.699  -0.704 -0.6052  1.8682  0.4526
    9CHTO   N14 3515   7.590   4.829  -0.570 -0.3866 -0.4379  0.0026
    9CHTO  H141 3516   7.586   4.857  -0.467  0.8656  0.4917 -0.1975
    9CHTO  H142 3517   7.546   4.908  -0.627 -0.4486 -0.5432 -0.0971
    9CHTO   C79 3518   7.389   4.679  -0.518  0.1035 -0.5690 -0.0729
    9CHTO  H151 3519   7.324   4.763  -0.541  1.8108  0.9434  0.4851
    9CHTO   O52 3520   7.319   4.554  -0.560 -0.4927  0.6589  0.2197
    9CHTO   C86 3521   7.395   4.428  -0.585  0.5120 -0.6495 -0.1272
    9CHTO  H158 3522   7.391   4.373  -0.489  1.1305 -1.3713 -0.5026
    9CHTO   C90 3523   7.319   4.338  -0.687  0.4912  0.1156  0.0022
    9CHTO   O60 3524   7.179   4.333  -0.660  0.4246  0.0292  0.1290
    9CHTO  H138 3525   7.170   4.264  -0.598 -0.3370 -0.5959 -0.6480
    9CHTO   O50 3526   7.401   4.689  -0.379  0.1253 -0.5129 -0.8623
    9CHTO   C73 3527   7.363   4.705  -0.241 -0.3702  0.2060 -0.0983
    9CHTO  H145 3528   7.254   4.696  -0.230 -0.4182  0.7251 -0.1385
    9CHTO   C74 3529   7.402   4.850  -0.191  0.0048  0.0271  0.4055
    9CHTO  H146 3530   7.358   4.918  -0.265 -0.7519 -0.2531  0.5947
    9CHTO   O54 3531   7.333   4.859  -0.065  0.4088 -0.2805 -0.0411
    9CHTO  H133 3532   7.343   4.949  -0.042 -0.3551 -0.6864  2.0177
    9CHTO   C75 3533   7.554   4.870  -0.179 -0.1216  0.3212  0.3975
    9CHTO  H147 3534   7.602   4.854  -0.276  1.4394  0.7250  1.0805
    9CHTO   N13 3535   7.589   5.003  -0.130 -0.6487  0.4332  0.5000
    9CHTO  H139 3536   7.640   4.993  -0.035  1.1368  0.3051 -0.4627
    9CHTO  H140 3537   7.503   5.066  -0.111 -1.6524 -1.1042  1.1383
    9CHTO   C76 3538   7.620   4.748  -0.093 -0.7232 -0.6671 -0.0138
    9CHTO  H148 3539   7.601   4.759   0.014  1.1767 -0.3565  0.3160
    9CHTO   O49 3540   7.577   4.620  -0.136  0.3732 -0.3522  0.4030
    9CHTO   C77 3541   7.436   4.602  -0.154 -0.6919  0.0254 -0.1685
    9CHTO  H149 3542   7.392   4.603  -0.054  0.1545  1.1478  0.1994
    9CHTO   C88 3543   7.415   4.459  -0.204  0.1697  0.2085 -1.0403
    9CHTO   O58 3544   7.289   4.383  -0.147  0.2706 -0.8172 -0.2873
    9CHTO  H136 3545   7.287   4.390  -0.053  2.4123  0.4553 -0.3030
    9CHTO   O51 3546   7.778   4.744  -0.125 -0.0119  0.0386  0.0132
    9CHTO   C78 3547   7.862   4.653  -0.060  0.8911 -0.3692  0.1378
    9CHTO  H150 3548   7.835   4.556  -0.106 -0.4902 -0.1487  0.4319
    9CHTO   C80 3549   7.846   4.655   0.096 -0.1185 -0.3817 -0.3640
    9CHTO  H152 3550   7.833   4.761   0.126  0.5892 -0.5504  0.5542
    9CHTO   O55 3551   7.730   4.575   0.128  0.4562 -0.0133  0.0514
    9CHTO  H134 3552   7.754   4.487   0.109  0.0743 -0.5261  1.8429
    9CHTO   C84 3553   7.967   4.610   0.181  0.4519  0.3111  0.4094
    9CHTO  H156 3554   7.978   4.501   0.175 -0.5542  0.1063  1.8315
    9CHTO   N15 3555   7.960   4.636   0.328  0.2520  0.1103 -0.1368
    9CHTO  H143 3556   7.924   4.734   0.353  0.9143  0.7903 -1.7676
    9CHTO  H144 3557   7.896   4.563   0.372  0.8435  0.7370  1.8504
    9CHTO   C87 3558   8.092   4.677   0.122 -0.4717  0.5641 -0.1021
    9CHTO  H159 3559   8.095   4.786   0.126  0.3965  0.5181  0.7006
    9CHTO   O53 3560   8.105   4.628  -0.021 -0.0022 -0.1441 -0.0666
    9CHTO   C82 3561   8.006   4.685  -0.104  0.1600 -0.1234 -0.3413
    9CHTO  H154 3562   8.023   4.793  -0.108  0.1540 -0.1870 -3.1535
    9CHTO   C89 3563   8.027   4.632  -0.253 -0.2219 -0.3235  0.5306
    9CHTO   O59 3564   8.032   4.490  -0.251  0.3162  0.1560 -0.1938
    9CHTO  H137 3565   8.120   4.457  -0.252  0.8543  1.5541  0.2944
    9CHTO   O45 3566   8.233   4.640   0.193  0.0844 -0.6615 -0.5385
    9CHTO   C67 3567   8.310   4.524   0.156 -0.0030  0.1767 -0.0026
    9CHTO  H124 3568   8.241   4.447   0.120  0.1230  0.2570 -0.4150
    9CHTO   C65 3569   8.406   4.559   0.041 -0.2123 -0.9163  0.1902
    9CHTO  H122 3570   8.440   4.658   0.070  0.6953 -1.1371 -0.1078
    9CHTO   O44 3571   8.340   4.564  -0.084  0.2305 -0.1614  0.0791
    9CHTO  H102 3572   8.308   4.476  -0.092 -1.0600  0.2279  0.7117
    9CHTO   C63 3573   8.544   4.481   0.049 -0.0301  0.0056  0.2649
    9CHTO  H120 3574   8.604   4.536   0.121 -1.5725  0.5870  1.1258
    9CHTO   N11 3575   8.630   4.489  -0.080  0.0219  0.0442 -0.6396
    9CHTO  H108 3576   8.736   4.479  -0.068 -0.3671 -1.5693  1.7264
    9CHTO  H109 3577   8.601   4.577  -0.134 -1.4776  0.4586  0.8168
    9CHTO   C61 3578   8.528   4.334   0.116 -0.3426 -0.2938 -0.6992
    9CHTO  H118 3579   8.628   4.315   0.158 -0.9659  1.2908  1.5840
    9CHTO   O40 3580   8.442   4.334   0.230  0.2384  0.1732 -0.0766
    9CHTO   C68 3581   8.389   4.464   0.273  0.3589  0.0045  0.0171
    9CHTO  H125 3582   8.478   4.528   0.290 -0.3271  0.8417  0.4304
    9CHTO   C72 3583   8.300   4.465   0.401 -0.1367  0.4577  0.5665
    9CHTO   O48 3584   8.379   4.429   0.517  0.4519  0.4555  0.1399
    9CHTO  H105 3585   8.383   4.502   0.577  0.4519 -0.3291  1.1051
    9CHTO   O38 3586   8.506   4.231   0.025 -0.0713  0.1212  0.3236
    9CHTO   C55 3587   8.374   4.170   0.018 -0.0911  0.6382  0.3708
    9CHTO  H112 3588   8.308   4.244   0.066 -1.4484 -1.4744  1.8504
    9CHTO   C56 3589   8.362   4.028   0.091  0.0996 -0.3571 -0.1580
    9CHTO  H113 3590   8.446   3.978   0.040  0.4258  1.0473 -1.0226
    9CHTO   O42 3591   8.399   4.046   0.229 -0.2256 -0.0588  0.2436
    9CHTO  H100 3592   8.387   3.966   0.277 -0.0008 -0.0193  0.3683
    9CHTO   C57 3593   8.223   3.954   0.059  0.2788 -0.6395 -0.1088
    9CHTO  H114 3594   8.150   4.015   0.114 -0.4620 -0.3521 -1.3751
    9CHTO   N10 3595   8.224   3.819   0.114  0.7933 -0.2203  0.1245
    9CHTO  H106 3596   8.320   3.770   0.100  0.1538 -2.4676  3.0653
    9CHTO  H107 3597   8.195   3.811   0.218 -1.8221 -1.0458 -0.6297
    9CHTO   C58 3598   8.191   3.952  -0.092  0.0846 -0.2658 -0.1216
    9CHTO  H115 3599   8.264   3.886  -0.143  0.3769 -0.8178  0.9921
    9CHTO   O37 3600   8.204   4.086  -0.136  0.0202  0.0863 -0.1651
    9CHTO   C59 3601   8.333   4.147  -0.131 -0.0471 -0.0120 -0.7300
    9CHTO  H116 3602   8.407   4.082  -0.176  1.8575  1.5169  0.1068
    9CHTO   C70 3603   8.326   4.276  -0.218 -0.0320  0.1064  0.7292
    9CHTO   O46 3604   8.341   4.244  -0.362 -0.1240  0.4135 -0.5156
    9CHTO  H103 3605   8.266   4.193  -0.387  0.6949 -0.1422 -1.9105
    9CHTO   O39 3606   8.030   3.914  -0.122 -0.4892  0.4681 -0.2644
    9CHTO   C60 3607   7.998   3.788  -0.179 -0.7179 -0.2655  0.0495
    9CHTO  H117 3608   8.086   3.723  -0.184 -1.6985 -1.6095  0.1111
    9CHTO   C62 3609   7.892   3.725  -0.089  0.1089  0.9992 -0.2053
    9CHTO  H119 3610   7.938   3.730   0.012 -0.2284 -3.5600  0.2623
    9CHTO   O43 3611   7.774   3.807  -0.089  0.0542 -0.3672  0.3725
    9CHTO  H101 3612   7.785   3.881  -0.032  0.6879 -0.3519  0.2295
    9CHTO   C66 3613   7.868   3.574  -0.129  0.6781 -0.6708  0.1423
    9CHTO  H123 3614   7.966   3.525  -0.133  1.4092  0.8834 -1.5236
    9CHTO   N12 3615   7.780   3.511  -0.030  0.6555 -0.0389  0.2762
    9CHTO  H110 3616   7.730   3.590   0.025 -0.3413 -0.8590  0.5737
    9CHTO  H111 3617   7.841   3.447   0.032  0.5190  0.3979  0.8679
    9CHTO   C69 3618   7.803   3.565  -0.267 -0.9326 -0.1750  0.5781
    9CHTO  H126 3619   7.702   3.611  -0.265 -1.0699 -0.2739 -2.1295
    9CHTO   O41 3620   7.896   3.642  -0.378 -0.2153 -0.2145  0.2056
    9CHTO   C64 3621   7.952   3.800  -0.323  0.2458 -0.5972 -0.1745
    9CHTO  H121 3622   7.867   3.871  -0.331  0.3584 -0.5962 -1.5483
    9CHTO   C71 3623   8.057   3.847  -0.420 -0.8465 -0.1146  0.0742
    9CHTO   O47 3624   8.176   3.774  -0.428 -0.3442  0.4761  0.1520
    9CHTO  H104 3625   8.230   3.789  -0.353  1.5866 -0.9847 -0.8971
    9CHTO   O34 3626   7.791   3.417  -0.319 -0.0898  0.6053  0.8811
    9CHTO   C49 3627   7.891   3.345  -0.410 -0.1813 -0.2599  0.4771
    9CHTO   H91 3628   7.883   3.395  -0.507 -0.4589 -1.0383  0.0904
    9CHTO   C47 3629   7.856   3.195  -0.421  0.0819 -0.1733  0.0315
    9CHTO   H89 3630   7.923   3.152  -0.497  0.2734 -0.9650  0.6427
    9CHTO   O33 3631   7.720   3.164  -0.462  0.3154  0.3761 -0.6276
    9CHTO   H70 3632   7.715   3.166  -0.555 -0.7492  0.5444 -0.5715
    9CHTO   C45 3633   7.880   3.119  -0.277 -0.2804  0.3423  0.2230
    9CHTO   H87 3634   7.790   3.135  -0.216 -0.7519 -0.1809 -0.3322
    9CHTO    N8 3635   7.900   2.974  -0.303 -0.2964  0.0577  0.0478
    9CHTO   H75 3636   7.824   2.910  -0.259  0.0060 -0.3182  0.0298
    9CHTO   H76 3637   7.915   2.944  -0.405 -0.9532  2.1996 -0.6997
    9CHTO   C43 3638   7.999   3.197  -0.198  0.1546 -0.4757  0.4597
    9CHTO   H85 3639   7.944   3.271  -0.140 -1.0578  2.2994 -3.9685
    9CHTO   O29 3640   8.095   3.250  -0.289 -0.2796 -0.3287 -0.2572
    9CHTO   C50 3641   8.046   3.352  -0.375  0.9787 -0.0105 -0.5210
    9CHTO   H92 3642   8.064   3.447  -0.322 -1.6591  0.0965  0.2399
    9CHTO   C54 3643   8.135   3.367  -0.504 -0.0274 -0.4376 -0.1849
    9CHTO   O36 3644   8.276   3.383  -0.467 -0.1126 -0.3760 -0.8367
    9CHTO   H72 3645   8.320   3.308  -0.500 -1.0558 -1.3564  0.1032
    9CHTO   O27 3646   8.055   3.120  -0.092  0.2293  0.2952  0.1587
    9CHTO   C37 3647   8.116   3.145   0.037  0.1133 -0.3161 -0.2040
    9CHTO   H79 3648   8.175   3.058   0.068  0.4265  0.3708  1.2119
    9CHTO   C38 3649   8.219   3.265   0.014  0.5089  0.1189  0.4750
    9CHTO   H80 3650   8.168   3.351  -0.032 -1.0043  0.4451  2.6798
    9CHTO   O31 3651   8.324   3.220  -0.073  0.6608  0.4548 -0.3641
    9CHTO   H68 3652   8.296   3.235  -0.161  0.3273  0.6755 -0.2207
    9CHTO   C39 3653   8.278   3.316   0.152 -0.3071  0.3321 -0.5158
    9CHTO   H81 3654   8.326   3.233   0.204 -1.4194 -1.9615 -3.0144
    9CHTO    N7 3655   8.371   3.436   0.145 -0.6936  0.0999 -0.1913
    9CHTO   H73 3656   8.411   3.452   0.243  0.1235  0.3102 -0.5598
    9CHTO   H74 3657   8.438   3.426   0.061 -0.4636 -1.3600  0.1620
    9CHTO   C40 3658   8.158   3.348   0.254  0.9897 -0.5463 -0.4416
    9CHTO   H82 3659   8.097   3.430   0.218  2.5111  0.0657 -1.6962
    9CHTO   O26 3660   8.081   3.230   0.267  0.5398  0.5833 -0.7502
    9CHTO   C41 3661   8.007   3.179   0.150 -0.0420 -0.4063  0.6163
    9CHTO   H83 3662   7.940   3.251   0.101  1.9233  1.7964  1.0589
    9CHTO   C52 3663   7.925   3.045   0.190 -0.5714  0.6267 -0.5467
    9CHTO   O35 3664   7.827   2.986   0.072  0.0037 -0.0473 -0.5800
    9CHTO   H71 3665   7.782   3.048   0.018 -1.1111  1.9396  2.4811
    9CHTO   O28 3666   8.192   3.378   0.395  0.5604  0.0998  0.0869
    9CHTO   C42 3667   8.110   3.473   0.472 -0.0647  0.1631  0.2509
    9CHTO   H84 3668   8.141   3.457   0.575  1.4964  1.5566  0.0124
    9CHTO   C44 3669   7.951   3.461   0.463 -0.4021  0.9506  0.0646
    9CHTO   H86 3670   7.917   3.475   0.360  1.4372  0.1903 -0.6764
    9CHTO   O32 3671   7.919   3.334   0.520  0.0567 -0.0230 -0.6860
    9CHTO   H69 3672   7.832   3.323   0.552  0.1178  0.8379 -0.2134
    9CHTO   C48 3673   7.873   3.580   0.532  0.2317  0.4885 -0.6352
    9CHTO   H90 3674   7.887   3.585   0.640  3.0437  0.8358 -0.9829
    9CHTO    N9 3675   7.725   3.552   0.532  0.4033 -0.0404 -0.3688
    9CHTO   H77 3676   7.681   3.636   0.582  0.3530  0.7148 -1.6503
    9CHTO   H78 3677   7.688   3.539   0.431 -0.1719 -1.7059  0.0358
    9CHTO   C51 3678   7.916   3.709   0.467 -0.2304 -0.5033  0.3234
    9CHTO   H93 3679   7.891   3.707   0.361 -0.3050  1.9827  0.2675
    9CHTO   O30 3680   8.059   3.732   0.490  0.0210 -0.0543 -0.3533
    9CHTO   C46 3681   8.149   3.618   0.433 -0.7243  0.1795  0.2396
    9CHTO   H88 3682   8.138   3.626   0.325  0.0222  1.3749  0.2451
    9CHTO   C53 3683   8.294   3.646   0.478  0.1395 -0.6212  0.0494
    9CHTO   O72 3684   8.332   3.781   0.443 -0.2270 -0.0731 -0.0371
    9CHTO  H199 3685   8.299   3.846   0.501  2.9886 -0.8451  2.9022
    9CHTO   O22 3686   7.851   3.824   0.529  0.2204  0.2221 -0.3439
    9CHTO   C31 3687   7.812   3.938   0.443  0.3419 -0.4386  0.4346
    9CHTO   H59 3688   7.742   3.999   0.505  0.2455  1.2537 -1.2985
    9CHTO   C29 3689   7.937   4.029   0.414  0.5310  0.0226 -0.3270
    9CHTO   H57 3690   8.004   3.973   0.347  1.2261 -0.1426  0.5021
    9CHTO   O21 3691   8.000   4.059   0.541  0.1233 -0.0530 -0.0369
    9CHTO   H37 3692   8.065   4.127   0.539 -1.3032  1.3636  0.5418
    9CHTO   C27 3693   7.890   4.160   0.333  0.3992  0.1162  0.8611
    9CHTO   H55 3694   7.826   4.223   0.396  2.9498  0.0191  3.6318
    9CHTO    N5 3695   8.008   4.237   0.292  0.3324 -0.3811 -0.2316
    9CHTO   H43 3696   7.976   4.320   0.230 -0.5823  0.9805  1.9770
    9CHTO   H44 3697   8.065   4.175   0.225  1.4152  0.0118  0.3128
    9CHTO   C25 3698   7.811   4.119   0.201  0.0235 -0.5210 -0.0726
    9CHTO   H53 3699   7.884   4.068   0.137 -1.1540 -0.1215 -1.7753
    9CHTO   O17 3700   7.699   4.025   0.242 -0.1001 -0.1792 -0.3531
    9CHTO   C32 3701   7.743   3.905   0.303  0.9045  0.2544 -0.1324
    9CHTO   H60 3702   7.811   3.845   0.242  0.6027  0.0792 -0.2998
    9CHTO   C36 3703   7.608   3.820   0.310  0.4216 -0.5794  0.3240
    9CHTO   O25 3704   7.581   3.778   0.173 -0.9227 -0.2717 -0.4000
    9CHTO   H40 3705   7.653   3.720   0.156 -1.4068 -1.0648  0.2164
    9CHTO   O15 3706   7.747   4.256   0.120 -0.1987  0.1856  0.0023
    9CHTO   C19 3707   7.704   4.237  -0.016  0.6346 -0.4311 -0.6691
    9CHTO   H47 3708   7.658   4.335  -0.037  0.6653 -0.1914  0.3810
    9CHTO   C20 3709   7.828   4.206  -0.105  0.3850  0.5553 -0.4478
    9CHTO   H48 3710   7.885   4.119  -0.069 -1.4989 -0.9510 -1.0412
    9CHTO   O19 3711   7.915   4.321  -0.078  0.5385  0.3045 -0.2878
    9CHTO   H35 3712   7.874   4.406  -0.081  0.2556  0.1468 -0.9006
    9CHTO   C21 3713   7.781   4.200  -0.258  0.5654 -0.3227  0.1520
    9CHTO   H49 3714   7.756   4.301  -0.290  0.9049 -0.1586  0.4042
    9CHTO    N4 3715   7.903   4.162  -0.339  0.7935 -0.8705 -0.2765
    9CHTO   H41 3716   7.930   4.235  -0.414  0.1855 -0.3828 -0.0277
    9CHTO   H42 3717   7.981   4.150  -0.266 -0.7995 -0.0474  1.5990
    9CHTO   C22 3718   7.664   4.094  -0.272 -0.0193 -0.6295  0.1096
    9CHTO   H50 3719   7.691   3.993  -0.243 -0.4137 -0.8905 -0.4278
    9CHTO   O14 3720   7.559   4.130  -0.180  0.0954 -0.6960  0.3650
    9CHTO   C23 3721   7.590   4.136  -0.043 -0.2652 -0.1548  0.8847
    9CHTO   H51 3722   7.619   4.036  -0.007  0.0556 -1.1834 -2.1276
    9CHTO   C34 3723   7.457   4.178   0.029  0.2581 -0.2355  0.7558
    9CHTO   O23 3724   7.470   4.233   0.160 -0.3527  0.2605 -0.1202
    9CHTO   H38 3725   7.486   4.325   0.158 -1.8168  0.5097 -1.4738
    9CHTO   O16 3726   7.619   4.087  -0.407  0.2806  0.2547 -0.1852
    9CHTO   C24 3727   7.514   3.965  -0.425  0.4556  0.0402 -0.0353
    9CHTO   H52 3728   7.500   3.908  -0.333  0.1433 -1.4210 -0.9647
    9CHTO   C26 3729   7.561   3.860  -0.527 -0.5252 -0.2046 -0.1469
    9CHTO   H54 3730   7.602   3.912  -0.616 -1.1683  0.5117 -0.0361
    9CHTO   O20 3731   7.671   3.787  -0.462 -0.1249 -0.0177  0.2206
    9CHTO   H36 3732   7.656   3.746  -0.379  4.7953  2.1964  2.4289
    9CHTO   C30 3733   7.457   3.764  -0.586 -0.6713  0.3313  0.0750
    9CHTO   H58 3734   7.429   3.690  -0.510 -1.1484  0.5515  0.1182
    9CHTO    N6 3735   7.504   3.693  -0.707  0.1058  0.2344 -0.1029
    9CHTO   H45 3736   7.541   3.768  -0.775 -0.3490 -0.0552 -0.6762
    9CHTO   H46 3737   7.418   3.648  -0.754 -1.0772  2.6466 -0.3336
    9CHTO   C33 3738   7.326   3.838  -0.612  0.6482  0.7786 -0.6656
    9CHTO   H61 3739   7.333   3.896  -0.705 -1.5836 -0.2769 -1.5461
    9CHTO   O18 3740   7.299   3.929  -0.507 -0.0339 -0.2542  0.1005
    9CHTO   C28 3741   7.382   4.034  -0.462 -0.1417 -0.4558  0.7791
    9CHTO   H56 3742   7.398   4.108  -0.540 -0.6590 -1.2671 -0.0969
    9CHTO   C35 3743   7.305   4.105  -0.344  0.2012 -0.1596  0.2389
    9CHTO   O24 3744   7.167   4.134  -0.355  0.0957  0.2782  0.6379
    9CHTO   H39 3745   7.113   4.082  -0.298  0.1239  0.3748  0.7538
    9CHTO    O9 3746   7.214   3.748  -0.633  0.3401 -0.1078  0.1273
    9CHTO   C13 3747   7.080   3.837  -0.713 -0.1478 -0.6207 -0.4181
    9CHTO   H26 3748   7.124   3.881  -0.806 -1.6711  3.5725  0.7626
    9CHTO   C11 3749   7.021   3.947  -0.625  0.0615 -0.0078  0.2982
    9CHTO   H24 3750   7.097   4.026  -0.628 -0.1002  0.2104  1.6925
    9CHTO    O8 3751   7.020   3.909  -0.488 -0.1280 -0.0858  0.0548
    9CHTO    H3 3752   7.070   3.974  -0.441  0.3399  0.5268 -1.2690
    9CHTO    C9 3753   6.887   4.004  -0.675  0.0585  0.4004  0.2793
    9CHTO   H22 3754   6.903   4.027  -0.781  2.5199 -0.9192  0.3182
    9CHTO    N2 3755   6.847   4.132  -0.608 -0.2514 -0.0849  0.2794
    9CHTO   H10 3756   6.852   4.107  -0.503 -2.8310 -2.0531 -0.0157
    9CHTO   H11 3757   6.897   4.225  -0.633 -1.4740  1.1513  2.2344
    9CHTO    C7 3758   6.780   3.884  -0.662 -0.3091  0.1069 -0.0976
    9CHTO   H20 3759   6.687   3.924  -0.706 -1.2541 -0.1164  1.6470
    9CHTO    O4 3760   6.831   3.773  -0.742  0.4221 -0.0154 -0.7761
    9CHTO   C14 3761   6.974   3.731  -0.754  0.2595  0.0766 -0.0203
    9CHTO   H27 3762   6.994   3.718  -0.863 -0.2680  2.5001 -0.4395
    9CHTO   C18 3763   6.988   3.595  -0.690 -0.1914 -0.4545 -0.1943
    9CHTO   O13 3764   6.979   3.600  -0.552  0.1122  0.1386 -0.0595
    9CHTO    H7 3765   7.058   3.643  -0.526 -0.5608  3.2193 -2.8279
    9CHTO    O2 3766   6.758   3.835  -0.520 -0.1758  0.5587  0.1754
    9CHTO    C1 3767   6.620   3.806  -0.476 -0.6178 -0.3768  0.1821
    9CHTO   H14 3768   6.624   3.718  -0.408 -0.2355  0.0638  0.7324
    9CHTO    C2 3769   6.504   3.772  -0.583 -0.1387  0.7569  0.3544
    9CHTO   H15 3770   6.486   3.848  -0.661  1.6594 -0.2032 -1.0282
    9CHTO    O6 3771   6.540   3.649  -0.649  0.3686 -0.5785 -0.4196
    9CHTO    H1 3772   6.632   3.641  -0.636  0.3135  0.8669  0.9990
    9CHTO    C3 3773   6.353   3.761  -0.517 -0.1646 -0.8211 -0.0056
    9CHTO   H16 3774   6.362   3.668  -0.458  1.7060 -0.3728  0.4397
    9CHTO    N1 3775   6.238   3.738  -0.620  0.3018 -0.4146 -0.1054
    9CHTO    H8 3776   6.243   3.797  -0.711 -2.0222 -0.1869 -0.1079
    9CHTO    H9 3777   6.140   3.752  -0.577  0.7668  0.0243  0.8213
    9CHTO    C4 3778   6.328   3.872  -0.409  1.0000  1.0679 -0.1857
    9CHTO   H17 3779   6.299   3.964  -0.461  0.1603  0.7160 -0.3561
    9CHTO    O1 3780   6.444   3.895  -0.329  0.3332  0.1125  0.3851
    9CHTO    C5 3781   6.570   3.924  -0.391 -0.2867 -0.0011 -0.1616
    9CHTO   H18 3782   6.575   4.018  -0.447 -0.0928 -0.2240 -0.5187
    9CHTO   C16 3783   6.661   3.945  -0.262  0.7057 -0.0003  0.3141
    9CHTO   O11 3784   6.796   3.986  -0.294  0.0589 -0.3268  0.1861
    9CHTO    H5 3785   6.861   3.924  -0.268  0.1151 -0.4323 -0.2024
    9CHTO    O3 3786   6.228   3.836  -0.315 -0.2187  0.6401  0.2979
    9CHTO    C6 3787   6.130   3.944  -0.286  0.9187  0.5667  0.1503
    9CHTO   H19 3788   6.138   4.037  -0.343 -0.7629  1.1936  0.8941
    9CHTO    C8 3789   5.988   3.890  -0.326  0.3730 -0.1116  0.1475
    9CHTO   H21 3790   5.984   3.787  -0.291  0.2538 -0.3025 -0.4118
    9CHTO    O7 3791   5.983   3.890  -0.468 -0.6245 -0.3301 -0.1916
    9CHTO    H2 3792   5.944   3.811  -0.501 -0.0671  0.2612 -2.3894
    9CHTO   C12 3793   5.861   3.972  -0.265 -0.3436  0.0395 -0.1095
    9CHTO   H25 3794   5.860   4.062  -0.330 -0.1331 -0.2769 -0.5545
    9CHTO    N3 3795   5.733   3.897  -0.278  0.8593  0.7965  0.1837
    9CHTO   H12 3796   5.649   3.964  -0.288 -0.6254 -1.1792 -0.8380
    9CHTO   H13 3797   5.746   3.832  -0.363 -0.5910  0.3684  0.2874
    9CHTO   C15 3798   5.890   4.022  -0.117  0.6186 -0.2012 -0.3972
    9CHTO   H28 3799   5.872   3.945  -0.042 -0.1564 -0.0552 -0.4240
    9CHTO   O10 3800   5.797   4.153  -0.072 -0.6221 -0.5922  0.1428
    9CHTO    H4 3801   5.827   4.194   0.007 -1.5241  0.1785  0.0849
    9CHTO    O5 3802   6.025   4.078  -0.108 -0.1918  0.2226 -0.2606
    9CHTO   C10 3803   6.129   3.982  -0.134 -0.6431  0.4244 -0.1106
    9CHTO   H23 3804   6.098   3.890  -0.086 -1.9518  0.4095 -0.9375
    9CHTO   C17 3805   6.260   4.035  -0.069 -0.1368  0.0391 -0.3277
    9CHTO   O12 3806   6.356   3.933  -0.071 -0.4127 -0.2203  0.2863
    9CHTO    H6 3807   6.435   3.965  -0.111 -0.0849 -2.1914 -0.6901
   10CHTO  H203 3808   5.593   6.609   2.530  1.4788  2.3023 -0.4043
   10CHTO   O82 3809   5.575   6.624   2.439  0.6977  0.0995 -0.6569
   10CHTO  C123 3810   5.431   6.638   2.410  0.2996  0.0479  0.4697
   10CHTO  H227 3811   5.418   6.634   2.301  0.8456  1.6043  0.3280
   10CHTO   O77 3812   5.366   6.527   2.476 -0.7812 -0.3203 -0.2740
   10CHTO  C118 3813   5.225   6.523   2.446 -0.2237 -0.0146  0.5450
   10CHTO  H222 3814   5.203   6.533   2.339 -1.1671 -1.7777  0.5452
   10CHTO  C125 3815   5.167   6.384   2.496  0.8949 -0.5719 -0.0171
   10CHTO   O84 3816   5.205   6.278   2.409 -0.2703 -0.1477 -0.6803
   10CHTO  H205 3817   5.240   6.307   2.327 -1.0575  0.2727 -0.8677
   10CHTO  C114 3818   5.160   6.636   2.526 -0.3552  0.4268  0.1963
   10CHTO  H218 3819   5.190   6.621   2.629  2.1320  0.0467 -0.5637
   10CHTO  C116 3820   5.224   6.770   2.469 -0.9121 -0.4059  0.3015
   10CHTO  H220 3821   5.193   6.774   2.363 -0.6117 -1.4760  0.1671
   10CHTO   O79 3822   5.168   6.884   2.532 -0.1972 -0.0900  0.7662
   10CHTO  H201 3823   5.103   6.859   2.595  0.1727 -3.3367 -0.0425
   10CHTO  C120 3824   5.381   6.774   2.481 -0.5060  0.1353  0.1516
   10CHTO  H224 3825   5.401   6.774   2.590 -0.1426  0.5498  0.0836
   10CHTO   N21 3826   5.439   6.889   2.406  0.3990  0.4891  0.0036
   10CHTO  H211 3827   5.379   6.979   2.412  1.0959  1.2128 -3.3174
   10CHTO  H212 3828   5.541   6.902   2.438  0.5945 -0.9537  0.0034
   10CHTO   O75 3829   5.017   6.617   2.521  0.0356  0.7360  0.4918
   10CHTO  C112 3830   4.941   6.621   2.678  0.8139  0.8548  0.3724
   10CHTO  H216 3831   5.006   6.659   2.758  0.4729  0.9655  0.5958
   10CHTO   O73 3832   4.890   6.487   2.707 -0.7895  0.1888  0.4777
   10CHTO  C113 3833   4.839   6.472   2.840  0.2303 -0.0289 -0.3730
   10CHTO  H217 3834   4.917   6.500   2.914  0.7109  2.1807 -1.6662
   10CHTO  C124 3835   4.832   6.317   2.862  0.0640 -0.4753 -0.9487
   10CHTO   O83 3836   4.787   6.285   2.990  0.3784  0.4880 -0.2327
   10CHTO  H204 3837   4.694   6.301   2.991  0.7404  2.7581  2.9826
   10CHTO  C109 3838   4.708   6.554   2.855  0.0545 -0.4059  0.3153
   10CHTO  H213 3839   4.634   6.516   2.783  0.8476  2.0864 -1.9295
   10CHTO  C110 3840   4.734   6.712   2.808  0.4361  0.2975  0.0274
   10CHTO  H214 3841   4.796   6.769   2.878 -0.1787  1.8645 -0.6632
   10CHTO   O78 3842   4.610   6.781   2.808  0.1169  0.0707  0.0865
   10CHTO  H200 3843   4.629   6.873   2.802  0.0688  0.1440  1.0480
   10CHTO  C111 3844   4.810   6.712   2.675 -0.5334  0.3032 -0.1703
   10CHTO  H215 3845   4.744   6.665   2.600 -1.9180 -0.5870  1.5696
   10CHTO   N19 3846   4.849   6.845   2.622  0.3465 -0.3772  0.3861
   10CHTO  H207 3847   4.856   6.920   2.699 -1.1394  0.3067 -0.1396
   10CHTO  H208 3848   4.783   6.876   2.543  0.2220 -1.4503  0.0564
   10CHTO   O74 3849   4.655   6.547   2.993  0.1066  0.3199 -0.1502
   10CHTO  C115 3850   4.493   6.546   3.008 -0.0997 -0.4453  0.6789
   10CHTO  H219 3851   4.445   6.594   2.923  1.1278  0.1988  0.3421
   10CHTO   O76 3852   4.436   6.392   3.009  0.0411  0.5663  0.4429
   10CHTO  C122 3853   4.474   6.326   3.126  0.3009  1.0891 -0.0232
   10CHTO  H226 3854   4.583   6.319   3.116  0.5103 -0.1266  2.8215
   10CHTO  C126 3855   4.418   6.179   3.117  0.5189  0.2838 -0.1584
   10CHTO   O85 3856   4.439   6.092   3.232  0.2138 -0.2708 -0.1444
   10CHTO  H206 3857   4.510   6.037   3.205 -1.1910 -0.7525 -3.1028
   10CHTO  C121 3858   4.422   6.393   3.255 -0.1251 -0.3867 -0.1933
   10CHTO  H225 3859   4.338   6.333   3.295  0.7346 -1.0227  0.6663
   10CHTO   O81 3860   4.526   6.394   3.353  0.4011 -0.1619 -0.5634
   10CHTO  H202 3861   4.527   6.307   3.388 -3.5598  0.3775  1.2366
   10CHTO  C119 3862   4.361   6.537   3.223  0.1210 -0.5667 -0.4425
   10CHTO  H223 3863   4.268   6.518   3.171 -0.3008  1.0511 -0.3266
   10CHTO  C117 3864   4.455   6.621   3.137  0.3720  0.1198  0.3260
   10CHTO  H221 3865   4.547   6.646   3.191 -0.9146  2.0046  1.7260
   10CHTO   N20 3866   4.397   6.750   3.098 -0.2396 -0.7267  0.0153
   10CHTO  H209 3867   4.436   6.836   3.150 -1.2816  0.0208 -0.4139
   10CHTO  H210 3868   4.290   6.761   3.110 -0.3017 -0.2768 -0.8954
   10CHTO   O80 3869   4.297   6.620   3.352  0.0916 -0.3581 -0.0665
   10CHTO  C103 3870   4.138   6.609   3.374  0.9419  0.2172  0.2584
   10CHTO  H190 3871   4.109   6.660   3.465  0.4428 -1.9601  1.3484
   10CHTO  C101 3872   4.047   6.673   3.259 -0.8556  0.2666  0.8055
   10CHTO  H188 3873   4.070   6.625   3.164  0.6559 -0.6186  1.5816
   10CHTO   O68 3874   4.080   6.825   3.264 -0.2804 -0.1589  0.4108
   10CHTO  H168 3875   4.138   6.846   3.194 -0.0244  0.8259  0.8939
   10CHTO   C99 3876   3.902   6.645   3.302 -0.2268  0.3717  0.1296
   10CHTO  H186 3877   3.879   6.697   3.397  2.3914  1.8081  0.0284
   10CHTO   N17 3878   3.798   6.693   3.206 -0.2744 -0.4150 -0.6998
   10CHTO  H174 3879   3.851   6.720   3.116 -0.4671  1.3729 -0.2900
   10CHTO  H175 3880   3.735   6.610   3.176 -1.8987  0.5055  0.1310
   10CHTO   C97 3881   3.871   6.495   3.325 -0.4161 -0.5671 -0.5703
   10CHTO  H184 3882   3.877   6.439   3.231 -2.1437 -1.1490 -0.3424
   10CHTO   O64 3883   3.967   6.447   3.426 -0.0963 -0.8926  0.2148
   10CHTO  C104 3884   4.109   6.457   3.387  0.3843  0.1941  0.0086
   10CHTO  H191 3885   4.132   6.406   3.293  0.8920  1.9089 -0.8149
   10CHTO  C108 3886   4.191   6.389   3.500 -0.4907  0.4258 -0.1061
   10CHTO   O71 3887   4.194   6.249   3.487  0.3109  0.2303  0.3891
   10CHTO  H171 3888   4.214   6.207   3.568  1.5485  2.4859  1.2849
   10CHTO   O62 3889   3.744   6.476   3.388  0.1360  0.1135 -0.1986
   10CHTO   C91 3890   3.690   6.347   3.383 -0.1620 -0.1254  0.1799
   10CHTO  H178 3891   3.675   6.328   3.277  1.5734  1.3090 -0.3241
   10CHTO   C92 3892   3.541   6.360   3.424  0.2669 -0.0091 -0.7134
   10CHTO  H179 3893   3.489   6.450   3.387 -1.2221 -1.1174 -1.4012
   10CHTO   O66 3894   3.463   6.258   3.367  0.2963  0.2081 -0.4374
   10CHTO  H166 3895   3.465   6.266   3.274 -1.2564 -0.8667 -0.5752
   10CHTO   C93 3896   3.515   6.360   3.582 -0.7770  0.2148 -0.6857
   10CHTO  H180 3897   3.412   6.333   3.607 -0.2497  0.4276  1.9194
   10CHTO   N16 3898   3.538   6.490   3.656 -0.0068  0.1359  0.5806
   10CHTO  H172 3899   3.458   6.515   3.724  1.1647  0.6613  1.7877
   10CHTO  H173 3900   3.555   6.573   3.589 -1.1612 -0.3417 -0.3219
   10CHTO   C94 3901   3.617   6.249   3.650  0.0037 -0.6447 -1.2292
   10CHTO  H181 3902   3.704   6.292   3.700 -0.5869 -2.7577  1.7891
   10CHTO   O61 3903   3.672   6.166   3.555  0.3229 -0.2472 -0.2493
   10CHTO   C95 3904   3.755   6.226   3.456 -0.1062  0.1764  0.4257
   10CHTO  H182 3905   3.853   6.253   3.496 -0.1434  0.3407  0.4035
   10CHTO  C106 3906   3.790   6.121   3.353  0.2930  0.1024  0.4254
   10CHTO   O69 3907   3.881   6.031   3.407  0.2811  0.3433  0.5704
   10CHTO  H169 3908   3.955   6.053   3.353  0.8593  2.7474  2.2445
   10CHTO   O63 3909   3.546   6.163   3.751  0.5936 -0.4942 -0.0247
   10CHTO   C96 3910   3.631   6.083   3.855 -0.3399  0.2042 -0.6033
   10CHTO  H183 3911   3.735   6.110   3.835  0.6415 -2.6175  0.4676
   10CHTO   C98 3912   3.609   5.928   3.840  0.2924 -0.5352  0.0807
   10CHTO  H185 3913   3.501   5.912   3.853  0.1257  0.8330  0.4535
   10CHTO   O67 3914   3.639   5.884   3.704 -0.4827 -0.1951 -0.0876
   10CHTO  H167 3915   3.575   5.901   3.637  0.2188 -0.2275 -0.7857
   10CHTO  C102 3916   3.703   5.850   3.945  1.0195  0.3296 -0.2071
   10CHTO  H189 3917   3.805   5.883   3.919  0.9148  1.5794  0.9258
   10CHTO   N18 3918   3.703   5.703   3.925  0.5430  0.1223  0.1084
   10CHTO  H176 3919   3.745   5.678   3.829 -1.5915 -0.2266 -0.7664
   10CHTO  H177 3920   3.605   5.657   3.928  1.6217 -2.2531 -0.1268
   10CHTO  C105 3921   3.676   5.906   4.088 -0.6878  0.0114 -0.4722
   10CHTO  H192 3922   3.581   5.867   4.125 -0.3484  0.5609  0.9626
   10CHTO   O65 3923   3.675   6.050   4.086  0.3095 -0.0864  0.1718
   10CHTO  C100 3924   3.583   6.122   3.997 -0.1986  0.2240  0.0196
   10CHTO  H187 3925   3.485   6.076   4.015 -0.2135  0.3780  0.3331
   10CHTO  C107 3926   3.581   6.271   4.017 -0.4404  0.0482  0.1871
   10CHTO   O70 3927   3.546   6.315   4.148  0.4422  0.6540 -0.7985
   10CHTO  H170 3928   3.599   6.388   4.174  2.4036 -0.8633 -0.4416
   10CHTO   O57 3929   3.805   5.859   4.178 -0.3177 -0.4145 -0.0076
   10CHTO   C85 3930   3.776   5.839   4.313 -0.2856  0.1520 -0.8213
   10CHTO  H157 3931   3.680   5.783   4.310 -0.4541  0.5129 -2.6264
   10CHTO   C83 3932   3.744   5.979   4.377  0.5089 -0.4576 -0.6142
   10CHTO  H155 3933   3.670   6.035   4.319  1.2103  0.7446 -0.3681
   10CHTO   O56 3934   3.867   6.057   4.382 -0.1295 -0.1038 -0.1452
   10CHTO  H135 3935   3.866   6.149   4.403 -0.0047 -0.0772 -0.2529
   10CHTO   C81 3936   3.681   5.954   4.521  0.4752 -0.5500  0.2088
   10CHTO  H153 3937   3.596   5.888   4.507  0.6220 -0.4344 -1.2368
   10CHTO   N14 3938   3.621   6.077   4.583 -0.1073  0.3298 -0.2503
   10CHTO  H141 3939   3.534   6.050   4.640 -0.1578  0.4624 -0.2642
   10CHTO  H142 3940   3.597   6.139   4.499  0.4757 -0.2358 -0.8445
   10CHTO   C79 3941   3.780   5.876   4.617 -0.0257  0.5714 -0.6136
   10CHTO  H151 3942   3.726   5.832   4.700  1.5228 -0.7100 -0.2474
   10CHTO   O52 3943   3.839   5.762   4.545  0.5748  0.5434  0.1571
   10CHTO   C86 3944   3.884   5.773   4.400 -0.5967  0.3567  0.2204
   10CHTO  H158 3945   3.982   5.823   4.407  0.0474 -0.7644 -0.5042
   10CHTO   C90 3946   3.923   5.621   4.348  0.9971 -1.1097  0.4629
   10CHTO   O60 3947   3.984   5.628   4.220  0.0482  0.0670 -0.4921
   10CHTO  H138 3948   4.004   5.543   4.186 -0.2777  0.1413 -0.8660
   10CHTO   O50 3949   3.890   5.962   4.655 -0.3004  0.2243 -0.6699
   10CHTO   C73 3950   3.953   5.936   4.784  0.6423  0.7344  0.5082
   10CHTO  H145 3951   3.946   5.827   4.798 -3.0885  1.0205  1.7364
   10CHTO   C74 3952   3.884   5.997   4.907  0.1466 -0.2068 -0.2084
   10CHTO  H146 3953   3.780   5.963   4.895  0.0147  0.2487 -0.3719
   10CHTO   O54 3954   3.924   5.948   5.037 -0.2180 -0.0893 -0.3247
   10CHTO  H133 3955   3.873   5.978   5.109 -0.8323 -0.9582 -0.3990
   10CHTO   C75 3956   3.896   6.152   4.897  0.9671 -0.3616  0.3167
   10CHTO  H147 3957   3.860   6.185   4.799 -1.4077 -2.9055  0.2541
   10CHTO   N13 3958   3.808   6.216   4.999 -0.1544 -0.2673 -0.2032
   10CHTO  H139 3959   3.727   6.278   4.962 -3.1029 -3.0038  1.3861
   10CHTO  H140 3960   3.852   6.259   5.088 -1.5250 -1.5971  1.1384
   10CHTO   C76 3961   4.046   6.193   4.905  0.1280 -0.5032  0.4341
   10CHTO  H148 3962   4.095   6.158   4.996 -0.7708 -0.3763  0.9744
   10CHTO   O49 3963   4.108   6.127   4.788 -0.8195  0.2469 -0.0610
   10CHTO   C77 3964   4.102   5.984   4.791 -0.2097  0.5197  0.4901
   10CHTO  H149 3965   4.153   5.945   4.879 -0.6187  0.6377  0.7810
   10CHTO   C88 3966   4.176   5.933   4.663  0.5590  0.2305  0.2099
   10CHTO   O58 3967   4.186   5.786   4.644  0.1219  0.1070  0.2683
   10CHTO  H136 3968   4.213   5.751   4.727  1.3384 -0.1139 -0.2194
   10CHTO   O51 3969   4.068   6.336   4.884  0.2442 -0.1582 -0.3233
   10CHTO   C78 3970   4.220   6.394   4.936 -0.6609 -0.3527  0.2297
   10CHTO  H150 3971   4.296   6.315   4.922  0.1483  0.4489  0.0861
   10CHTO   C80 3972   4.221   6.433   5.088 -0.2679 -0.0709 -0.0469
   10CHTO  H152 3973   4.141   6.507   5.109 -0.7015 -0.0672 -1.6569
   10CHTO   O55 3974   4.177   6.319   5.168 -0.0404 -0.3986  0.1560
   10CHTO  H134 3975   4.218   6.235   5.161 -0.3937 -0.5714  0.1454
   10CHTO   C84 3976   4.352   6.501   5.144 -0.3182 -0.0829 -0.4394
   10CHTO  H156 3977   4.430   6.425   5.135  0.6376  0.8966 -0.4511
   10CHTO   N15 3978   4.341   6.545   5.286 -0.1876 -0.0254 -0.2123
   10CHTO  H143 3979   4.337   6.461   5.353 -0.7129 -0.9264 -1.3614
   10CHTO  H144 3980   4.256   6.608   5.303  0.7377  1.0246  0.5455
   10CHTO   C87 3981   4.377   6.617   5.044  0.3047 -0.3121 -0.0419
   10CHTO  H159 3982   4.300   6.694   5.049  1.3907  0.7642  0.2036
   10CHTO   O53 3983   4.379   6.564   4.898  0.1773  0.0677  0.5453
   10CHTO   C82 3984   4.256   6.514   4.847  0.5996  0.4976 -0.1996
   10CHTO  H154 3985   4.177   6.589   4.841 -0.2542 -0.4336 -0.6894
   10CHTO   C89 3986   4.275   6.465   4.709  0.2757  0.0196  0.2009
   10CHTO   O59 3987   4.328   6.566   4.625 -0.0037 -0.3392  0.1448
   10CHTO  H137 3988   4.331   6.529   4.539  0.4553  0.6914 -0.2858
   10CHTO   O45 3989   4.513   6.672   5.061  0.0787 -0.4554  0.1816
   10CHTO   C67 3990   4.514   6.823   5.073  0.4808  0.4522 -0.4256
   10CHTO  H124 3991   4.449   6.860   4.994 -1.9167  3.1982  2.6496
   10CHTO   C65 3992   4.465   6.888   5.209 -0.3287  0.4806  0.1640
   10CHTO  H122 3993   4.476   6.812   5.287  0.4805 -0.2370 -0.6287
   10CHTO   O44 3994   4.326   6.919   5.194  0.0978 -0.1131  0.0461
   10CHTO  H102 3995   4.284   6.956   5.269 -0.8968  0.1560 -0.6301
   10CHTO   C63 3996   4.565   7.004   5.251  0.0869  0.1572 -0.4329
   10CHTO  H120 3997   4.657   6.958   5.288  0.7095  1.7276  0.0002
   10CHTO   N11 3998   4.525   7.087   5.371  0.9577  0.0569 -0.3802
   10CHTO  H108 3999   4.533   7.191   5.346  0.9423  0.7844  2.4891
   10CHTO  H109 4000   4.426   7.062   5.402  0.5834  0.7391 -0.9963
   10CHTO   C61 4001   4.624   7.094   5.128  0.1322 -0.0533 -0.5622
   10CHTO  H118 4002   4.717   7.138   5.165 -0.0928  2.0642 -2.4070
   10CHTO   O40 4003   4.662   7.013   5.018 -0.1774  0.4143 -0.5056
   10CHTO   C68 4004   4.658   6.866   5.030  0.5221 -0.0410 -0.0094
   10CHTO  H125 4005   4.736   6.835   5.103 -0.0694  3.0979  2.0173
   10CHTO   C72 4006   4.698   6.826   4.888 -0.0072 -0.9569  0.8649
   10CHTO   O48 4007   4.839   6.842   4.868 -0.3764  0.0202  0.2159
   10CHTO  H105 4008   4.860   6.793   4.791 -0.6477 -0.7185  0.6110
   10CHTO   O38 4009   4.536   7.182   5.061 -0.2185  0.0409  0.4690
   10CHTO   C55 4010   4.580   7.310   5.005  0.3681  0.4028  0.2688
   10CHTO  H112 4011   4.494   7.343   4.944  1.0291 -0.2995 -1.0666
   10CHTO   C56 4012   4.718   7.298   4.921 -0.4554  0.0553 -0.6112
   10CHTO  H113 4013   4.790   7.253   4.990  0.6377 -0.5929 -2.1574
   10CHTO   O42 4014   4.714   7.208   4.809  0.3363  0.0127 -0.0345
   10CHTO  H100 4015   4.692   7.120   4.835  0.3942 -0.2233 -0.7721
   10CHTO   C57 4016   4.771   7.442   4.886 -0.0987  0.5786  0.0881
   10CHTO  H114 4017   4.708   7.473   4.803 -2.2096  1.7514  2.0416
   10CHTO   N10 4018   4.905   7.441   4.828 -0.2112 -0.0891 -0.4809
   10CHTO  H106 4019   4.927   7.350   4.775  1.3874  0.6662 -1.1522
   10CHTO  H107 4020   4.980   7.459   4.905  0.2993 -1.6187 -0.6113
   10CHTO   C58 4021   4.759   7.546   5.000  0.1380  0.2807 -0.7401
   10CHTO  H115 4022   4.836   7.521   5.077 -0.2185 -1.3943 -0.9045
   10CHTO   O37 4023   4.623   7.538   5.051  0.4603  0.0668  0.1118
   10CHTO   C59 4024   4.595   7.418   5.116  0.2064 -0.1279  0.2098
   10CHTO  H116 4025   4.672   7.392   5.188  2.0213  1.3830 -1.1499
   10CHTO   C70 4026   4.463   7.432   5.202 -0.5408  0.4984  0.0640
   10CHTO   O46 4027   4.454   7.552   5.288  0.1495 -0.2456 -0.1277
   10CHTO  H103 4028   4.370   7.581   5.319 -0.3102 -1.5146 -0.1645
   10CHTO   O39 4029   4.766   7.703   4.944 -0.0733 -0.2945  0.4960
   10CHTO   C60 4030   4.828   7.795   5.033 -0.3186 -0.7611 -0.3860
   10CHTO  H117 4031   4.841   7.749   5.131  0.9993  0.4693  0.0247
   10CHTO   C62 4032   4.970   7.838   4.991 -0.6591 -0.5075  0.0076
   10CHTO  H119 4033   5.040   7.753   5.008 -0.1055 -0.0068  0.2474
   10CHTO   O43 4034   4.975   7.854   4.841  0.1741 -0.4859 -0.0292
   10CHTO  H101 4035   4.930   7.782   4.801 -0.4540  0.1818 -0.5325
   10CHTO   C66 4036   5.027   7.968   5.074 -0.7465  0.0476 -0.1408
   10CHTO  H123 4037   5.032   7.944   5.180 -0.0029  1.0186  0.0464
   10CHTO   N12 4038   5.170   8.000   5.039  0.2144  0.1296  0.1799
   10CHTO  H110 4039   5.207   7.934   4.961 -1.0141  0.2866 -0.5496
   10CHTO  H111 4040   5.238   7.986   5.122  2.8577 -0.9687 -2.0842
   10CHTO   C69 4041   4.931   8.090   5.056  0.3285 -1.0741  0.5771
   10CHTO  H126 4042   4.910   8.109   4.948 -0.4066  2.0890  1.2331
   10CHTO   O41 4043   4.791   8.042   5.123 -0.2581  0.1085 -0.0910
   10CHTO   C64 4044   4.722   7.909   5.053  0.2746 -0.3226  0.3902
   10CHTO  H121 4045   4.678   7.937   4.955  1.7141  0.4838 -0.0473
   10CHTO   C71 4046   4.601   7.870   5.140 -0.1026  0.3124  0.0704
   10CHTO   O47 4047   4.482   7.936   5.101 -0.3907 -0.0906  0.1567
   10CHTO  H104 4048   4.405   7.912   5.148 -0.0869 -0.6924  0.3461
   10CHTO   O34 4049   4.986   8.233   5.127 -0.1478  0.4397  0.6383
   10CHTO   C49 4050   5.089   8.339   5.063  0.1992 -0.0028 -0.5959
   10CHTO   H91 4051   5.180   8.288   5.032  0.9300  0.9256 -0.0084
   10CHTO   C47 4052   5.121   8.456   5.163 -0.2938  0.7000  0.0839
   10CHTO   H89 4053   5.187   8.534   5.121 -1.8191  1.1881 -1.4692
   10CHTO   O33 4054   5.189   8.389   5.268 -0.0185 -0.3571 -1.5888
   10CHTO   H70 4055   5.183   8.448   5.341 -1.9525 -0.1745 -1.8855
   10CHTO   C45 4056   4.984   8.534   5.192  0.0538  0.3494 -0.0517
   10CHTO   H87 4057   4.903   8.467   5.224  0.2753 -0.1341 -0.5077
   10CHTO    N8 4058   5.010   8.631   5.303 -0.5077 -0.9626  0.3975
   10CHTO   H75 4059   5.111   8.661   5.323 -0.6619  0.5853 -1.0242
   10CHTO   H76 4060   4.954   8.724   5.297  2.7224  0.9368 -1.8524
   10CHTO   C43 4061   4.917   8.595   5.055  0.3149  0.6644 -0.6058
   10CHTO   H85 4062   4.814   8.617   5.082  0.4583  0.7160 -0.0960
   10CHTO   O29 4063   4.920   8.498   4.951  0.0332 -0.1995 -0.6400
   10CHTO   C50 4064   5.034   8.408   4.932 -0.1091  0.0274  0.4541
   10CHTO   H92 4065   4.989   8.334   4.864  0.4894  0.9030 -0.9018
   10CHTO   C54 4066   5.137   8.494   4.852 -0.5879  0.2153 -0.1201
   10CHTO   O36 4067   5.275   8.448   4.877 -0.1508  0.3144  0.0668
   10CHTO   H72 4068   5.334   8.446   4.804  0.2844 -0.9416  0.4538
   10CHTO   O27 4069   4.977   8.715   5.008 -0.0530  0.3534  0.4727
   10CHTO   C37 4070   4.976   8.835   4.930 -0.4609 -0.5991 -0.6542
   10CHTO   H79 4071   5.072   8.862   4.884 -0.2626  2.5283  1.4805
   10CHTO   C38 4072   4.868   8.832   4.815 -0.5377 -0.4709 -0.5478
   10CHTO   H80 4073   4.772   8.799   4.857  0.1123 -1.6033  0.0802
   10CHTO   O31 4074   4.910   8.731   4.712  0.4346  0.0809  0.1104
   10CHTO   H68 4075   4.835   8.699   4.666  0.2458 -0.6343  0.8963
   10CHTO   C39 4076   4.840   8.976   4.748 -0.1082  0.2245 -0.1342
   10CHTO   H81 4077   4.934   9.001   4.699  0.8137 -0.3875  1.2614
   10CHTO    N7 4078   4.721   8.976   4.657 -0.3582  0.6211  0.3973
   10CHTO   H73 4079   4.702   9.078   4.627  1.4916  0.6898 -0.5564
   10CHTO   H74 4080   4.718   8.905   4.576  1.6405  0.9196  0.0327
   10CHTO   C40 4081   4.837   9.096   4.847 -0.1067  0.4386 -0.3137
   10CHTO   H82 4082   4.737   9.111   4.888 -0.5788 -1.8165 -0.5477
   10CHTO   O26 4083   4.938   9.082   4.951  0.2190 -0.6695  0.3437
   10CHTO   C41 4084   4.934   8.953   5.021 -0.0393  0.1362  0.0714
   10CHTO   H83 4085   4.830   8.929   5.050  0.3844 -3.1769 -0.9436
   10CHTO   C52 4086   5.026   8.971   5.147 -0.1748  0.1161 -0.2165
   10CHTO   O35 4087   4.960   9.052   5.265 -0.5650  0.1163  0.1101
   10CHTO   H71 4088   4.953   9.144   5.250 -0.5286 -0.1183 -1.4385
   10CHTO   O28 4089   4.869   9.209   4.775  0.2458  0.0933  0.4782
   10CHTO   C42 4090   4.831   9.343   4.822  0.9944 -0.3487 -0.6503
   10CHTO   H84 4091   4.790   9.338   4.923 -1.3876  1.7001 -1.4699
   10CHTO   C44 4092   4.725   9.409   4.732  0.6993  0.8897 -0.7372
   10CHTO   H86 4093   4.758   9.416   4.628  1.5789  2.2092 -0.3765
   10CHTO   O32 4094   4.603   9.328   4.731  0.4262  0.7623  0.0467
   10CHTO   H69 4095   4.583   9.302   4.819 -0.4573 -0.0633 -0.3881
   10CHTO   C48 4096   4.685   9.561   4.771 -0.0874 -0.3425  0.4332
   10CHTO   H90 4097   4.627   9.566   4.863  0.8701  2.9000  0.9154
   10CHTO    N9 4098   4.589   9.630   4.675 -0.1545 -0.2595 -0.3569
   10CHTO   H77 4099   4.627   9.639   4.575 -1.0500 -1.3695 -0.8111
   10CHTO   H78 4100   4.486   9.598   4.675 -0.2004 -0.1479  1.0136
   10CHTO   C51 4101   4.817   9.645   4.790 -0.5815 -0.2207  0.0074
   10CHTO   H93 4102   4.862   9.663   4.693  0.3672  2.1097  0.8454
   10CHTO   O30 4103   4.899   9.573   4.880 -0.4683 -0.2628 -0.3187
   10CHTO   C46 4104   4.953   9.445   4.831  0.6262 -0.1246  0.4989
   10CHTO   H88 4105   5.008   9.463   4.738  0.1679  0.3125  0.3105
   10CHTO   C53 4106   5.052   9.401   4.945  0.4521  0.1058  0.0762
   10CHTO   O72 4107   5.161   9.490   4.942  0.2654  0.0038  1.0417
   10CHTO  H199 4108   5.184   9.498   5.033  0.1230  0.0125  1.0780
   10CHTO   O22 4109   4.780   9.770   4.853  0.2339 -0.3184  0.4606
   10CHTO   C31 4110   4.858   9.893   4.822 -1.0474 -0.2026  0.2931
   10CHTO   H59 4111   4.831   9.960   4.906 -2.9322 -2.5779  1.6823
   10CHTO   C29 4112   5.010   9.875   4.830 -0.2325 -0.2639 -0.7559
   10CHTO   H57 4113   5.026   9.809   4.743  0.4513 -1.8711  0.5577
   10CHTO   O21 4114   5.045   9.812   4.955 -0.2577  0.1565 -0.2669
   10CHTO   H37 4115   5.026   9.860   5.033  1.8281  2.8713 -1.3412
   10CHTO   C27 4116   5.085  10.011   4.813 -0.3295 -0.2656  0.2756
   10CHTO   H55 4117   5.060  10.077   4.898  1.1985 -0.4925  0.9021
   10CHTO    N5 4118   5.230   9.992   4.816 -1.2387 -0.2051 -0.2400
   10CHTO   H43 4119   5.261   9.925   4.737  2.1821  0.9145  0.0648
   10CHTO   H44 4120   5.287  10.083   4.820  0.4856 -1.2802  0.5460
   10CHTO   C25 4121   5.034  10.088   4.684  0.3132 -0.1217 -0.5782
   10CHTO   H53 4122   5.076  10.035   4.597  1.8808  1.7654 -1.0089
   10CHTO   O17 4123   4.887  10.094   4.684 -0.5384 -0.0131  0.7031
   10CHTO   C32 4124   4.821   9.968   4.687 -0.0858 -0.1166  0.6355
   10CHTO   H60 4125   4.854   9.915   4.598  0.7963  0.4416  0.6325
   10CHTO   C36 4126   4.669   9.989   4.678  0.1312 -0.2994 -0.1097
   10CHTO   O25 4127   4.620  10.076   4.574 -0.5006  0.8501  0.1112
   10CHTO   H40 4128   4.530  10.087   4.596 -0.7175  0.1247 -0.3910
   10CHTO   O15 4129   5.110  10.247   4.677  0.3024 -0.1379 -0.6482
   10CHTO   C19 4130   5.103  10.338   4.567  0.1765 -0.2203  0.5557
   10CHTO   H47 4131   5.037  10.283   4.498 -0.6867  0.4415  0.8517
   10CHTO   C20 4132   5.042  10.484   4.586  0.4413 -0.0207 -0.3290
   10CHTO   H48 4133   5.093  10.538   4.667  0.9855 -4.1145  2.1958
   10CHTO   O19 4134   4.904  10.471   4.624 -0.1048 -0.3548 -0.4033
   10CHTO   H35 4135   4.895  10.422   4.703 -1.3719  0.1618 -0.2143
   10CHTO   C21 4136   5.056  10.568   4.454 -0.2461  0.8120 -0.8516
   10CHTO   H49 4137   4.984  10.528   4.383  0.2463 -3.3283  0.8346
   10CHTO    N4 4138   5.017  10.714   4.464  0.0723  0.2350 -0.2942
   10CHTO   H41 4139   4.913  10.723   4.493 -0.4429 -1.5873 -1.4351
   10CHTO   H42 4140   5.034  10.766   4.371 -2.1904 -0.0559 -0.9134
   10CHTO   C22 4141   5.191  10.555   4.387 -0.5438  0.1073  0.1687
   10CHTO   H50 4142   5.268  10.606   4.445  0.6570 -0.8763 -0.5361
   10CHTO   O14 4143   5.221  10.414   4.374 -0.3192 -0.2612 -0.2239
   10CHTO   C23 4144   5.239  10.345   4.496  0.9778  0.4798  0.1069
   10CHTO   H51 4145   5.312  10.401   4.556  2.2413 -1.2099  0.1755
   10CHTO   C34 4146   5.294  10.207   4.465 -0.0958 -0.9665  0.0211
   10CHTO   O23 4147   5.435  10.206   4.427  0.3609 -0.5051  0.5067
   10CHTO   H38 4148   5.445  10.213   4.334 -0.0794 -0.1531  0.4811
   10CHTO   O16 4149   5.195  10.604   4.248  0.2921 -1.0189  0.0347
   10CHTO   C24 4150   5.349  10.657   4.224  0.2284 -0.2514 -0.0437
   10CHTO   H52 4151   5.419  10.622   4.300  1.3335  0.8659 -0.5228
   10CHTO   C26 4152   5.355  10.810   4.219  0.1180 -0.1057  0.6169
   10CHTO   H54 4153   5.288  10.841   4.136  1.4174 -0.4299 -0.5812
   10CHTO   O20 4154   5.318  10.872   4.348  0.3294 -0.1504 -0.0811
   10CHTO   H36 4155   5.244  10.830   4.387 -0.0861  0.4857 -0.1715
   10CHTO   C30 4156   5.494  10.858   4.176  0.3287  0.6300  0.4097
   10CHTO   H58 4157   5.559  10.833   4.261 -1.1817  0.7885  1.6324
   10CHTO    N6 4158   5.502  11.005   4.156 -0.6055 -1.0732 -0.0213
   10CHTO   H45 4159   5.412  11.064   4.167  2.0732  2.5357  4.1642
   10CHTO   H46 4160   5.548  11.027   4.061 -0.2171 -1.7399  0.0118
   10CHTO   C33 4161   5.555  10.776   4.055 -0.1657 -0.8218 -0.2433
   10CHTO   H61 4162   5.508  10.812   3.962 -0.2336 -0.7523 -0.1825
   10CHTO   O18 4163   5.532  10.632   4.068  0.0076 -0.3914 -0.6761
   10CHTO   C28 4164   5.392  10.590   4.089 -0.1774 -0.0772  0.0324
   10CHTO   H56 4165   5.330  10.633   4.010 -1.4739  0.4826  1.3353
   10CHTO   C35 4166   5.383  10.436   4.089 -0.0215 -0.4435  0.4679
   10CHTO   O24 4167   5.456  10.383   4.195  0.3254 -0.0984 -0.3653
   10CHTO   H39 4168   5.488  10.297   4.173 -1.2820 -0.2516 -2.2346
   10CHTO    O9 4169   5.694  10.808   4.040 -0.3142  0.5065 -0.2612
   10CHTO   C13 4170   5.748  10.781   3.902  0.4751  0.4072  0.4378
   10CHTO   H26 4171   5.679  10.826   3.827 -0.3889  0.5230  1.2970
   10CHTO   C11 4172   5.764  10.623   3.878 -0.0846  0.2116  0.1963
   10CHTO   H24 4173   5.666  10.573   3.877  0.4456 -0.8418 -0.1331
   10CHTO    O8 4174   5.830  10.564   3.988 -0.2553  0.0816 -0.5976
   10CHTO    H3 4175   5.792  10.582   4.072 -0.8256 -0.3568 -0.7620
   10CHTO    C9 4176   5.831  10.601   3.739  0.5705  0.5620  0.3603
   10CHTO   H22 4177   5.779  10.669   3.668 -0.7668 -0.3503  0.4443
   10CHTO    N2 4178   5.827  10.464   3.687 -0.7612 -0.2725 -0.1010
   10CHTO   H10 4179   5.872  10.456   3.589 -0.8636  1.8010 -0.3322
   10CHTO   H11 4180   5.724  10.432   3.692 -0.5345 -0.8830  0.7631
   10CHTO    C7 4181   5.972  10.656   3.734 -0.3141  0.0135 -0.2490
   10CHTO   H20 4182   6.008  10.647   3.629  0.7346 -0.0298  0.1039
   10CHTO    O4 4183   5.965  10.799   3.770 -0.3744 -0.3032  0.0632
   10CHTO   C14 4184   5.890  10.849   3.881  0.0701 -0.0508 -0.3990
   10CHTO   H27 4185   5.861  10.954   3.859  0.6894  0.8509  2.9121
   10CHTO   C18 4186   5.984  10.857   4.006  0.1197  0.8500  1.4197
   10CHTO   O13 4187   6.105  10.933   3.985 -0.5905 -0.8609  0.2587
   10CHTO    H7 4188   6.095  11.013   4.034  1.3897 -0.3315 -0.1584
   10CHTO    O2 4189   6.072  10.570   3.844  0.3870  0.2462 -0.1597
   10CHTO    C1 4190   6.211  10.557   3.812  0.0978 -0.2206  0.0001
   10CHTO   H14 4191   6.253  10.660   3.810  1.3376 -0.7170  0.3646
   10CHTO    C2 4192   6.233  10.483   3.670 -0.1983  0.4807  0.1399
   10CHTO   H15 4193   6.150  10.412   3.660  1.2097 -1.3101  0.8302
   10CHTO    O6 4194   6.233  10.578   3.564 -0.0025 -0.0401 -0.0353
   10CHTO    H1 4195   6.157  10.561   3.511 -0.1956 -0.8831  0.5049
   10CHTO    C3 4196   6.371  10.403   3.644  0.1467 -0.6333  0.6618
   10CHTO   H16 4197   6.443  10.474   3.600  0.7523 -1.1755  0.7694
   10CHTO    N1 4198   6.356  10.297   3.543  0.1546 -0.2018 -0.1753
   10CHTO    H8 4199   6.252  10.296   3.513 -0.1708 -1.4822  0.9238
   10CHTO    H9 4200   6.382  10.198   3.576 -3.3147 -0.7015  1.3263
   10CHTO    C4 4201   6.441  10.351   3.776 -0.5026 -0.1418  0.0813
   10CHTO   H17 4202   6.397  10.256   3.810  1.5774 -0.9700  0.4993
   10CHTO    O1 4203   6.423  10.450   3.881 -0.0262  0.3196 -0.1758
   10CHTO    C5 4204   6.287  10.482   3.927  0.3002  0.5224 -0.0430
   10CHTO   H18 4205   6.242  10.385   3.946  0.3117  0.6838  0.8182
   10CHTO   C16 4206   6.287  10.562   4.060  0.1474  0.4410  0.5190
   10CHTO   O11 4207   6.155  10.569   4.115 -0.0429 -0.3190  0.0190
   10CHTO    H5 4208   6.142  10.489   4.162  0.0215  0.6256  1.6579
   10CHTO    O3 4209   6.582  10.347   3.764 -0.4337 -0.7632 -0.2460
   10CHTO    C6 4210   6.648  10.217   3.756 -0.1811  0.0774 -0.1712
   10CHTO   H19 4211   6.580  10.132   3.755 -1.2170  0.8692  0.8392
   10CHTO    C8 4212   6.748  10.212   3.640 -0.2601  0.5124  0.4374
   10CHTO   H21 4213   6.802  10.307   3.635  1.3098 -0.4285 -0.6508
   10CHTO    O7 4214   6.680  10.198   3.512 -0.4317 -0.2907  0.2685
   10CHTO    H2 4215   6.748  10.211   3.449 -0.9921  0.0938 -0.2591
   10CHTO   C12 4216   6.857  10.093   3.650 -0.4231  0.2999  1.0107
   10CHTO   H25 4217   6.799   9.999   3.635  1.6013 -0.5324 -2.2170
   10CHTO    N3 4218   6.969  10.089   3.545 -0.2055 -0.2364  0.1576
   10CHTO   H12 4219   6.924  10.105   3.448 -1.7689  1.6263  1.1506
   10CHTO   H13 4220   7.036  10.167   3.578 -1.0235  0.2724  0.6210
   10CHTO   C15 4221   6.923  10.096   3.795  0.4182  0.5146  1.1440
   10CHTO   H28 4222   6.980  10.188   3.806  1.4235  0.0348  0.0759
   10CHTO   O10 4223   7.021   9.988   3.844 -0.7574  0.2173 -0.3087
   10CHTO    H4 4224   6.973   9.908   3.850  0.2042 -0.3529 -0.1354
   10CHTO    O5 4225   6.817  10.096   3.894  0.3473  0.0062  0.6670
   10CHTO   C10 4226   6.724  10.208   3.897 -0.2894  0.0334  0.1433
   10CHTO   H23 4227   6.781  10.299   3.912  0.7047 -0.6080  0.3210
   10CHTO   C17 4228   6.619  10.189   4.012  0.3754 -0.3633 -0.5714
   10CHTO   O12 4229   6.553  10.067   4.007  0.0426  0.2227 -0.3547
   10CHTO    H6 4230   6.514  10.052   4.091 -2.2240  2.1662 -1.0088
   11CHTO  H203 4231   7.749   4.914   0.235 -0.6070  0.2545  0.3742
   11CHTO   O82 4232   7.667   4.956   0.221 -0.0019  1.2635 -0.1602
   11CHTO  C123 4233   7.667   5.083   0.272  0.3743 -0.8322 -0.1570
   11CHTO  H227 4234   7.699   5.152   0.192 -0.8821  0.2038  0.2235
   11CHTO   O77 4235   7.523   5.103   0.297  0.2758 -0.2793 -0.2702
   11CHTO  C118 4236   7.492   5.244   0.309  1.2646  0.2520 -0.2694
   11CHTO  H222 4237   7.516   5.289   0.212 -0.9859 -0.9407 -1.4338
   11CHTO  C125 4238   7.338   5.250   0.324  0.0957  0.6537 -0.3629
   11CHTO   O84 4239   7.290   5.170   0.433  0.2354 -0.7576 -0.5233
   11CHTO  H205 4240   7.198   5.191   0.434  0.0865 -1.2095 -2.1517
   11CHTO  C114 4241   7.569   5.307   0.432  0.7475 -0.6870 -0.0262
   11CHTO  H218 4242   7.525   5.263   0.522  1.4044 -1.0084  0.1425
   11CHTO  C116 4243   7.724   5.272   0.437  0.1222  0.0477  0.9557
   11CHTO  H220 4244   7.778   5.331   0.360 -0.6734  0.3952  0.6633
   11CHTO   O79 4245   7.778   5.313   0.563  0.0551 -0.3046  0.2935
   11CHTO  H201 4246   7.720   5.280   0.629 -2.0480 -0.4734 -1.5834
   11CHTO  C120 4247   7.744   5.117   0.405  0.2137  0.4432  0.1991
   11CHTO  H224 4248   7.687   5.063   0.482  0.4623 -0.1339 -0.0217
   11CHTO   N21 4249   7.883   5.080   0.406 -0.0432 -0.2377  0.3731
   11CHTO  H211 4250   7.913   4.999   0.341 -0.6128  0.1359 -0.3610
   11CHTO  H212 4251   7.904   5.056   0.509  3.2993 -2.9219 -0.8320
   11CHTO   O75 4252   7.539   5.449   0.413  0.1254  0.4790 -0.2855
   11CHTO  C112 4253   7.474   5.508   0.569  0.5729 -0.6034 -0.1425
   11CHTO  H216 4254   7.535   5.476   0.654 -1.4287 -1.8787  0.8397
   11CHTO   O73 4255   7.335   5.459   0.581 -0.0373  0.1248 -0.3689
   11CHTO  C113 4256   7.257   5.499   0.700  0.0223  0.1283 -0.8725
   11CHTO  H217 4257   7.298   5.457   0.794 -0.0518 -1.2241 -1.4368
   11CHTO  C124 4258   7.123   5.433   0.666  0.7869 -0.2459  0.1311
   11CHTO   O83 4259   7.048   5.365   0.772  0.5046 -0.5984  0.0720
   11CHTO  H204 4260   7.039   5.430   0.839  1.1500  0.5161 -0.9106
   11CHTO  C109 4261   7.252   5.652   0.717 -0.3056 -0.1058 -0.1941
   11CHTO  H213 4262   7.203   5.692   0.627  3.3647  0.8570 -1.8507
   11CHTO  C110 4263   7.396   5.716   0.711  0.3464 -0.3760 -0.1780
   11CHTO  H214 4264   7.457   5.684   0.796 -0.2777 -0.3676  0.2719
   11CHTO   O78 4265   7.372   5.853   0.722  0.1249 -0.0777  0.0326
   11CHTO  H200 4266   7.455   5.897   0.720 -0.1255  0.3431 -1.2244
   11CHTO  C111 4267   7.460   5.664   0.577 -0.7385 -0.7231  0.5221
   11CHTO  H215 4268   7.400   5.699   0.492  0.8530 -0.2527 -0.4183
   11CHTO   N19 4269   7.595   5.720   0.556 -0.1373  0.0594  0.1236
   11CHTO  H207 4270   7.631   5.684   0.461 -1.3007  0.4362 -0.4592
   11CHTO  H208 4271   7.594   5.827   0.565 -1.1627  0.0912 -0.3736
   11CHTO   O74 4272   7.173   5.697   0.838  0.1317  0.1015 -0.1430
   11CHTO  C115 4273   7.054   5.813   0.788  0.7711  0.3951  0.0631
   11CHTO  H219 4274   7.086   5.869   0.700  0.7932 -1.3990 -1.0958
   11CHTO   O76 4275   6.918   5.740   0.743 -0.6686 -0.0310 -0.1535
   11CHTO  C122 4276   6.819   5.827   0.684  0.0537  0.5774  0.6372
   11CHTO  H226 4277   6.733   5.762   0.667  1.8408 -1.8242  0.6569
   11CHTO  C126 4278   6.862   5.872   0.536 -0.5120  0.5148  0.0157
   11CHTO   O85 4279   6.872   5.770   0.434  0.1735 -0.0986 -0.5025
   11CHTO  H206 4280   6.801   5.711   0.450  0.6167 -0.6843 -0.6956
   11CHTO  C121 4281   6.784   5.955   0.776 -0.2536  0.2510 -0.3239
   11CHTO  H225 4282   6.732   6.025   0.706 -1.1909  0.6366  0.7496
   11CHTO   O81 4283   6.694   5.903   0.880  0.2744  0.0987  0.3413
   11CHTO  H202 4284   6.745   5.860   0.945 -1.5725  2.1676  3.2479
   11CHTO  C119 4285   6.904   6.025   0.843  0.1189 -0.4896 -0.0895
   11CHTO  H223 4286   6.958   6.077   0.763 -1.9362  0.5443 -0.8509
   11CHTO  C117 4287   7.014   5.919   0.895  0.1944 -0.0951  0.1125
   11CHTO  H221 4288   6.995   5.861   0.985 -0.4420  1.0810  0.7433
   11CHTO   N20 4289   7.139   5.992   0.936  0.4046 -0.0791  0.0546
   11CHTO  H209 4290   7.203   5.920   0.985  0.4711  0.0416  0.1466
   11CHTO  H210 4291   7.101   6.066   1.006 -1.5881 -0.1391 -0.9186
   11CHTO   O80 4292   6.867   6.147   0.934  0.6543  0.3805 -0.1166
   11CHTO  C103 4293   6.789   6.124   1.088  0.1593  0.2098  0.4542
   11CHTO  H190 4294   6.699   6.062   1.077 -0.7452  1.1254  2.4608
   11CHTO  C101 4295   6.873   6.078   1.205 -0.3278 -0.0996 -0.9617
   11CHTO  H188 4296   6.970   6.128   1.198 -0.5684  0.5016 -0.1678
   11CHTO   O68 4297   6.892   5.924   1.201  0.4658  0.4988 -0.0676
   11CHTO  H168 4298   6.937   5.905   1.121 -1.6482 -0.0663 -1.1862
   11CHTO   C99 4299   6.813   6.130   1.346  0.1259 -0.3144  0.3366
   11CHTO  H186 4300   6.714   6.082   1.364  0.8069 -2.0153 -0.3850
   11CHTO   N17 4301   6.905   6.096   1.462 -0.1808 -0.0890  0.0737
   11CHTO  H174 4302   6.852   6.019   1.517 -0.3063 -1.4766 -1.9538
   11CHTO  H175 4303   6.999   6.067   1.420  0.9492  4.4420 -0.8203
   11CHTO   C97 4304   6.778   6.280   1.347 -0.2615  0.2263  0.6075
   11CHTO  H184 4305   6.870   6.337   1.331  0.9671 -1.3245  2.0637
   11CHTO   O64 4306   6.685   6.292   1.238  0.3522  0.2946 -0.2751
   11CHTO  C104 4307   6.737   6.273   1.106  0.5181 -0.3856 -0.3171
   11CHTO  H191 4308   6.818   6.343   1.089 -0.1229 -0.0881 -2.2968
   11CHTO  C108 4309   6.640   6.312   0.995 -0.3562  0.0897  0.1197
   11CHTO   O71 4310   6.504   6.266   1.018 -0.2494  0.0743  0.3543
   11CHTO  H171 4311   6.482   6.294   1.105  2.8244  1.0084  0.9124
   11CHTO   O62 4312   6.704   6.321   1.463  0.1074  0.2555 -0.3436
   11CHTO   C91 4313   6.685   6.464   1.474 -0.2418  0.1683  0.0646
   11CHTO  H178 4314   6.697   6.509   1.375 -0.6644  2.3060  0.9588
   11CHTO   C92 4315   6.799   6.524   1.556 -0.7510 -0.2728  0.1840
   11CHTO  H179 4316   6.807   6.479   1.657 -0.2418 -2.2522 -0.7155
   11CHTO   O66 4317   6.923   6.495   1.494 -0.0203  0.4804 -0.4425
   11CHTO  H166 4318   6.955   6.415   1.533 -1.9035  0.0898  0.3392
   11CHTO   C93 4319   6.772   6.683   1.580 -0.3065 -0.2476  0.6458
   11CHTO  H180 4320   6.794   6.729   1.482 -0.6736 -0.2676  0.5559
   11CHTO   N16 4321   6.862   6.746   1.683  0.2234 -0.3218 -0.2623
   11CHTO  H172 4322   6.882   6.849   1.657  0.2017 -0.0107  0.9410
   11CHTO  H173 4323   6.832   6.742   1.786 -1.4336  0.5779 -0.6866
   11CHTO   C94 4324   6.621   6.718   1.618  0.7624  0.2423  1.8867
   11CHTO  H181 4325   6.591   6.688   1.718 -1.5339 -2.2631  0.5084
   11CHTO   O61 4326   6.532   6.650   1.524 -0.0055 -0.2388  0.8956
   11CHTO   C95 4327   6.545   6.510   1.530 -0.6185  0.0026 -0.4188
   11CHTO  H182 4328   6.536   6.476   1.633  0.1447  2.0913  0.3558
   11CHTO  C106 4329   6.424   6.440   1.452 -0.6140 -0.6137 -0.4363
   11CHTO   O69 4330   6.385   6.487   1.328 -0.3322  0.4333 -0.2576
   11CHTO  H169 4331   6.453   6.478   1.264 -0.6360 -0.8425 -0.4095
   11CHTO   O63 4332   6.598   6.880   1.597 -0.2330  0.0240 -0.2386
   11CHTO   C96 4333   6.586   6.965   1.736 -0.2873 -0.7551  0.3327
   11CHTO  H183 4334   6.659   6.926   1.807 -0.4401  0.3890  1.1393
   11CHTO   C98 4335   6.441   6.970   1.799 -0.0961  0.2130  0.0719
   11CHTO  H185 4336   6.373   7.034   1.740 -0.0867 -0.9089 -1.1644
   11CHTO   O67 4337   6.381   6.842   1.794 -0.5579 -0.4736 -0.3141
   11CHTO  H167 4338   6.421   6.786   1.858 -1.7030 -1.7826 -0.7143
   11CHTO  C102 4339   6.455   7.018   1.950 -0.1156 -0.4589 -0.5278
   11CHTO  H189 4340   6.509   6.937   2.000  0.8414  0.5369  0.0833
   11CHTO   N18 4341   6.333   7.037   2.027 -0.0974  0.0754  0.5187
   11CHTO  H176 4342   6.270   6.950   2.038  0.6969 -0.4948  0.5135
   11CHTO  H177 4343   6.267   7.118   1.998  0.5550  0.3817 -0.1125
   11CHTO  C105 4344   6.547   7.144   1.956  0.0048  0.6230  0.4453
   11CHTO  H192 4345   6.503   7.219   2.022 -0.0835  0.6768  0.3239
   11CHTO   O65 4346   6.581   7.200   1.832 -0.4698  0.0182 -0.2603
   11CHTO  C100 4347   6.623   7.120   1.722 -0.0984  0.1769 -0.6958
   11CHTO  H187 4348   6.571   7.166   1.636 -0.0569 -0.5420 -1.1102
   11CHTO  C107 4349   6.779   7.131   1.701  0.3966 -0.8114 -0.6737
   11CHTO   O70 4350   6.818   7.265   1.680  0.2389 -0.2765  0.0321
   11CHTO  H170 4351   6.911   7.267   1.695  0.0804 -0.7803  1.1461
   11CHTO   O57 4352   6.686   7.084   2.021  1.0212 -0.0784  0.0329
   11CHTO   C85 4353   6.721   7.139   2.148 -0.3773 -0.1153 -0.2783
   11CHTO  H157 4354   6.619   7.159   2.188  0.0029 -1.1392  1.2731
   11CHTO   C83 4355   6.807   7.275   2.128 -0.0010 -0.0301  0.2177
   11CHTO  H155 4356   6.737   7.344   2.083 -1.1869 -1.7831 -0.6882
   11CHTO   O56 4357   6.921   7.247   2.041  0.3433  0.3727  0.1749
   11CHTO  H135 4358   6.985   7.192   2.081  1.0661  1.5544  0.6944
   11CHTO   C81 4359   6.847   7.333   2.267  0.0312  0.6650 -0.3138
   11CHTO  H153 4360   6.755   7.340   2.324  0.7338 -2.2335  1.2520
   11CHTO   N14 4361   6.906   7.471   2.265  0.3320  0.1667  0.2636
   11CHTO  H141 4362   6.974   7.484   2.346 -1.1814  0.2537  1.5579
   11CHTO  H142 4363   6.958   7.488   2.173  0.9236  0.4563  0.6553
   11CHTO   C79 4364   6.943   7.237   2.349  0.1460 -0.0425  0.1659
   11CHTO  H151 4365   6.961   7.282   2.447 -1.0684  0.3408  0.2188
   11CHTO   O52 4366   6.864   7.116   2.374 -0.0376 -0.1286  0.3530
   11CHTO   C86 4367   6.811   7.051   2.253  0.2594 -0.5048 -1.1401
   11CHTO  H158 4368   6.908   7.016   2.211  0.9198 -0.2454  0.1427
   11CHTO   C90 4369   6.735   6.927   2.308  0.1329  0.0334  0.2505
   11CHTO   O60 4370   6.680   6.850   2.198 -0.2035  0.4073  0.5367
   11CHTO  H138 4371   6.640   6.772   2.231  0.6299  0.7205  2.4016
   11CHTO   O50 4372   7.067   7.200   2.282 -0.0076  0.4740  0.0755
   11CHTO   C73 4373   7.191   7.149   2.333  0.8126 -0.5191  0.1454
   11CHTO  H145 4374   7.158   7.064   2.395  1.6646  1.8168  3.9385
   11CHTO   C74 4375   7.268   7.261   2.415  0.1073  0.0413 -0.1924
   11CHTO  H146 4376   7.208   7.292   2.501 -1.4149 -2.1990 -0.3947
   11CHTO   O54 4377   7.380   7.199   2.478  0.5229  0.6973  0.2845
   11CHTO  H133 4378   7.408   7.240   2.557  0.6292 -1.8648  1.6522
   11CHTO   C75 4379   7.307   7.380   2.320 -0.2933 -0.2617  0.2276
   11CHTO  H147 4380   7.217   7.437   2.292  0.1804 -0.4804 -1.8685
   11CHTO   N13 4381   7.395   7.484   2.381  0.2948  0.1372  0.1959
   11CHTO  H139 4382   7.357   7.585   2.382  1.6145  0.6743 -1.5518
   11CHTO  H140 4383   7.494   7.478   2.339 -0.2651 -0.4831 -1.0448
   11CHTO   C76 4384   7.379   7.326   2.184  0.1857 -0.2398 -0.2492
   11CHTO  H148 4385   7.486   7.317   2.199  0.1839  1.5765  1.0080
   11CHTO   O49 4386   7.321   7.203   2.124  0.6482 -0.3699  0.6508
   11CHTO   C77 4387   7.286   7.101   2.223 -0.1476 -0.2140 -0.4234
   11CHTO  H149 4388   7.374   7.062   2.274 -0.1065 -1.7718 -1.6510
   11CHTO   C88 4389   7.228   6.992   2.145  0.0047 -0.3814 -0.4995
   11CHTO   O58 4390   7.327   6.941   2.039 -0.0118  0.2510 -0.2532
   11CHTO  H136 4391   7.288   6.946   1.954  0.9301 -0.1363 -0.7164
   11CHTO   O51 4392   7.340   7.433   2.064 -0.0521  0.0273  0.2935
   11CHTO   C78 4393   7.472   7.501   2.007  0.0211 -0.3647 -0.0352
   11CHTO  H150 4394   7.561   7.462   2.060 -0.6628 -3.0346 -0.7980
   11CHTO   C80 4395   7.469   7.654   2.006  0.0118 -0.2612  0.1906
   11CHTO  H152 4396   7.387   7.688   1.940  1.0758 -0.1130 -1.0707
   11CHTO   O55 4397   7.458   7.701   2.139 -0.4733  0.0300  0.2984
   11CHTO  H134 4398   7.375   7.684   2.179  0.3848 -4.7982  0.2785
   11CHTO   C84 4399   7.597   7.710   1.935  0.5028 -0.9448 -0.3032
   11CHTO  H156 4400   7.679   7.664   1.991  0.1862 -0.9003  0.2011
   11CHTO   N15 4401   7.615   7.864   1.937  0.6560  0.4779 -0.1692
   11CHTO  H143 4402   7.539   7.914   1.880  1.2532  0.2936 -1.1368
   11CHTO  H144 4403   7.623   7.901   2.037  2.5584  2.8509 -1.1562
   11CHTO   C87 4404   7.594   7.649   1.792  0.4414  0.8738  0.4740
   11CHTO  H159 4405   7.510   7.678   1.729  0.8329 -2.5356 -1.7008
   11CHTO   O53 4406   7.607   7.512   1.799  0.2646 -0.5038  0.1025
   11CHTO   C82 4407   7.491   7.455   1.859 -0.3784  0.1762 -0.2655
   11CHTO  H154 4408   7.404   7.485   1.801 -0.2473 -0.5122 -0.8326
   11CHTO   C89 4409   7.500   7.298   1.856 -0.3921 -0.3458 -0.2098
   11CHTO   O59 4410   7.592   7.245   1.945 -0.1801  0.0287 -0.2292
   11CHTO  H137 4411   7.579   7.153   1.937  1.3421 -0.1548 -0.7855
   11CHTO   O45 4412   7.737   7.697   1.703  0.1234 -0.1566  0.4795
   11CHTO   C67 4413   7.715   7.683   1.562  0.0050  0.2728  0.0915
   11CHTO  H124 4414   7.650   7.599   1.539  1.3731 -0.9660  0.6629
   11CHTO   C65 4415   7.646   7.817   1.509 -0.0794 -0.0787  0.1830
   11CHTO  H122 4416   7.664   7.900   1.577  1.7641 -0.1281 -0.2220
   11CHTO   O44 4417   7.508   7.783   1.492 -0.1530  0.1031  1.0806
   11CHTO  H102 4418   7.449   7.855   1.507  0.0012  0.1685  1.3772
   11CHTO   C63 4419   7.704   7.865   1.373 -0.0121  1.0467  0.0898
   11CHTO  H120 4420   7.808   7.896   1.385  0.0944  0.7045  0.0664
   11CHTO   N11 4421   7.636   7.981   1.318 -0.6151 -0.6845  0.7135
   11CHTO  H108 4422   7.687   8.019   1.232 -0.3120  0.1352  1.2498
   11CHTO  H109 4423   7.538   7.944   1.298 -0.3017 -1.2750  0.2854
   11CHTO   C61 4424   7.724   7.734   1.282  0.1922 -0.4681 -0.5164
   11CHTO  H118 4425   7.775   7.768   1.192 -0.9594  1.7971 -0.3558
   11CHTO   O40 4426   7.809   7.635   1.337 -0.3070  0.1114  0.1409
   11CHTO   C68 4427   7.847   7.655   1.484 -0.1458  0.4647 -0.2281
   11CHTO  H125 4428   7.923   7.735   1.498  0.3433  0.0442 -0.4748
   11CHTO   C72 4429   7.909   7.526   1.535  0.1067 -0.1752 -0.1693
   11CHTO   O48 4430   8.034   7.489   1.476  0.7033 -0.5202 -0.2201
   11CHTO  H105 4431   8.092   7.454   1.541  2.8382  1.8673 -0.7539
   11CHTO   O38 4432   7.598   7.670   1.250 -0.5341 -0.5733 -0.2341
   11CHTO   C55 4433   7.594   7.595   1.132 -0.2999  0.1946  0.0403
   11CHTO  H112 4434   7.696   7.570   1.099 -0.2919 -1.4263  1.2544
   11CHTO   C56 4435   7.516   7.681   1.025 -0.2398 -0.0105  0.2495
   11CHTO  H113 4436   7.416   7.707   1.063 -0.9266 -2.2541  0.0421
   11CHTO   O42 4437   7.574   7.812   1.014 -0.3682 -0.1358  0.0137
   11CHTO  H100 4438   7.667   7.810   0.999 -0.6288 -2.0107 -1.6271
   11CHTO   C57 4439   7.507   7.603   0.883 -0.6587 -0.2752 -0.1531
   11CHTO  H114 4440   7.606   7.587   0.841 -0.8267 -1.3705 -0.1517
   11CHTO   N10 4441   7.427   7.673   0.783 -0.0355 -0.0507  0.0615
   11CHTO  H106 4442   7.342   7.720   0.830 -0.2623  0.7431 -1.1247
   11CHTO  H107 4443   7.489   7.747   0.735  0.3207  0.3926  1.1997
   11CHTO   C58 4444   7.445   7.463   0.914 -0.4335  0.4643  0.3833
   11CHTO  H115 4445   7.338   7.467   0.944 -0.6430 -0.7333 -0.1540
   11CHTO   O37 4446   7.511   7.398   1.023 -0.2283  0.2908  0.0280
   11CHTO   C59 4447   7.510   7.471   1.152  0.0607  0.6252 -0.1366
   11CHTO  H116 4448   7.407   7.490   1.181 -0.5747 -3.6380  0.8326
   11CHTO   C70 4449   7.564   7.378   1.257 -0.2795 -0.1134 -0.1317
   11CHTO   O46 4450   7.701   7.337   1.243 -0.0768  0.2471  0.6829
   11CHTO  H103 4451   7.707   7.244   1.251  1.6111  0.0779 -2.0354
   11CHTO   O39 4452   7.465   7.359   0.785 -0.4641 -0.3148  0.0757
   11CHTO   C60 4453   7.349   7.312   0.730 -0.3816  0.1262 -0.0824
   11CHTO  H117 4454   7.262   7.323   0.793 -0.3426 -1.7822  0.3464
   11CHTO   C62 4455   7.302   7.376   0.595 -0.7877 -0.3768 -0.2175
   11CHTO  H119 4456   7.290   7.481   0.629 -0.2779 -1.1136  2.3658
   11CHTO   O43 4457   7.396   7.369   0.486  0.1180  0.1027  0.0488
   11CHTO  H101 4458   7.411   7.280   0.462  0.5162  0.1927 -0.0427
   11CHTO   C66 4459   7.164   7.307   0.550  0.1885  0.4570  0.3350
   11CHTO  H123 4460   7.100   7.307   0.639 -1.1822 -1.5134 -0.6093
   11CHTO   N12 4461   7.091   7.376   0.440  0.5554  0.5905  0.2550
   11CHTO  H110 4462   7.010   7.442   0.467  0.8636  0.8723  0.4817
   11CHTO  H111 4463   7.145   7.404   0.351  2.1314 -1.6465  0.4540
   11CHTO   C69 4464   7.200   7.162   0.517 -0.2131  0.8436  0.4561
   11CHTO  H126 4465   7.274   7.152   0.435 -1.5654 -0.0310 -0.6694
   11CHTO   O41 4466   7.246   7.097   0.638  0.2097  0.2307 -0.2892
   11CHTO   C64 4467   7.366   7.158   0.723 -0.4146 -0.7615 -0.0392
   11CHTO  H121 4468   7.460   7.120   0.678 -0.1928 -2.2260  1.5811
   11CHTO   C71 4469   7.375   7.094   0.866  0.0828  0.1641 -0.1863
   11CHTO   O47 4470   7.240   7.077   0.927  0.1831  0.1936 -0.4324
   11CHTO  H104 4471   7.184   7.152   0.924 -2.0433 -1.4240 -0.2900
   11CHTO   O34 4472   7.056   7.082   0.476  0.1595  0.4410 -0.5190
   11CHTO   C49 4473   6.918   7.021   0.504  0.9544 -0.1996 -0.1270
   11CHTO   H91 4474   6.845   7.102   0.501  0.3538 -0.6772  1.2538
   11CHTO   C47 4475   6.903   6.965   0.648 -0.2807 -0.2887 -0.3840
   11CHTO   H89 4476   6.796   6.938   0.661 -0.7221  0.3147 -2.5808
   11CHTO   O33 4477   6.944   7.076   0.735  0.0375  0.0278  0.3333
   11CHTO   H70 4478   7.036   7.084   0.720 -0.1550 -0.5418 -1.2757
   11CHTO   C45 4479   6.994   6.836   0.667 -1.0393  0.7539 -0.0570
   11CHTO   H87 4480   7.098   6.845   0.632 -0.6180 -1.6386  0.5273
   11CHTO    N8 4481   6.996   6.791   0.804 -0.7916  0.0065 -0.0674
   11CHTO   H75 4482   7.095   6.753   0.823 -1.3954 -0.8627  1.4400
   11CHTO   H76 4483   6.971   6.872   0.871 -0.5439  0.3409 -0.3728
   11CHTO   C43 4484   6.928   6.725   0.559 -0.2846  0.4197 -0.1463
   11CHTO   H85 4485   6.996   6.639   0.560  1.2915  1.6532 -0.3722
   11CHTO   O29 4486   6.927   6.778   0.424 -0.7243 -0.2475 -0.1496
   11CHTO   C50 4487   6.884   6.916   0.398 -0.3133  0.2594 -0.3185
   11CHTO   H92 4488   6.920   6.952   0.300  0.4959 -0.2599 -0.2173
   11CHTO   C54 4489   6.736   6.913   0.369  0.0474  0.1569  0.2418
   11CHTO   O36 4490   6.688   6.817   0.284  0.0532 -0.2733  0.0864
   11CHTO   H72 4491   6.711   6.730   0.312 -0.6712 -0.8166 -0.9409
   11CHTO   O27 4492   6.794   6.679   0.601 -0.0398 -0.2155 -0.7029
   11CHTO   C37 4493   6.710   6.588   0.678 -0.5110  0.1030  0.5831
   11CHTO   H79 4494   6.773   6.558   0.763  1.6537 -2.1781 -1.7604
   11CHTO   C38 4495   6.586   6.665   0.722  0.0996 -0.3115 -0.2188
   11CHTO   H80 4496   6.543   6.718   0.636 -0.2978  0.4582  0.4522
   11CHTO   O31 4497   6.619   6.758   0.826 -0.1154 -0.4981 -0.0053
   11CHTO   H68 4498   6.695   6.804   0.797  0.0249 -0.4358  0.4499
   11CHTO   C39 4499   6.473   6.560   0.779 -0.0300  0.0737 -0.2182
   11CHTO   H81 4500   6.522   6.518   0.867  0.7169  1.1999 -0.0779
   11CHTO    N7 4501   6.340   6.610   0.826 -0.1278  0.4337 -0.0199
   11CHTO   H73 4502   6.326   6.595   0.932  1.8652  0.4154  0.2623
   11CHTO   H74 4503   6.261   6.573   0.762  0.4327 -0.8029 -0.0188
   11CHTO   C40 4504   6.458   6.429   0.682 -0.3401 -0.1239 -0.2186
   11CHTO   H82 4505   6.413   6.467   0.590  0.0969 -2.0916 -1.2712
   11CHTO   O26 4506   6.580   6.368   0.649 -0.8906 -0.7215 -0.4233
   11CHTO   C41 4507   6.673   6.465   0.588 -0.4144  0.4690  0.2944
   11CHTO   H83 4508   6.639   6.502   0.490 -1.3928  0.7263  0.7293
   11CHTO   C52 4509   6.807   6.384   0.563 -0.2963  0.4593 -0.1419
   11CHTO   O35 4510   6.784   6.276   0.496 -0.6320  0.3188  0.3904
   11CHTO   H71 4511   6.870   6.246   0.472 -0.5320  0.6049  0.3888
   11CHTO   O28 4512   6.375   6.331   0.746  0.3750  0.4523 -0.2263
   11CHTO   C42 4513   6.287   6.235   0.688  0.3438  0.3627  0.5029
   11CHTO   H84 4514   6.301   6.211   0.582 -0.7469  1.1572  0.1626
   11CHTO   C44 4515   6.138   6.274   0.699 -0.5221 -0.5992  0.3883
   11CHTO   H86 4516   6.115   6.275   0.806  2.3091 -2.5503  1.0608
   11CHTO   O32 4517   6.125   6.399   0.636  0.4607 -0.2265  0.5225
   11CHTO   H69 4518   6.118   6.384   0.544 -0.1044  0.6936  0.4086
   11CHTO   C48 4519   6.055   6.152   0.645  0.1569  0.0364 -0.2124
   11CHTO   H90 4520   6.093   6.121   0.548  1.9979  3.2713 -0.5904
   11CHTO    N9 4521   5.907   6.189   0.625 -0.3413 -0.0807  0.4526
   11CHTO   H77 4522   5.872   6.226   0.720 -1.3253 -1.8909  0.8267
   11CHTO   H78 4523   5.854   6.096   0.606  1.3098 -0.9002 -0.1853
   11CHTO   C51 4524   6.082   6.032   0.745 -0.5515 -0.8458  0.5536
   11CHTO   H93 4525   6.053   6.054   0.848 -2.1294 -1.3444  0.2224
   11CHTO   O30 4526   6.222   5.998   0.735 -0.4961  0.4611 -0.0667
   11CHTO   C46 4527   6.310   6.102   0.777 -0.1128 -0.1885 -0.1446
   11CHTO   H88 4528   6.302   6.116   0.884 -2.2593  1.6934 -0.5324
   11CHTO   C53 4529   6.448   6.043   0.745  0.2644 -0.1191  0.4326
   11CHTO   O72 4530   6.484   6.065   0.613 -0.4113 -0.1920 -0.4688
   11CHTO  H199 4531   6.538   6.142   0.611 -1.5419  0.6008 -1.2792
   11CHTO   O22 4532   6.024   5.914   0.693 -0.1777  0.2326 -0.4237
   11CHTO   C31 4533   6.003   5.808   0.780  0.8368  1.1651 -0.1041
   11CHTO   H59 4534   6.057   5.831   0.874  2.6529 -1.0603 -0.5439
   11CHTO   C29 4535   5.852   5.790   0.814 -0.0670 -0.3046  0.1253
   11CHTO   H57 4536   5.798   5.773   0.720 -0.0108 -0.4669  0.1222
   11CHTO   O21 4537   5.790   5.916   0.859 -0.1416 -0.2651  0.1353
   11CHTO   H37 4538   5.831   5.957   0.932 -0.5119 -0.9689  0.7554
   11CHTO   C27 4539   5.824   5.666   0.911  0.2030  0.1593 -0.7687
   11CHTO   H55 4540   5.868   5.699   1.006 -0.0702  1.9685 -1.2474
   11CHTO    N5 4541   5.681   5.654   0.932  0.5193 -0.3278  0.3819
   11CHTO   H43 4542   5.636   5.628   0.837  0.3732 -0.8012  0.5799
   11CHTO   H44 4543   5.656   5.576   1.002  1.1301 -2.2766 -1.5002
   11CHTO   C25 4544   5.897   5.535   0.854 -0.2938 -0.0746 -0.6731
   11CHTO   H53 4545   5.848   5.517   0.757  3.7077  1.3189 -3.0464
   11CHTO   O17 4546   6.037   5.576   0.841 -0.3487 -0.1669 -0.0606
   11CHTO   C32 4547   6.060   5.669   0.733 -0.1009  0.0009 -0.0439
   11CHTO   H60 4548   6.012   5.638   0.640  1.1659 -0.5411 -0.5262
   11CHTO   C36 4549   6.215   5.679   0.706 -0.3734 -0.3337  0.1437
   11CHTO   O25 4550   6.289   5.559   0.705 -0.3569 -0.0052  0.0665
   11CHTO   H40 4551   6.274   5.511   0.784 -1.6619  0.1459 -0.0740
   11CHTO   O15 4552   5.875   5.405   0.954  0.0811  0.5917  0.3045
   11CHTO   C19 4553   5.821   5.273   0.947  0.1208 -0.0955  0.5429
   11CHTO   H47 4554   5.899   5.201   0.977  0.6789  0.1385 -0.3328
   11CHTO   C20 4555   5.699   5.265   1.046  0.4067  0.3121 -0.6311
   11CHTO   H48 4556   5.617   5.333   1.019  1.0904  0.9659 -1.0749
   11CHTO   O19 4557   5.758   5.292   1.174  0.6039 -0.1252  0.4713
   11CHTO   H35 4558   5.697   5.348   1.220 -1.9930 -1.3144 -1.3823
   11CHTO   C21 4559   5.639   5.117   1.040 -0.2514 -0.3792  0.1596
   11CHTO   H49 4560   5.714   5.054   1.088 -0.8010 -0.9321  0.3050
   11CHTO    N4 4561   5.514   5.105   1.122 -0.0947 -0.1225 -0.4232
   11CHTO   H41 4562   5.473   5.005   1.117  0.4233 -0.3315 -0.5544
   11CHTO   H42 4563   5.532   5.132   1.225 -1.1738 -0.3223 -0.1749
   11CHTO   C22 4564   5.610   5.089   0.892 -0.3921  0.9195 -0.2371
   11CHTO   H50 4565   5.541   5.166   0.858  0.1265  1.5039  0.0213
   11CHTO   O14 4566   5.726   5.089   0.810  0.0856  0.0540  0.0774
   11CHTO   C23 4567   5.783   5.226   0.802 -0.2128  0.2765 -0.5204
   11CHTO   H51 4568   5.716   5.296   0.750 -1.3650 -1.3615 -1.2834
   11CHTO   C34 4569   5.900   5.186   0.707  0.2437 -0.3751 -0.0693
   11CHTO   O23 4570   5.973   5.300   0.659 -0.2462  0.0701  0.7513
   11CHTO   H38 4571   5.911   5.346   0.606  0.1032 -0.2344  0.0685
   11CHTO   O16 4572   5.548   4.955   0.871 -0.0575 -0.3146 -0.1951
   11CHTO   C24 4573   5.463   4.943   0.713 -0.1136 -0.2763 -0.1383
   11CHTO   H52 4574   5.496   5.020   0.644  3.4545  1.0332  2.8385
   11CHTO   C26 4575   5.313   4.965   0.739  0.2324 -0.4587  0.0023
   11CHTO   H54 4576   5.282   4.897   0.821 -2.1169 -0.6803 -1.0296
   11CHTO   O20 4577   5.278   5.099   0.790 -0.1738  0.5966 -0.1448
   11CHTO   H36 4578   5.186   5.115   0.782 -0.2580 -1.1101 -3.1046
   11CHTO   C30 4579   5.221   4.941   0.614 -0.1408 -0.2166  0.2937
   11CHTO   H58 4580   5.217   5.029   0.549 -1.3432  0.5015  1.3307
   11CHTO    N6 4581   5.075   4.918   0.648 -0.3389  0.2077 -0.6852
   11CHTO   H45 4582   5.019   4.914   0.555  1.0010 -0.1783 -1.4868
   11CHTO   H46 4583   5.038   5.000   0.707 -0.6795 -0.5193  0.1199
   11CHTO   C33 4584   5.271   4.811   0.533  0.3430 -0.1150  0.4386
   11CHTO   H61 4585   5.231   4.720   0.580 -0.6259 -0.5336 -1.1832
   11CHTO   O18 4586   5.416   4.800   0.527 -0.0273 -0.4142 -0.2055
   11CHTO   C28 4587   5.486   4.806   0.650 -0.0287 -0.3838 -0.2270
   11CHTO   H56 4588   5.451   4.732   0.722  1.3914  0.9400  1.8740
   11CHTO   C35 4589   5.632   4.779   0.624  0.1880 -0.1283  0.4396
   11CHTO   O24 4590   5.663   4.639   0.641 -0.2661  0.0171  0.8533
   11CHTO   H39 4591   5.742   4.619   0.595  0.0177  0.5021  1.1256
   11CHTO    O9 4592   5.215   4.809   0.401 -0.0474 -0.4615 -0.2760
   11CHTO   C13 4593   5.273   4.928   0.297  0.7810  0.0431  0.0388
   11CHTO   H26 4594   5.349   4.983   0.356 -0.0212 -0.3105  1.4232
   11CHTO   C11 4595   5.152   5.018   0.256  0.4744  0.2919  0.4574
   11CHTO   H24 4596   5.095   5.041   0.347 -0.1609 -0.4651  0.2542
   11CHTO    O8 4597   5.051   4.937   0.189  0.3475 -0.2331  0.3340
   11CHTO    H3 4598   5.012   4.874   0.246 -1.2470  0.9233  0.5477
   11CHTO    C9 4599   5.217   5.139   0.184  0.7967  0.3604  0.3163
   11CHTO   H22 4600   5.253   5.212   0.258  0.5778 -0.3334  1.1141
   11CHTO    N2 4601   5.117   5.222   0.114  0.3044  0.0796 -0.2319
   11CHTO   H10 4602   5.166   5.307   0.068 -0.5690  0.6906 -0.0457
   11CHTO   H11 4603   5.061   5.163   0.043  0.5231  0.5263 -0.7840
   11CHTO    C7 4604   5.335   5.094   0.098  0.2153 -0.7885  0.6309
   11CHTO   H20 4605   5.423   5.096   0.165 -1.4556  0.8276  2.8338
   11CHTO    O4 4606   5.327   4.959   0.050 -0.2106 -0.5232  0.0214
   11CHTO   C14 4607   5.348   4.876   0.165 -0.7537  1.0411  0.0584
   11CHTO   H27 4608   5.458   4.879   0.179 -1.0661  2.1668  2.5528
   11CHTO   C18 4609   5.312   4.737   0.132 -0.4325  0.1896  0.0507
   11CHTO   O13 4610   5.381   4.651   0.219 -0.1140  0.7367  0.0464
   11CHTO    H7 4611   5.475   4.648   0.220 -0.1085 -0.3660 -1.4819
   11CHTO    O2 4612   5.372   5.184  -0.031  0.2565  0.1112 -0.2857
   11CHTO    C1 4613   5.479   5.276  -0.004 -0.1950 -0.8725 -0.2833
   11CHTO   H14 4614   5.510   5.280   0.103 -1.0918  1.2102 -0.0883
   11CHTO    C2 4615   5.433   5.425  -0.042 -0.3395 -0.3335 -0.1951
   11CHTO   H15 4616   5.377   5.407  -0.135  0.5356 -2.3087 -0.3607
   11CHTO    O6 4617   5.334   5.479   0.054 -0.1767 -0.3676 -0.8695
   11CHTO    H1 4618   5.258   5.428   0.036 -0.3379 -1.4008  2.2864
   11CHTO    C3 4619   5.561   5.522  -0.056 -0.6136  0.0088 -0.7376
   11CHTO   H16 4620   5.608   5.526   0.044  0.7661 -3.1835 -1.1936
   11CHTO    N1 4621   5.529   5.661  -0.097  0.1242 -0.6142  0.2202
   11CHTO    H8 4622   5.526   5.730  -0.014  0.6134 -1.2715  0.7944
   11CHTO    H9 4623   5.440   5.663  -0.158 -1.6852 -0.8585  2.7541
   11CHTO    C4 4624   5.669   5.457  -0.146  0.4237 -0.0636  0.3191
   11CHTO   H17 4625   5.626   5.447  -0.246  1.6076 -2.2033 -0.0052
   11CHTO    O1 4626   5.707   5.332  -0.094  0.1080  0.0622  0.0030
   11CHTO    C5 4627   5.600   5.236  -0.085 -0.0823 -0.9072 -0.1331
   11CHTO   H18 4628   5.568   5.229  -0.189 -0.3097  0.6800 -0.1856
   11CHTO   C16 4629   5.659   5.106  -0.040 -0.1682  0.2442  0.6443
   11CHTO   O11 4630   5.768   5.062  -0.117 -0.0315 -0.0269 -0.1127
   11CHTO    H5 4631   5.783   4.975  -0.085  0.9082 -0.4040 -1.5298
   11CHTO    O3 4632   5.784   5.537  -0.162 -0.0934  0.0075  0.6614
   11CHTO    C6 4633   5.844   5.520  -0.303 -0.0794  0.7011  0.0730
   11CHTO   H19 4634   5.788   5.453  -0.369  0.3054  0.0983  0.3489
   11CHTO    C8 4635   5.841   5.659  -0.368  0.0667 -0.2410  0.4135
   11CHTO   H21 4636   5.903   5.721  -0.303 -0.3345 -2.8627  3.4693
   11CHTO    O7 4637   5.704   5.712  -0.371  0.5100  0.9759  0.0933
   11CHTO    H2 4638   5.710   5.792  -0.419 -4.4630  1.2349 -0.3514
   11CHTO   C12 4639   5.898   5.663  -0.512 -0.3256  0.0208  0.6376
   11CHTO   H25 4640   5.831   5.599  -0.573  1.5133 -0.0718 -1.3507
   11CHTO    N3 4641   5.904   5.795  -0.584 -0.0581 -0.3572 -0.2770
   11CHTO   H12 4642   5.947   5.865  -0.515  0.1909  0.0693 -0.8641
   11CHTO   H13 4643   5.814   5.839  -0.624  0.0054  1.0436  1.0787
   11CHTO   C15 4644   6.040   5.595  -0.514  0.6903 -0.4825 -0.2430
   11CHTO   H28 4645   6.113   5.659  -0.466  0.7502 -1.2801  0.7395
   11CHTO   O10 4646   6.079   5.542  -0.659 -0.3621  0.5772  0.0300
   11CHTO    H4 4647   6.125   5.602  -0.715 -0.9710  2.2827  1.3215
   11CHTO    O5 4648   6.043   5.465  -0.445  0.5221  0.1870  0.2819
   11CHTO   C10 4649   5.998   5.466  -0.312  0.4516 -0.4617  0.1498
   11CHTO   H23 4650   6.074   5.519  -0.255  0.2825  1.5749 -1.4235
   11CHTO   C17 4651   6.000   5.321  -0.265  0.0779  0.1423  0.5478
   11CHTO   O12 4652   5.895   5.232  -0.291  0.1862  0.0747  0.2080
   11CHTO    H6 4653   5.843   5.278  -0.354  1.7296  2.0204  0.3133
   12CHTO  H203 4654   5.597   1.963   2.496 -1.4373 -1.2495  1.4269
   12CHTO   O82 4655   5.655   1.972   2.569  0.0820  0.1573  0.0890
   12CHTO  C123 4656   5.695   1.842   2.613  0.2159  0.2650  0.3261
   12CHTO  H227 4657   5.776   1.849   2.687 -0.3522  1.1736  0.8577
   12CHTO   O77 4658   5.577   1.780   2.682  0.1106  0.2734 -1.0309
   12CHTO  C118 4659   5.593   1.640   2.726  0.3903  0.5913  0.2399
   12CHTO  H222 4660   5.667   1.645   2.807  2.4273 -0.5144 -1.4997
   12CHTO  C125 4661   5.454   1.608   2.794  0.2505  0.0656 -0.2129
   12CHTO   O84 4662   5.458   1.492   2.872  0.2530 -0.4380  0.1772
   12CHTO  H205 4663   5.429   1.417   2.825  2.0059 -0.2444 -1.2338
   12CHTO  C114 4664   5.641   1.550   2.613 -0.7264 -0.4486 -0.2164
   12CHTO  H218 4665   5.573   1.547   2.528  0.8705 -1.3918 -1.5022
   12CHTO  C116 4666   5.769   1.606   2.545  0.3732 -0.3290  0.0981
   12CHTO  H220 4667   5.854   1.599   2.616  0.5704 -0.4028 -0.1439
   12CHTO   O79 4668   5.797   1.517   2.436 -0.5062 -0.7722 -0.1159
   12CHTO  H201 4669   5.850   1.449   2.472 -0.8924 -2.4568 -2.5416
   12CHTO  C120 4670   5.757   1.757   2.498 -0.0883  0.5362  0.2528
   12CHTO  H224 4671   5.688   1.760   2.412 -1.5424 -1.6924  1.2912
   12CHTO   N21 4672   5.886   1.816   2.435  0.6685 -0.0227 -0.5049
   12CHTO  H211 4673   5.966   1.759   2.480 -0.8850 -1.1164  0.9335
   12CHTO  H212 4674   5.883   1.771   2.337  1.0466  0.1379 -0.5907
   12CHTO   O75 4675   5.661   1.415   2.675  0.2216 -0.0198 -0.2603
   12CHTO  C112 4676   5.598   1.295   2.592 -0.5233  0.5073  0.4969
   12CHTO  H216 4677   5.644   1.295   2.492 -0.7988  0.0028  0.3691
   12CHTO   O73 4678   5.459   1.312   2.587  0.1995  0.3969 -0.0491
   12CHTO  C113 4679   5.385   1.206   2.515 -0.0790 -0.6556  0.4726
   12CHTO  H217 4680   5.433   1.196   2.415  3.2241  1.0456  1.7843
   12CHTO  C124 4681   5.245   1.266   2.498 -0.1680  0.7520  0.3654
   12CHTO   O83 4682   5.167   1.184   2.417 -0.2413  0.3624 -0.5600
   12CHTO  H204 4683   5.084   1.225   2.407 -2.2163 -3.2902  0.1031
   12CHTO  C109 4684   5.396   1.090   2.606 -0.6693  0.1752 -0.5124
   12CHTO  H213 4685   5.355   1.123   2.703  0.0249 -1.4830  0.3587
   12CHTO  C110 4686   5.547   1.045   2.611  0.7039 -0.0311 -0.7288
   12CHTO  H214 4687   5.583   1.039   2.509  1.4111  0.2533 -0.4966
   12CHTO   O78 4688   5.551   0.927   2.697  0.0645  0.1118  0.4003
   12CHTO  H200 4689   5.567   0.854   2.640 -0.2026 -1.0880  1.8216
   12CHTO  C111 4690   5.629   1.163   2.670 -0.8195  0.7176 -0.1193
   12CHTO  H215 4691   5.596   1.192   2.771 -0.7531  0.7570 -0.1084
   12CHTO   N19 4692   5.776   1.132   2.681  0.2718 -1.0370 -0.2327
   12CHTO  H207 4693   5.808   1.098   2.779 -1.6639 -1.0696  0.4214
   12CHTO  H208 4694   5.806   1.058   2.609  3.1459  0.1451 -0.3076
   12CHTO   O74 4695   5.314   0.977   2.563 -0.1471  0.1736  0.4386
   12CHTO  C115 4696   5.237   0.905   2.690 -0.4214  0.1479  0.0470
   12CHTO  H219 4697   5.295   0.907   2.782 -1.5289  1.6837  0.7440
   12CHTO   O76 4698   5.101   0.978   2.729  0.1893 -0.3649  0.2705
   12CHTO  C122 4699   5.020   0.923   2.837 -0.6510 -0.7930 -0.3677
   12CHTO  H226 4700   4.924   0.974   2.836 -1.1136 -1.6327  0.2080
   12CHTO  C126 4701   5.081   0.960   2.978  0.1593 -0.1863 -0.7420
   12CHTO   O85 4702   5.023   0.914   3.104  0.0201 -0.0597  0.4723
   12CHTO  H206 4703   5.010   0.822   3.114  3.4066 -0.5051  1.3880
   12CHTO  C121 4704   4.997   0.763   2.824  1.0217  0.3288  0.0057
   12CHTO  H225 4705   4.948   0.713   2.911 -0.5612  3.2142  0.8292
   12CHTO   O81 4706   4.902   0.738   2.716  0.1929 -0.1596  0.0100
   12CHTO  H202 4707   4.849   0.662   2.723 -2.6375  1.7865  0.5512
   12CHTO  C119 4708   5.135   0.696   2.788 -0.5943  0.2021 -0.0500
   12CHTO  H223 4709   5.212   0.716   2.864 -0.7108 -4.5190  1.4624
   12CHTO  C117 4710   5.203   0.754   2.655 -0.9233  0.7810 -0.6930
   12CHTO  H221 4711   5.138   0.758   2.568 -2.4596  0.6975  0.4409
   12CHTO   N20 4712   5.319   0.684   2.609  0.0819 -0.2675 -0.1685
   12CHTO  H209 4713   5.403   0.688   2.678  1.7538 -0.2978 -2.1674
   12CHTO  H210 4714   5.360   0.724   2.518 -0.7407 -0.9871 -0.8683
   12CHTO   O80 4715   5.125   0.528   2.787  0.1489  0.1446 -0.2091
   12CHTO  C103 4716   4.995   0.460   2.743 -0.6602  0.3458 -0.2009
   12CHTO  H190 4717   4.908   0.523   2.760 -1.1762 -0.1978 -0.7845
   12CHTO  C101 4718   5.006   0.415   2.593  0.4085 -0.5213 -0.2817
   12CHTO  H188 4719   5.105   0.374   2.572  0.9315 -0.3785  1.7849
   12CHTO   O68 4720   4.978   0.539   2.501 -0.0047  0.2352  0.8578
   12CHTO  H168 4721   4.895   0.533   2.458  0.5061 -2.6034  0.1541
   12CHTO   C99 4722   4.904   0.300   2.543  0.0252 -0.2923  0.1333
   12CHTO  H186 4723   4.803   0.345   2.557  0.1766 -0.0869  0.5717
   12CHTO   N17 4724   4.917   0.260   2.399  0.4721 -0.2148  0.9439
   12CHTO  H174 4725   4.931   0.154   2.379  2.0509 -0.0157  0.9597
   12CHTO  H175 4726   4.996   0.316   2.352 -0.7001 -0.5824 -1.5908
   12CHTO   C97 4727   4.919   0.192   2.646  0.1622 -0.1389 -0.4286
   12CHTO  H184 4728   5.020   0.150   2.631  0.8879  1.5130 -0.2779
   12CHTO   O64 4729   4.897   0.237   2.780 -0.1429  0.2285 -0.5846
   12CHTO  C104 4730   4.990   0.333   2.827  0.0144  0.4363 -0.0746
   12CHTO  H191 4731   5.092   0.298   2.840  0.0459  1.0268  1.4105
   12CHTO  C108 4732   4.948   0.381   2.959 -0.0397 -0.5106  0.1156
   12CHTO   O71 4733   4.951   0.285   3.064 -0.2659 -0.6525  0.3331
   12CHTO  H171 4734   5.014   0.219   3.043  1.9928  0.5705  2.9096
   12CHTO   O62 4735   4.810   0.099   2.627 -0.2801  0.1877 -0.8590
   12CHTO   C91 4736   4.827  -0.027   2.699  0.2104 -0.3851 -0.3729
   12CHTO  H178 4737   4.919  -0.033   2.756 -0.0856  0.4542  0.2087
   12CHTO   C92 4738   4.829  -0.138   2.603 -0.2291  0.6650 -0.1140
   12CHTO  H179 4739   4.728  -0.141   2.560 -0.0500 -1.1682 -0.4673
   12CHTO   O66 4740   4.917  -0.120   2.485 -0.2469 -0.6019  0.0681
   12CHTO  H166 4741   4.908  -0.196   2.430  0.5916  0.2553 -1.2574
   12CHTO   C93 4742   4.854  -0.278   2.681 -0.7450  0.4581 -0.5314
   12CHTO  H180 4743   4.945  -0.264   2.741 -0.2945  0.4638 -1.2105
   12CHTO   N16 4744   4.878  -0.397   2.597 -0.2390 -0.5594 -0.3353
   12CHTO  H172 4745   4.955  -0.364   2.529 -0.6507  0.3903 -0.3482
   12CHTO  H173 4746   4.891  -0.493   2.644 -0.4162  0.4294  1.7863
   12CHTO   C94 4747   4.734  -0.293   2.782  0.1755  0.7543 -0.0238
   12CHTO  H181 4748   4.640  -0.307   2.728  0.1650 -0.3625  0.2818
   12CHTO   O61 4749   4.730  -0.183   2.867 -0.4562 -0.9084  0.7105
   12CHTO   C95 4750   4.704  -0.054   2.798  0.9012  0.0432  0.3299
   12CHTO  H182 4751   4.616  -0.062   2.734  1.7379  3.3127 -1.3636
   12CHTO  C106 4752   4.679   0.056   2.914 -0.0623  0.4213 -0.3537
   12CHTO   O69 4753   4.618   0.173   2.864 -0.5918  0.1013 -0.7248
   12CHTO  H169 4754   4.623   0.241   2.929  0.9357 -0.5908 -0.0781
   12CHTO   O63 4755   4.757  -0.433   2.890 -0.1349 -0.2938  0.2541
   12CHTO   C96 4756   4.890  -0.427   3.008  0.7137  0.9954  0.1000
   12CHTO  H183 4757   4.960  -0.346   2.990  1.5248  0.3386  0.2652
   12CHTO   C98 4758   4.973  -0.554   3.013 -0.6603  0.2313 -0.0605
   12CHTO  H185 4759   4.902  -0.636   2.992 -0.3853  0.0928 -0.4383
   12CHTO   O67 4760   5.058  -0.551   2.898 -0.2992  0.3692 -0.1882
   12CHTO  H167 4761   5.002  -0.568   2.824  1.1391 -2.6945 -0.6562
   12CHTO  C102 4762   5.056  -0.590   3.154  0.0352  0.0485  0.1692
   12CHTO  H189 4763   5.147  -0.528   3.159  0.2980 -0.3812  0.8240
   12CHTO   N18 4764   5.107  -0.729   3.152  0.0557  0.4344 -0.5758
   12CHTO  H176 4765   5.059  -0.788   3.228  1.7802  0.1619  0.3288
   12CHTO  H177 4766   5.215  -0.724   3.155  0.0294  0.6194  0.2916
   12CHTO  C105 4767   4.967  -0.552   3.277  0.1972 -0.5054  0.7038
   12CHTO  H192 4768   4.879  -0.616   3.280  0.0398 -0.4469 -1.4745
   12CHTO   O65 4769   4.917  -0.414   3.261 -0.1032  0.1194 -0.1359
   12CHTO  C100 4770   4.828  -0.395   3.156 -0.1533 -0.0551 -0.2336
   12CHTO  H187 4771   4.743  -0.463   3.171 -0.4389  0.2151 -0.6178
   12CHTO  C107 4772   4.778  -0.248   3.163 -0.4891  0.3602 -0.0325
   12CHTO   O70 4773   4.700  -0.219   3.282  0.3819 -0.6992  0.2949
   12CHTO  H170 4774   4.608  -0.214   3.261  0.2160 -0.7844  0.9730
   12CHTO   O57 4775   5.049  -0.568   3.409  0.5528 -0.2565 -0.0713
   12CHTO   C85 4776   4.995  -0.638   3.523  0.4234 -0.7168 -0.4035
   12CHTO  H157 4777   4.920  -0.707   3.479  0.2452 -0.5968 -0.2900
   12CHTO   C83 4778   4.922  -0.537   3.619 -0.0379 -0.2505  0.2681
   12CHTO  H155 4779   4.832  -0.511   3.564  0.0021 -1.8260 -0.5778
   12CHTO   O56 4780   5.002  -0.415   3.636 -0.3446 -0.3489  0.0907
   12CHTO  H135 4781   4.946  -0.353   3.677  1.5858  0.6849  1.2268
   12CHTO   C81 4782   4.875  -0.614   3.747  0.5059  0.4607  0.3930
   12CHTO  H153 4783   4.815  -0.700   3.718  0.9609 -0.9219  3.3561
   12CHTO   N14 4784   4.795  -0.530   3.844  0.2226  0.5468  0.2757
   12CHTO  H141 4785   4.817  -0.564   3.942 -1.6482  1.2850  0.9926
   12CHTO  H142 4786   4.820  -0.425   3.845 -2.0340  1.1113  0.9178
   12CHTO   C79 4787   5.006  -0.676   3.814 -0.1991  0.6097  0.2501
   12CHTO  H151 4788   4.976  -0.729   3.904  0.1501 -0.1700 -0.0832
   12CHTO   O52 4789   5.071  -0.777   3.734  0.2020 -0.3636 -0.0510
   12CHTO   C86 4790   5.104  -0.722   3.605 -0.0469 -0.4771 -0.1395
   12CHTO  H158 4791   5.191  -0.654   3.614  0.6930 -1.3215 -0.8058
   12CHTO   C90 4792   5.146  -0.844   3.507  0.1018 -0.0667  0.0583
   12CHTO   O60 4793   5.066  -0.959   3.517 -0.1438 -0.7347  0.3971
   12CHTO  H138 4794   5.055  -0.992   3.604 -0.5034  1.4334  1.1919
   12CHTO   O50 4795   5.109  -0.584   3.853  0.1513  0.3379  0.0969
   12CHTO   C73 4796   5.196  -0.552   3.963  0.2729  0.1703 -0.1426
   12CHTO  H145 4797   5.159  -0.580   4.063 -0.3368 -0.8274 -0.6522
   12CHTO   C74 4798   5.210  -0.391   3.976  0.1003 -0.3709 -0.0150
   12CHTO  H146 4799   5.109  -0.349   3.983 -0.0411 -0.6438 -0.4379
   12CHTO   O54 4800   5.276  -0.348   4.100 -0.4090 -0.2078  0.5682
   12CHTO  H133 4801   5.213  -0.361   4.168  0.7895 -0.7606  1.5938
   12CHTO   C75 4802   5.281  -0.342   3.844 -0.3793  0.5915 -0.1424
   12CHTO  H147 4803   5.225  -0.386   3.760 -0.7155  0.8398 -0.0528
   12CHTO   N13 4804   5.281  -0.198   3.834 -0.2257 -0.2648  0.5008
   12CHTO  H139 4805   5.186  -0.147   3.830  0.4226  1.2437  3.0693
   12CHTO  H140 4806   5.347  -0.136   3.893 -1.9470  4.6398 -2.3776
   12CHTO   C76 4807   5.420  -0.409   3.825  0.0135  0.3566 -0.2628
   12CHTO  H148 4808   5.488  -0.376   3.905 -1.5856  0.2034  1.1925
   12CHTO   O49 4809   5.401  -0.555   3.829  0.0748  0.0015 -0.0129
   12CHTO   C77 4810   5.338  -0.607   3.947  0.4388  0.1132 -0.2661
   12CHTO  H149 4811   5.387  -0.584   4.042  2.1520  2.0168 -1.5720
   12CHTO   C88 4812   5.348  -0.759   3.939  0.3946  1.2684  0.0395
   12CHTO   O58 4813   5.502  -0.791   3.960  0.0038  0.2062  0.5441
   12CHTO  H136 4814   5.512  -0.883   3.944  0.6951  0.3545  0.1521
   12CHTO   O51 4815   5.491  -0.373   3.681  0.3640 -0.0876  0.9460
   12CHTO   C78 4816   5.622  -0.462   3.655 -0.0737  0.2451  0.7071
   12CHTO  H150 4817   5.622  -0.550   3.723  1.6857  0.2741  0.7693
   12CHTO   C80 4818   5.745  -0.382   3.693  0.4152 -0.2792  0.1472
   12CHTO  H152 4819   5.750  -0.295   3.624  0.7427  0.2621  0.8507
   12CHTO   O55 4820   5.734  -0.330   3.831 -0.0808  0.5082  0.7615
   12CHTO  H134 4821   5.671  -0.382   3.878  0.5862  0.3521  1.4956
   12CHTO   C84 4822   5.868  -0.485   3.667 -0.2959  0.5185  0.0641
   12CHTO  H156 4823   5.855  -0.575   3.728  2.3830 -0.2612 -0.4358
   12CHTO   N15 4824   5.999  -0.413   3.703  0.7787 -0.7082 -0.3062
   12CHTO  H143 4825   6.083  -0.478   3.693 -0.2320 -2.2573  0.9865
   12CHTO  H144 4826   6.008  -0.329   3.638 -0.6011 -1.8449 -2.0433
   12CHTO   C87 4827   5.872  -0.538   3.522 -0.5197  0.1587  0.3590
   12CHTO  H159 4828   5.899  -0.459   3.452  1.0249 -1.6468 -1.1539
   12CHTO   O53 4829   5.734  -0.604   3.494  0.1447 -0.5664  0.0450
   12CHTO   C82 4830   5.625  -0.513   3.508 -0.6539  0.3502 -0.9295
   12CHTO  H154 4831   5.634  -0.431   3.437 -2.0122  0.8837 -0.5090
   12CHTO   C89 4832   5.492  -0.588   3.471 -0.1436  0.3887 -0.4381
   12CHTO   O59 4833   5.501  -0.618   3.334 -0.1000  0.6515  0.6866
   12CHTO  H137 4834   5.465  -0.704   3.322 -0.1921  0.7967 -0.0625
   12CHTO   O45 4835   5.984  -0.656   3.504 -0.0506  0.0460  0.5766
   12CHTO   C67 4836   6.065  -0.669   3.390 -0.1651 -0.5022  0.1107
   12CHTO  H124 4837   6.093  -0.774   3.392  0.4273 -0.3278  1.1503
   12CHTO   C65 4838   5.988  -0.647   3.255 -0.0596 -0.3211  0.8315
   12CHTO  H122 4839   5.883  -0.633   3.279 -0.2871 -0.7406  0.0883
   12CHTO   O44 4840   6.008  -0.760   3.171  0.1778 -0.2601 -0.2739
   12CHTO  H102 4841   6.008  -0.841   3.218 -0.7281 -0.2564 -0.2506
   12CHTO   C63 4842   6.030  -0.510   3.191 -0.3133  0.3487  0.0020
   12CHTO  H120 4843   6.011  -0.429   3.262 -1.0114  0.5363 -0.3888
   12CHTO   N11 4844   5.958  -0.463   3.065  0.0163 -0.9676  0.5387
   12CHTO  H108 4845   6.011  -0.423   2.981 -1.6100  3.0655  1.3112
   12CHTO  H109 4846   5.877  -0.528   3.037 -0.2676 -0.3764 -0.0136
   12CHTO   C61 4847   6.186  -0.514   3.167  0.2386 -0.0414  0.1513
   12CHTO  H118 4848   6.219  -0.411   3.148 -0.4971 -0.0259 -1.0474
   12CHTO   O40 4849   6.262  -0.561   3.284  0.2121 -0.4672  0.2656
   12CHTO   C68 4850   6.200  -0.584   3.411 -0.4363  0.0393 -0.3457
   12CHTO  H125 4851   6.193  -0.483   3.456 -0.0487 -0.3121  0.5140
   12CHTO   C72 4852   6.305  -0.661   3.501 -0.0424 -0.1253 -0.9349
   12CHTO   O48 4853   6.438  -0.611   3.522  0.1475  0.1172  0.2520
   12CHTO  H105 4854   6.498  -0.683   3.531 -0.7891 -0.9759 -1.9119
   12CHTO   O38 4855   6.216  -0.608   3.058  0.0091  0.1410  0.5423
   12CHTO   C55 4856   6.343  -0.588   2.990  0.8734 -0.4913  0.2810
   12CHTO  H112 4857   6.403  -0.514   3.046 -1.6018  1.6822  0.1325
   12CHTO   C56 4858   6.324  -0.544   2.835  0.9776 -0.1591 -0.3899
   12CHTO  H113 4859   6.262  -0.621   2.787  0.2802 -0.7764  1.4667
   12CHTO   O42 4860   6.252  -0.422   2.829  0.1820 -0.3794  0.1570
   12CHTO  H100 4861   6.287  -0.348   2.874 -1.0528  0.8177 -0.8283
   12CHTO   C57 4862   6.458  -0.538   2.753 -0.3938 -0.0436  0.5471
   12CHTO  H114 4863   6.513  -0.446   2.775  0.5527 -0.4458 -0.1039
   12CHTO   N10 4864   6.440  -0.515   2.609  0.3759  0.7118 -0.2530
   12CHTO  H106 4865   6.526  -0.537   2.547 -0.8968  1.9971 -2.5301
   12CHTO  H107 4866   6.347  -0.550   2.567  0.0902  0.9257  0.2021
   12CHTO   C58 4867   6.548  -0.659   2.781  0.3375 -0.7148  0.3214
   12CHTO  H115 4868   6.509  -0.750   2.731 -1.6621  0.4871 -0.3291
   12CHTO   O37 4869   6.559  -0.680   2.921  0.1831 -0.3195  0.6549
   12CHTO   C59 4870   6.439  -0.712   2.987 -1.0290  0.1419  0.6548
   12CHTO  H116 4871   6.392  -0.790   2.928 -0.6804 -0.5475  1.2814
   12CHTO   C70 4872   6.475  -0.767   3.126  0.2492  0.0837  0.2757
   12CHTO   O46 4873   6.366  -0.842   3.178 -0.3480  0.0250 -0.0625
   12CHTO  H103 4874   6.292  -0.787   3.196  0.1425  0.0052  2.1479
   12CHTO   O39 4875   6.706  -0.623   2.719  0.0954 -0.0566  0.1573
   12CHTO   C60 4876   6.776  -0.750   2.711  0.1767  0.2594 -0.7948
   12CHTO  H117 4877   6.739  -0.810   2.794 -0.1969  0.1610 -1.0291
   12CHTO   C62 4878   6.753  -0.828   2.578 -1.0943 -0.4172  0.6137
   12CHTO  H119 4879   6.644  -0.823   2.557 -0.7455 -0.6032 -1.3712
   12CHTO   O43 4880   6.803  -0.754   2.466  0.6275 -0.2551 -0.0569
   12CHTO  H101 4881   6.802  -0.810   2.390 -1.9534 -1.5386  0.8696
   12CHTO   C66 4882   6.804  -0.980   2.599  0.0327 -0.4075 -0.3189
   12CHTO  H123 4883   6.745  -1.022   2.681  0.5284 -1.2800 -0.4126
   12CHTO   N12 4884   6.771  -1.068   2.485  0.1934 -0.7218  0.4693
   12CHTO  H110 4885   6.792  -1.172   2.503  0.3388 -0.7512  0.1383
   12CHTO  H111 4886   6.821  -1.039   2.393 -0.7845 -2.4135 -0.6229
   12CHTO   C69 4887   6.952  -0.994   2.642 -0.2072 -0.1185  0.1799
   12CHTO  H126 4888   7.008  -0.985   2.547 -1.1897  0.2995 -0.3639
   12CHTO   O41 4889   7.004  -0.876   2.750 -0.1108  0.2908 -0.0726
   12CHTO   C64 4890   6.929  -0.734   2.733  0.2386  0.0687  0.0986
   12CHTO  H121 4891   6.973  -0.678   2.648 -0.6743 -1.8746 -1.7003
   12CHTO   C71 4892   6.967  -0.646   2.858  0.0622 -0.0516  0.2238
   12CHTO   O47 4893   7.086  -0.579   2.822 -0.1186  0.6489  0.0803
   12CHTO  H104 4894   7.068  -0.487   2.818 -0.9197  0.4718 -0.5449
   12CHTO   O34 4895   6.984  -1.125   2.685  0.0739  0.3412 -0.3487
   12CHTO   C49 4896   7.128  -1.187   2.656 -0.1566  0.3506  0.4995
   12CHTO   H91 4897   7.134  -1.199   2.548  2.4725 -1.4120  0.7921
   12CHTO   C47 4898   7.127  -1.325   2.734 -0.2079  0.7470 -0.4179
   12CHTO   H89 4899   7.217  -1.371   2.689 -0.5588 -0.5217  0.1699
   12CHTO   O33 4900   7.014  -1.412   2.706  0.0739 -0.0466  0.3521
   12CHTO   H70 4901   7.014  -1.505   2.721 -0.8214  0.0859  1.1798
   12CHTO   C45 4902   7.135  -1.303   2.893 -0.2441 -0.0208  0.0967
   12CHTO   H87 4903   7.038  -1.325   2.939  0.5923 -1.2429  1.3441
   12CHTO    N8 4904   7.237  -1.397   2.947  0.0849 -0.1605  0.0992
   12CHTO   H75 4905   7.190  -1.494   2.942 -0.4538  0.1587 -1.0962
   12CHTO   H76 4906   7.252  -1.381   3.053  0.8741  0.6345 -0.1268
   12CHTO   C43 4907   7.153  -1.146   2.927 -0.0906  0.3409  0.1272
   12CHTO   H85 4908   7.055  -1.105   2.903 -0.6622 -0.2096  1.4663
   12CHTO   O29 4909   7.258  -1.084   2.850 -0.1322 -0.4465  0.2441
   12CHTO   C50 4910   7.238  -1.089   2.708 -0.0698  0.0576  0.8216
   12CHTO   H92 4911   7.223  -0.987   2.669 -0.9817 -0.0268  0.9312
   12CHTO   C54 4912   7.380  -1.115   2.642  0.0725 -0.3459  0.6380
   12CHTO   O36 4913   7.367  -1.101   2.501 -0.4317 -0.1500 -0.7872
   12CHTO   H72 4914   7.452  -1.111   2.461  1.0780  3.1096  1.3380
   12CHTO   O27 4915   7.175  -1.116   3.067 -0.2792 -0.0046  0.4298
   12CHTO   C37 4916   7.118  -1.059   3.189  0.6416 -0.1613 -0.1399
   12CHTO   H79 4917   7.202  -1.035   3.256 -0.5226 -0.9474  1.6637
   12CHTO   C38 4918   7.034  -0.925   3.147 -0.3465  0.0137 -0.0005
   12CHTO   H80 4919   6.967  -0.947   3.063 -1.2744  2.2348  0.1212
   12CHTO   O31 4920   7.133  -0.824   3.111  0.6172  0.0397 -0.1299
   12CHTO   H68 4921   7.087  -0.751   3.073 -0.4668 -0.6993 -0.2564
   12CHTO   C39 4922   6.945  -0.877   3.266 -0.1275 -0.2789  0.0370
   12CHTO   H81 4923   7.006  -0.849   3.353 -1.7971  1.2435  0.7439
   12CHTO    N7 4924   6.863  -0.752   3.235  0.6350 -0.0144 -0.3815
   12CHTO   H73 4925   6.789  -0.743   3.313  0.4697 -1.7701 -0.3051
   12CHTO   H74 4926   6.824  -0.759   3.135 -0.0474 -1.7036 -0.0104
   12CHTO   C40 4927   6.861  -1.006   3.316 -0.3371 -0.3860  0.6841
   12CHTO   H82 4928   6.806  -1.048   3.231 -0.2128  1.6758 -0.4391
   12CHTO   O26 4929   6.956  -1.100   3.368 -0.3561 -0.7960  0.1576
   12CHTO   C41 4930   7.033  -1.166   3.261 -0.6862 -0.2753 -0.3713
   12CHTO   H83 4931   6.965  -1.202   3.182  0.6217  0.7057 -1.9633
   12CHTO   C52 4932   7.117  -1.285   3.311  0.2455 -0.0265 -0.1508
   12CHTO   O35 4933   7.056  -1.382   3.373 -0.5868  0.1956  0.3428
   12CHTO   H71 4934   7.088  -1.465   3.345 -0.3425  0.0842  0.9341
   12CHTO   O28 4935   6.765  -0.974   3.417  0.3569 -0.4221 -0.3056
   12CHTO   C42 4936   6.671  -1.064   3.478 -0.0722 -0.5206 -0.1911
   12CHTO   H84 4937   6.720  -1.109   3.565 -0.8469  0.6854  0.8919
   12CHTO   C44 4938   6.620  -1.182   3.399  0.1759 -0.0908 -0.4948
   12CHTO   H86 4939   6.572  -1.149   3.307  0.5174  2.2884  0.1594
   12CHTO   O32 4940   6.726  -1.267   3.363  0.3088  0.3201 -0.0210
   12CHTO   H69 4941   6.740  -1.324   3.436  1.1839 -0.8389 -1.0612
   12CHTO   C48 4942   6.512  -1.263   3.480  0.4434 -0.1806 -0.6448
   12CHTO   H90 4943   6.563  -1.301   3.569  0.9332  0.2139 -0.7627
   12CHTO    N9 4944   6.458  -1.390   3.425 -0.4370  0.0640  0.0574
   12CHTO   H77 4945   6.526  -1.442   3.359 -0.3982 -2.3062  1.9217
   12CHTO   H78 4946   6.371  -1.355   3.370  0.2396  3.1635  0.8634
   12CHTO   C51 4947   6.400  -1.163   3.514 -0.0869  0.2765  0.3118
   12CHTO   H93 4948   6.363  -1.112   3.426 -2.0548 -5.1301 -2.1751
   12CHTO   O30 4949   6.455  -1.065   3.605  0.4236  1.1086  0.7847
   12CHTO   C46 4950   6.544  -0.987   3.530 -0.5774 -0.0948 -0.5576
   12CHTO   H88 4951   6.491  -0.950   3.443  0.9446  2.5668 -0.4163
   12CHTO   C53 4952   6.585  -0.872   3.633  0.4692  0.1974 -0.0745
   12CHTO   O72 4953   6.671  -0.777   3.577  0.1293  0.2322  0.1490
   12CHTO  H199 4954   6.666  -0.695   3.622 -0.2085  0.9893 -1.2335
   12CHTO   O22 4955   6.296  -1.223   3.593 -0.8590 -0.2362  0.0817
   12CHTO   C31 4956   6.152  -1.181   3.598 -0.2703  0.2059  0.1062
   12CHTO   H59 4957   6.100  -1.257   3.661 -3.1461  0.7763 -1.4557
   12CHTO   C29 4958   6.128  -1.040   3.663  0.0788 -0.2534  0.2334
   12CHTO   H57 4959   6.167  -0.962   3.596 -1.6104 -0.7104 -1.3266
   12CHTO   O21 4960   6.200  -1.047   3.789 -0.0993 -0.0110 -0.1476
   12CHTO   H37 4961   6.292  -1.039   3.774 -0.0778  2.7168  1.0273
   12CHTO   C27 4962   5.974  -1.012   3.676 -1.1077  0.0092  0.1031
   12CHTO   H55 4963   5.931  -1.088   3.742  3.1026 -2.0462  0.6330
   12CHTO    N5 4964   5.953  -0.879   3.737  0.1260 -0.6534  1.1513
   12CHTO   H43 4965   5.850  -0.859   3.762 -0.5134 -1.8087 -0.4417
   12CHTO   H44 4966   5.972  -0.803   3.662 -0.8500  0.7707  2.3237
   12CHTO   C25 4967   5.910  -1.030   3.538 -0.6716 -0.0618 -0.5906
   12CHTO   H53 4968   5.957  -0.954   3.474  0.4998 -0.6542 -0.4693
   12CHTO   O17 4969   5.940  -1.163   3.471  0.2210  0.4563  0.1861
   12CHTO   C32 4970   6.080  -1.189   3.456  0.4547 -0.5142  0.0751
   12CHTO   H60 4971   6.120  -1.107   3.397  1.3446  0.4044  1.9085
   12CHTO   C36 4972   6.103  -1.322   3.388 -0.2453  0.0714  0.1795
   12CHTO   O25 4973   6.142  -1.311   3.251  0.0099 -0.5598  0.2586
   12CHTO   H40 4974   6.131  -1.394   3.209 -0.6808  0.0442 -0.7673
   12CHTO   O15 4975   5.763  -1.024   3.547  0.0124  0.0209 -0.0751
   12CHTO   C19 4976   5.664  -0.974   3.459 -0.0493  0.5335  0.5288
   12CHTO   H47 4977   5.663  -0.866   3.482 -0.0760  0.5695  0.3583
   12CHTO   C20 4978   5.690  -1.005   3.306  0.1170 -0.6560 -0.1785
   12CHTO   H48 4979   5.709  -1.112   3.288  0.7875 -1.0840  2.9271
   12CHTO   O19 4980   5.820  -0.943   3.266  0.0228  0.5025  0.6633
   12CHTO   H35 4981   5.828  -0.941   3.173 -0.6600  0.1606  0.5950
   12CHTO   C21 4982   5.566  -0.961   3.219 -0.0296 -0.0544 -0.5271
   12CHTO   H49 4983   5.553  -0.854   3.236 -0.9942 -0.3292  0.5580
   12CHTO    N4 4984   5.587  -0.987   3.074 -0.3617  0.0706  0.4793
   12CHTO   H41 4985   5.521  -0.918   3.023 -0.9649  1.3424  2.9242
   12CHTO   H42 4986   5.687  -0.962   3.043 -0.4986  0.7760  0.6017
   12CHTO   C22 4987   5.436  -1.030   3.271 -0.2050  0.3596  0.7056
   12CHTO   H50 4988   5.438  -1.138   3.256 -1.1361  0.5917 -1.1762
   12CHTO   O14 4989   5.417  -0.989   3.406 -0.5100 -0.4266  0.0707
   12CHTO   C23 4990   5.523  -1.031   3.499  0.3718 -0.3332  0.1273
   12CHTO   H51 4991   5.524  -1.141   3.510 -0.5267 -0.5519 -1.7431
   12CHTO   C34 4992   5.497  -0.980   3.644 -0.0441 -0.1724 -0.5923
   12CHTO   O23 4993   5.378  -1.030   3.706  0.7051  0.4415 -0.8125
   12CHTO   H38 4994   5.306  -0.976   3.680 -0.6566 -1.4983 -1.1908
   12CHTO   O16 4995   5.316  -0.988   3.196 -0.1910  0.1247 -1.0353
   12CHTO   C24 4996   5.228  -1.116   3.090  0.0510 -0.4497 -0.3013
   12CHTO   H52 4997   5.288  -1.205   3.070 -0.9098 -1.1045 -0.3130
   12CHTO   C26 4998   5.202  -1.048   2.956  0.4141  0.0568 -0.3768
   12CHTO   H54 4999   5.130  -0.965   2.973  0.7892  0.5859 -1.3416
   12CHTO   O20 5000   5.323  -0.989   2.908  0.5779 -0.2291  0.0267
   12CHTO   H36 5001   5.332  -1.009   2.817 -5.7707 -1.2227 -0.5787
   12CHTO   C30 5002   5.135  -1.154   2.863 -0.1520 -0.4930 -0.1937
   12CHTO   H58 5003   5.212  -1.227   2.835 -1.6708 -1.6461 -1.4409
   12CHTO    N6 5004   5.088  -1.095   2.733 -0.3599  0.4047 -0.5581
   12CHTO   H45 5005   5.048  -1.175   2.673  0.8639 -1.2279  0.7340
   12CHTO   H46 5006   5.009  -1.025   2.752 -1.7162 -0.7884 -1.6708
   12CHTO   C33 5007   5.029  -1.239   2.929 -0.6154  0.7624 -0.6745
   12CHTO   H61 5008   4.934  -1.184   2.935 -1.3116 -0.3923 -1.1252
   12CHTO   O18 5009   5.068  -1.268   3.064 -0.3375  0.1704 -0.4114
   12CHTO   C28 5010   5.100  -1.161   3.152 -0.3499  0.1437  0.8024
   12CHTO   H56 5011   5.028  -1.079   3.150 -0.4144  0.0530 -1.4204
   12CHTO   C35 5012   5.102  -1.202   3.299 -0.0971 -1.2338  0.1144
   12CHTO   O24 5013   4.994  -1.288   3.322  0.9073  0.4034 -0.2180
   12CHTO   H39 5014   4.986  -1.316   3.411 -2.6680  0.7121 -0.3575
   12CHTO    O9 5015   4.999  -1.360   2.858  0.2939 -0.2363 -0.6837
   12CHTO   C13 5016   5.086  -1.495   2.905 -0.5926 -0.3433 -0.4397
   12CHTO   H26 5017   5.182  -1.458   2.948 -1.5441 -1.0563  2.3752
   12CHTO   C11 5018   5.112  -1.585   2.778  0.9660  0.4909  0.2594
   12CHTO   H24 5019   5.181  -1.531   2.710  1.2545 -0.2916 -0.0687
   12CHTO    O8 5020   4.993  -1.611   2.702  0.5127 -0.0432 -0.1914
   12CHTO    H3 5021   4.934  -1.659   2.757  0.9970 -0.1713  0.2223
   12CHTO    C9 5022   5.189  -1.705   2.828  0.3248 -0.6843  1.0330
   12CHTO   H22 5023   5.282  -1.665   2.872 -0.9940  0.4892  2.8065
   12CHTO    N2 5024   5.245  -1.786   2.719  0.3890 -0.4836 -0.4340
   12CHTO   H10 5025   5.330  -1.848   2.743 -1.0966 -2.9329 -1.3396
   12CHTO   H11 5026   5.279  -1.715   2.645  0.2776 -0.3920 -0.3953
   12CHTO    C7 5027   5.099  -1.784   2.929  0.0623  0.1184  0.1725
   12CHTO   H20 5028   5.162  -1.868   2.963  0.1050 -0.3366 -1.0243
   12CHTO    O4 5029   5.065  -1.710   3.048 -1.0456 -0.2681 -0.8897
   12CHTO   C14 5030   5.014  -1.575   3.024 -0.0956  0.6362 -0.0835
   12CHTO   H27 5031   5.035  -1.514   3.115 -0.4855  2.0796 -0.9524
   12CHTO   C18 5032   4.857  -1.574   2.999  0.1562  0.1953 -0.6611
   12CHTO   O13 5033   4.787  -1.624   3.117 -0.1189  0.0133 -0.5851
   12CHTO    H7 5034   4.714  -1.566   3.128  0.1533  0.1834  0.2902
   12CHTO    O2 5035   4.961  -1.839   2.864  0.4538  0.0361  0.1139
   12CHTO    C1 5036   4.942  -1.984   2.879 -0.8427  0.0811  0.6200
   12CHTO   H14 5037   5.042  -2.025   2.902  0.6051  2.7525 -0.7088
   12CHTO    C2 5038   4.876  -2.062   2.749  0.3908  0.8038  0.5048
   12CHTO   H15 5039   4.783  -2.004   2.737 -0.5172  0.0513  3.6446
   12CHTO    O6 5040   4.968  -2.047   2.637 -0.2142  0.5853  0.1127
   12CHTO    H1 5041   4.940  -2.099   2.564  0.9336 -0.3044  0.2940
   12CHTO    C3 5042   4.848  -2.219   2.773  0.3729 -0.5402  0.1446
   12CHTO   H16 5043   4.943  -2.272   2.785  0.4159 -0.4473  0.2106
   12CHTO    N1 5044   4.767  -2.278   2.662  0.1392  0.3118  0.1043
   12CHTO    H8 5045   4.673  -2.225   2.660 -1.3853 -2.2902  0.8247
   12CHTO    H9 5046   4.820  -2.262   2.569 -0.6369  0.2250 -0.3506
   12CHTO    C4 5047   4.776  -2.235   2.910 -0.3444 -0.0291  0.2311
   12CHTO   H17 5048   4.670  -2.210   2.902  0.0851  1.9675  0.3776
   12CHTO    O1 5049   4.836  -2.157   3.010 -0.4147 -0.3595  0.5724
   12CHTO    C5 5050   4.844  -2.013   2.989 -0.2440 -0.3406 -0.4699
   12CHTO   H18 5051   4.748  -1.974   2.956 -0.7056 -0.6433  0.4861
   12CHTO   C16 5052   4.881  -1.945   3.124 -0.1307  0.6473  0.6073
   12CHTO   O11 5053   4.778  -1.975   3.219  0.1952  0.3279  0.1030
   12CHTO    H5 5054   4.765  -1.902   3.276 -0.1829  0.5529 -0.2665
   12CHTO    O3 5055   4.798  -2.365   2.963 -0.0481  0.0740 -0.1479
   12CHTO    C6 5056   4.693  -2.455   3.024 -0.3143 -0.2704  0.9540
   12CHTO   H19 5057   4.726  -2.527   3.098  0.1425 -1.4926 -0.4063
   12CHTO    C8 5058   4.578  -2.372   3.089 -0.3600 -0.7811  0.0715
   12CHTO   H21 5059   4.523  -2.314   3.014 -1.0659  0.0449  1.2213
   12CHTO    O7 5060   4.625  -2.298   3.203 -0.3561 -0.2558  0.2702
   12CHTO    H2 5061   4.686  -2.232   3.175 -1.9009  1.4769  0.8496
   12CHTO   C12 5062   4.459  -2.472   3.131  0.3339 -0.2482 -0.9481
   12CHTO   H25 5063   4.502  -2.536   3.211 -1.9352 -1.9507 -1.0258
   12CHTO    N3 5064   4.340  -2.403   3.201  0.0585 -0.3853  1.2003
   12CHTO   H12 5065   4.243  -2.434   3.165  0.3302 -0.5488  0.6182
   12CHTO   H13 5066   4.342  -2.444   3.301 -0.2152  0.4000  1.5319
   12CHTO   C15 5067   4.422  -2.573   3.011  0.1599 -0.0813  0.2513
   12CHTO   H28 5068   4.373  -2.514   2.933 -0.4130 -2.8745 -1.5900
   12CHTO   O10 5069   4.328  -2.696   3.054 -0.0770  0.5091 -0.1613
   12CHTO    H4 5070   4.322  -2.762   2.987  1.8393  1.4327 -1.2652
   12CHTO    O5 5071   4.538  -2.638   2.946  0.6435  0.1935 -0.9261
   12CHTO   C10 5072   4.633  -2.536   2.901  1.3030 -0.8355 -0.1827
   12CHTO   H23 5073   4.575  -2.470   2.837 -1.2161 -3.0380 -0.2727
   12CHTO   C17 5074   4.750  -2.592   2.817 -0.3622  0.2251 -0.0748
   12CHTO   O12 5075   4.708  -2.662   2.702 -0.1512 -0.0347  0.0777
   12CHTO    H6 5076   4.762  -2.635   2.630  0.4844  0.3049  0.6885
   13CHTO  H203 5077   8.724   4.587   1.988 -0.3390  0.5001  0.4732
   13CHTO   O82 5078   8.771   4.584   1.907 -0.0786  0.1554  0.6387
   13CHTO  C123 5079   8.680   4.626   1.807  0.4733  0.4798  0.2618
   13CHTO  H227 5080   8.714   4.578   1.714  1.2486  1.3214  0.1124
   13CHTO   O77 5081   8.550   4.577   1.841 -0.0993  0.2229 -0.6378
   13CHTO  C118 5082   8.462   4.610   1.734 -0.0683  0.2665 -0.0991
   13CHTO  H222 5083   8.505   4.583   1.636 -0.5801  2.0705 -0.8501
   13CHTO  C125 5084   8.333   4.525   1.751 -0.9961  0.3690 -0.0195
   13CHTO   O84 5085   8.272   4.541   1.879 -0.0153 -0.0172 -0.3240
   13CHTO  H205 5086   8.218   4.618   1.880  0.0320  0.0513 -1.7829
   13CHTO  C114 5087   8.436   4.766   1.742 -0.5444  0.4552  0.6006
   13CHTO  H218 5088   8.421   4.801   1.844  0.6622  1.1465  0.5540
   13CHTO  C116 5089   8.570   4.836   1.712 -0.1389 -0.7797  0.4886
   13CHTO  H220 5090   8.596   4.818   1.606  1.2595  1.9455  0.3246
   13CHTO   O79 5091   8.543   4.974   1.727 -0.2586  0.0862  0.4093
   13CHTO  H201 5092   8.599   5.029   1.675  0.9923  0.2711  1.9268
   13CHTO  C120 5093   8.691   4.786   1.796  0.5463 -0.3464 -0.2086
   13CHTO  H224 5094   8.684   4.821   1.901  0.8613 -0.5238 -0.1276
   13CHTO   N21 5095   8.820   4.839   1.743  0.0394  0.9614 -0.2600
   13CHTO  H211 5096   8.888   4.864   1.823  1.0661 -4.0374  0.5801
   13CHTO  H212 5097   8.867   4.762   1.684 -1.4513 -0.0226 -0.1955
   13CHTO   O75 5098   8.331   4.792   1.646 -0.6501  0.5545 -0.3517
   13CHTO  C112 5099   8.227   4.909   1.692 -0.4108 -0.1839 -0.0396
   13CHTO  H216 5100   8.283   4.996   1.729 -3.3323  1.0195  1.6789
   13CHTO   O73 5101   8.144   4.852   1.793 -0.0592 -0.4851 -0.2159
   13CHTO  C113 5102   8.059   4.937   1.864 -0.1679 -0.0033  0.3783
   13CHTO  H217 5103   8.120   5.014   1.917  1.6967 -1.0930 -0.1177
   13CHTO  C124 5104   7.977   4.852   1.968  0.0994 -0.3653 -0.3934
   13CHTO   O83 5105   7.872   4.910   2.055  0.2168  0.1821  0.2242
   13CHTO  H204 5106   7.918   4.947   2.128  0.4158 -0.9440  0.6777
   13CHTO  C109 5107   7.968   5.007   1.760  0.3535 -0.5131  0.5169
   13CHTO  H213 5108   7.901   4.926   1.725 -0.8120 -0.0585  1.6698
   13CHTO  C110 5109   8.053   5.069   1.641 -0.0339 -0.8632 -0.8640
   13CHTO  H214 5110   8.116   5.149   1.678 -0.8507 -0.7890  0.4223
   13CHTO   O78 5111   7.954   5.130   1.558 -0.4190  0.1705  0.7813
   13CHTO  H200 5112   7.893   5.072   1.516  1.3435 -1.9076  1.0254
   13CHTO  C111 5113   8.131   4.954   1.579  0.0142 -0.6453 -0.0384
   13CHTO  H215 5114   8.063   4.872   1.554 -2.2365  0.9634  0.6358
   13CHTO   N19 5115   8.201   4.991   1.452 -0.1749  0.1684 -0.0022
   13CHTO  H207 5116   8.256   4.908   1.410 -0.0841 -0.7292  1.8318
   13CHTO  H208 5117   8.123   5.023   1.384  0.5943  0.0512 -0.9504
   13CHTO   O74 5118   7.892   5.105   1.835  0.5388 -0.0204 -0.8873
   13CHTO  C115 5119   7.733   5.106   1.805 -0.3804  0.3740 -0.0343
   13CHTO  H219 5120   7.705   5.180   1.730  0.8377  0.1777 -0.6860
   13CHTO   O76 5121   7.677   4.963   1.751 -0.0444  0.3296 -0.2461
   13CHTO  C122 5122   7.537   4.948   1.724 -0.2006  0.3391 -0.6931
   13CHTO  H226 5123   7.517   4.842   1.709  0.2834  0.0854  0.4017
   13CHTO  C126 5124   7.504   5.014   1.586  0.2942 -0.6402  0.5257
   13CHTO   O85 5125   7.571   4.947   1.480  0.3469  0.5205  0.1775
   13CHTO  H206 5126   7.530   4.957   1.396 -1.1849 -1.0946  0.6928
   13CHTO  C121 5127   7.452   5.005   1.843 -0.0667 -1.0817 -1.3115
   13CHTO  H225 5128   7.347   5.014   1.809 -0.2915  1.6421  0.0174
   13CHTO   O81 5129   7.450   4.909   1.951  0.3035 -0.2189  0.2476
   13CHTO  H202 5130   7.524   4.853   1.964  0.3024 -0.6031 -1.4145
   13CHTO  C119 5131   7.496   5.148   1.889  0.7444  0.0549  0.7347
   13CHTO  H223 5132   7.487   5.212   1.801 -1.9443  0.0056  0.9219
   13CHTO  C117 5133   7.646   5.149   1.927 -0.2987 -0.3933  0.1686
   13CHTO  H221 5134   7.679   5.077   2.003  0.7338  0.6782  0.7454
   13CHTO   N20 5135   7.688   5.288   1.973  0.0594  0.1745  0.2509
   13CHTO  H209 5136   7.614   5.366   1.978 -0.5849 -0.5079  1.7952
   13CHTO  H210 5137   7.763   5.277   2.051 -0.1503  0.9937  0.5795
   13CHTO   O80 5138   7.395   5.218   2.002  0.2691 -0.2476 -0.1921
   13CHTO  C103 5139   7.251   5.299   1.951  0.2597 -0.0176 -0.2958
   13CHTO  H190 5140   7.211   5.362   2.031 -0.2816  0.3431 -0.8487
   13CHTO  C101 5141   7.261   5.374   1.819 -0.2302 -0.2088  0.2895
   13CHTO  H188 5142   7.295   5.307   1.740 -0.7771  2.0869 -1.9404
   13CHTO   O68 5143   7.371   5.496   1.832  0.6747  0.2896  0.5956
   13CHTO  H168 5144   7.453   5.458   1.858  0.9967 -0.3663 -1.2630
   13CHTO   C99 5145   7.113   5.424   1.770  0.3070 -0.1090 -0.4477
   13CHTO  H186 5146   7.071   5.488   1.851 -0.5877 -0.5845 -0.5298
   13CHTO   N17 5147   7.113   5.501   1.637  0.5348  0.4882 -0.0216
   13CHTO  H174 5148   7.013   5.530   1.610  1.7246  1.0823 -4.1382
   13CHTO  H175 5149   7.163   5.593   1.660  1.7160  0.3174 -1.8394
   13CHTO   C97 5150   7.022   5.303   1.753 -0.1016 -0.2669 -0.4969
   13CHTO  H184 5151   7.060   5.238   1.673 -0.6551  0.2688 -1.2082
   13CHTO   O64 5152   7.022   5.233   1.881 -0.2367 -0.4649 -0.3152
   13CHTO  C104 5153   7.150   5.185   1.932  0.5408  0.1059 -0.1009
   13CHTO  H191 5154   7.183   5.114   1.856  0.4971  0.3038 -0.3026
   13CHTO  C108 5155   7.112   5.103   2.058 -0.1565  0.2833 -0.7147
   13CHTO   O71 5156   7.219   5.059   2.136  0.0997 -0.3822 -0.8185
   13CHTO  H171 5157   7.177   5.044   2.218 -1.4516  0.7167 -1.3984
   13CHTO   O62 5158   6.882   5.339   1.731 -0.0031 -0.8847 -0.3318
   13CHTO   C91 5159   6.802   5.238   1.665 -0.7750  1.0326  0.3868
   13CHTO  H178 5160   6.845   5.138   1.674  0.5444  1.4794 -0.7382
   13CHTO   C92 5161   6.779   5.272   1.514 -0.2642 -0.5925 -0.5317
   13CHTO  H179 5162   6.752   5.377   1.498 -0.5551 -0.4325  0.9609
   13CHTO   O66 5163   6.909   5.252   1.450  0.1999  0.2087 -0.4978
   13CHTO  H166 5164   6.941   5.164   1.450  1.5380  0.6768  0.6390
   13CHTO   C93 5165   6.669   5.180   1.452 -0.2673  0.3411  0.1382
   13CHTO  H180 5166   6.714   5.081   1.432  0.5028  0.9594 -1.2216
   13CHTO   N16 5167   6.629   5.229   1.316 -0.4328  0.1858 -0.5954
   13CHTO  H172 5168   6.719   5.229   1.256 -0.2707 -0.6382 -0.3682
   13CHTO  H173 5169   6.559   5.163   1.265 -0.7176  0.0696 -0.0591
   13CHTO   C94 5170   6.542   5.156   1.540  0.2915  0.0054 -0.4765
   13CHTO  H181 5171   6.476   5.243   1.546 -0.5192 -0.6565  0.3221
   13CHTO   O61 5172   6.575   5.134   1.682  0.1523 -0.3118 -0.3204
   13CHTO   C95 5173   6.665   5.236   1.737 -0.4132 -0.3025 -0.0533
   13CHTO  H182 5174   6.611   5.330   1.731 -0.0918 -0.2407 -2.2793
   13CHTO  C106 5175   6.678   5.203   1.888  0.1556  0.2572  0.1907
   13CHTO   O69 5176   6.722   5.073   1.924  0.6891  0.0234 -0.2726
   13CHTO  H169 5177   6.668   5.002   1.896  0.5158 -0.0832  0.3308
   13CHTO   O63 5178   6.461   5.024   1.483 -0.3405  0.7173 -0.5505
   13CHTO   C96 5179   6.302   5.000   1.528  0.0335 -0.6276  0.0127
   13CHTO  H183 5180   6.251   4.925   1.466  0.5080 -1.7463  0.9489
   13CHTO   C98 5181   6.215   5.127   1.503 -0.2159  0.5360  0.5543
   13CHTO  H185 5182   6.266   5.220   1.533  0.4964  0.0520  0.8673
   13CHTO   O67 5183   6.203   5.137   1.357  0.1533 -0.2541 -0.0762
   13CHTO  H167 5184   6.178   5.225   1.337  0.3109  0.2687  1.8721
   13CHTO  C102 5185   6.066   5.113   1.573 -0.1990 -0.1835  0.2477
   13CHTO  H189 5186   6.006   5.047   1.509  0.6474 -0.9459  0.2281
   13CHTO   N18 5187   5.987   5.239   1.576 -0.9347  0.0565 -0.2963
   13CHTO  H176 5188   6.020   5.299   1.660 -1.8180 -0.1433  0.2090
   13CHTO  H177 5189   6.001   5.290   1.482  1.0088  0.5035  0.2150
   13CHTO  C105 5190   6.074   5.051   1.721 -0.1446 -0.4370  0.5514
   13CHTO  H192 5191   6.126   5.125   1.782  1.2802  0.7896 -2.0341
   13CHTO   O65 5192   6.154   4.934   1.716  0.3193  0.1546 -0.0796
   13CHTO  C100 5193   6.293   4.951   1.675 -0.2851  0.4761  0.2734
   13CHTO  H187 5194   6.341   5.018   1.748  0.8941 -1.7218  1.5455
   13CHTO  C107 5195   6.364   4.821   1.679  0.0710 -0.1998 -0.2361
   13CHTO   O70 5196   6.385   4.772   1.813  0.0297  0.4288  0.3655
   13CHTO  H170 5197   6.367   4.680   1.820 -2.0911  0.5029 -3.1298
   13CHTO   O57 5198   5.929   5.019   1.776  0.3367 -0.0196 -0.4836
   13CHTO   C85 5199   5.829   4.944   1.706  0.2029  0.2680  1.1043
   13CHTO  H157 5200   5.870   4.910   1.608  2.2561 -0.2562  2.1287
   13CHTO   C83 5201   5.706   5.040   1.670  0.3056 -0.2366 -0.3094
   13CHTO  H155 5202   5.735   5.111   1.592  1.3415  3.1954  3.0628
   13CHTO   O56 5203   5.671   5.116   1.788 -0.1657  0.2441  0.5955
   13CHTO  H135 5204   5.586   5.094   1.821  0.6279 -0.2505  2.3736
   13CHTO   C81 5205   5.585   4.958   1.613 -0.3018 -0.2066  0.0312
   13CHTO  H153 5206   5.616   4.915   1.517 -0.9874 -2.5959  0.8290
   13CHTO   N14 5207   5.475   5.044   1.570 -0.3751  0.3858 -0.0490
   13CHTO  H141 5208   5.404   5.053   1.650 -1.7700 -0.3998 -1.1667
   13CHTO  H142 5209   5.422   5.001   1.487  0.7965 -0.8913 -0.1673
   13CHTO   C79 5210   5.541   4.836   1.714 -0.0546  0.4641  1.0587
   13CHTO  H151 5211   5.472   4.772   1.659  1.2386 -0.8893  0.9802
   13CHTO   O52 5212   5.664   4.761   1.740  0.3854 -0.1400  0.1528
   13CHTO   C86 5213   5.783   4.831   1.792 -0.1587 -0.3243 -0.6979
   13CHTO  H158 5214   5.749   4.871   1.890 -0.3336 -2.9625  0.3889
   13CHTO   C90 5215   5.890   4.725   1.829  0.1407  0.4635  0.5443
   13CHTO   O60 5216   5.970   4.780   1.939  0.1312 -0.2039  0.0181
   13CHTO  H138 5217   5.927   4.797   2.020  0.5146  2.8086 -0.3416
   13CHTO   O50 5218   5.474   4.883   1.834 -0.1007  0.1117  0.2096
   13CHTO   C73 5219   5.372   4.847   1.921 -0.1621 -0.5753 -0.4194
   13CHTO  H145 5220   5.315   4.763   1.877  0.8441 -2.1057  1.1392
   13CHTO   C74 5221   5.272   4.974   1.925 -0.5938 -0.1021  0.5277
   13CHTO  H146 5222   5.256   4.995   1.818  4.4552 -1.0029 -0.5311
   13CHTO   O54 5223   5.151   4.931   1.994  0.2999  0.0273 -0.0629
   13CHTO  H133 5224   5.119   4.848   1.963 -0.5389  0.8022 -1.3113
   13CHTO   C75 5225   5.348   5.093   1.992  0.7079 -0.3480 -0.0309
   13CHTO  H147 5226   5.442   5.106   1.938  0.1459 -0.9288 -1.1764
   13CHTO   N13 5227   5.275   5.217   2.000 -0.3408  0.0300  0.1986
   13CHTO  H139 5228   5.349   5.291   2.023  0.9099 -1.4475  0.9782
   13CHTO  H140 5229   5.229   5.247   1.907 -0.3411  3.4673  1.2585
   13CHTO   C76 5230   5.387   5.044   2.138 -0.0495  0.0645  0.3148
   13CHTO  H148 5231   5.297   5.010   2.189  0.1224  1.3896  1.5488
   13CHTO   O49 5232   5.481   4.930   2.125  0.1280  0.1064  0.4532
   13CHTO   C77 5233   5.420   4.809   2.069  0.3903 -0.1213  0.2719
   13CHTO  H149 5234   5.338   4.767   2.127 -2.0233 -0.3493 -3.1447
   13CHTO   C88 5235   5.528   4.699   2.060  0.4201 -0.3853 -0.0944
   13CHTO   O58 5236   5.572   4.647   2.201 -0.0551 -0.0780 -0.4460
   13CHTO  H136 5237   5.506   4.586   2.228 -0.1264  0.8481  1.5659
   13CHTO   O51 5238   5.472   5.165   2.241 -0.4425 -0.4657 -0.6020
   13CHTO   C78 5239   5.638   5.214   2.232  0.3603  0.3020  0.8189
   13CHTO  H150 5240   5.666   5.284   2.313  0.1489  0.5857  0.6493
   13CHTO   C80 5241   5.670   5.281   2.094  0.6402 -0.2056 -0.1339
   13CHTO  H152 5242   5.622   5.223   2.013  0.4078  1.9649 -1.6033
   13CHTO   O55 5243   5.614   5.414   2.098  0.4205  0.0086 -0.3063
   13CHTO  H134 5244   5.537   5.412   2.151  0.0337 -0.2553 -0.8781
   13CHTO   C84 5245   5.827   5.304   2.071  0.5995 -0.4071 -0.2649
   13CHTO  H156 5246   5.855   5.381   2.143 -0.7516 -0.8137  0.7155
   13CHTO   N15 5247   5.859   5.350   1.930  0.1314 -0.6104 -0.1928
   13CHTO  H143 5248   5.902   5.448   1.931 -1.4813  0.1182 -0.8951
   13CHTO  H144 5249   5.766   5.353   1.878 -0.3163  0.3770  0.6495
   13CHTO   C87 5250   5.908   5.180   2.119  0.0929  0.3720  0.3930
   13CHTO  H159 5251   5.906   5.108   2.037  2.0473 -0.6957  1.2549
   13CHTO   O53 5252   5.863   5.119   2.268  0.0985  0.1109  0.0929
   13CHTO   C82 5253   5.725   5.087   2.251  0.1134 -0.1011 -0.4039
   13CHTO  H154 5254   5.719   5.025   2.160 -1.7952  1.5584 -1.4512
   13CHTO   C89 5255   5.693   4.995   2.371  0.2715  0.0304  0.2322
   13CHTO   O59 5256   5.729   4.855   2.345  0.0424 -0.2010  0.3364
   13CHTO  H137 5257   5.821   4.848   2.328  0.1154 -2.1339  1.3852
   13CHTO   O45 5258   6.062   5.215   2.121  0.3442 -0.2264  0.0545
   13CHTO   C67 5259   6.162   5.109   2.099  0.0519 -0.3447 -0.8064
   13CHTO  H124 5260   6.141   5.046   2.013 -0.4255 -0.8722 -0.3101
   13CHTO   C65 5261   6.302   5.176   2.075  0.0544 -0.5710  0.2596
   13CHTO  H122 5262   6.297   5.260   2.006 -1.1942 -0.2370  0.7394
   13CHTO   O44 5263   6.391   5.077   2.017 -0.4874  0.2026  0.2409
   13CHTO  H102 5264   6.473   5.122   2.006 -1.2624  1.5848 -0.0409
   13CHTO   C63 5265   6.358   5.242   2.209 -0.2886 -0.1408 -0.0041
   13CHTO  H120 5266   6.287   5.320   2.236 -1.9314 -1.9301  0.9813
   13CHTO   N11 5267   6.485   5.324   2.198  0.3403 -0.0504  0.1052
   13CHTO  H108 5268   6.479   5.399   2.122 -0.4003 -1.1253 -0.9023
   13CHTO  H109 5269   6.499   5.371   2.293  2.5071  1.8512 -1.0901
   13CHTO   C61 5270   6.352   5.128   2.328  1.0166  0.2413 -0.3436
   13CHTO  H118 5271   6.365   5.188   2.419 -0.1632  0.6231 -0.4139
   13CHTO   O40 5272   6.224   5.065   2.349  0.0587 -0.1035 -0.1509
   13CHTO   C68 5273   6.166   5.015   2.223 -0.6796 -0.0724  0.4155
   13CHTO  H125 5274   6.061   4.990   2.249 -0.3882 -0.4329  1.2910
   13CHTO   C72 5275   6.230   4.875   2.191 -0.2099 -0.1714  0.0335
   13CHTO   O48 5276   6.213   4.779   2.292  0.4869 -0.1230 -0.2482
   13CHTO  H105 5277   6.280   4.714   2.289  0.3764 -0.2264 -0.4892
   13CHTO   O38 5278   6.459   5.031   2.318  0.4080 -0.3334 -0.5361
   13CHTO   C55 5279   6.556   4.999   2.418  0.2803  0.4354 -0.1140
   13CHTO  H112 5280   6.616   4.915   2.380 -1.2986  0.1182 -1.9734
   13CHTO   C56 5281   6.489   4.969   2.554 -0.3991 -0.1995 -0.1158
   13CHTO  H113 5282   6.425   5.053   2.584 -0.2885 -0.0317 -0.3430
   13CHTO   O42 5283   6.409   4.849   2.524  0.0560 -0.4307  0.0009
   13CHTO  H100 5284   6.318   4.870   2.534 -0.2796 -0.6170 -2.3787
   13CHTO   C57 5285   6.597   4.951   2.672 -0.3451 -0.1808 -0.4900
   13CHTO  H114 5286   6.659   4.867   2.641  0.2939  0.2163 -0.2678
   13CHTO   N10 5287   6.534   4.928   2.801  0.0467  0.2409 -0.2866
   13CHTO  H106 5288   6.597   4.966   2.881  0.7154  2.0675 -1.6501
   13CHTO  H107 5289   6.521   4.823   2.822  2.1431  0.3116  1.6636
   13CHTO   C58 5290   6.684   5.078   2.671  0.3302 -0.2341  0.2277
   13CHTO  H115 5291   6.622   5.170   2.683  0.4760 -0.4703  3.2278
   13CHTO   O37 5292   6.751   5.078   2.539  0.0738 -0.1759 -0.2085
   13CHTO   C59 5293   6.660   5.106   2.429  0.2183  0.2137  0.4151
   13CHTO  H116 5294   6.614   5.205   2.441  0.5573  0.5125 -0.6536
   13CHTO   C70 5295   6.750   5.120   2.302  0.6457 -0.1256  0.1626
   13CHTO   O46 5296   6.829   5.001   2.286 -0.3111 -0.0688 -0.1626
   13CHTO  H103 5297   6.795   4.947   2.218  1.4281 -1.6664  0.1958
   13CHTO   O39 5298   6.791   5.075   2.787  0.6941 -0.7489  0.3959
   13CHTO   C60 5299   6.875   5.188   2.787  0.5099 -0.4222  0.0059
   13CHTO  H117 5300   6.894   5.231   2.688  0.2438 -0.5060 -0.0822
   13CHTO   C62 5301   6.804   5.299   2.870 -0.1254  0.5419  1.0783
   13CHTO  H119 5302   6.712   5.326   2.815  0.2856  0.2327  0.2240
   13CHTO   O43 5303   6.786   5.253   3.004 -0.1185  0.7874 -0.8114
   13CHTO  H101 5304   6.704   5.208   3.010  0.0530  0.3083 -2.0338
   13CHTO   C66 5305   6.887   5.430   2.864  0.5011  0.0152 -0.2503
   13CHTO  H123 5306   6.904   5.456   2.759  0.5250  0.1809 -0.2051
   13CHTO   N12 5307   6.830   5.554   2.928  0.0605 -0.2515 -0.1693
   13CHTO  H110 5308   6.897   5.637   2.916 -0.7266  0.4342  0.0987
   13CHTO  H111 5309   6.735   5.564   2.877 -0.7464 -1.4977  1.0314
   13CHTO   C69 5310   7.031   5.400   2.924 -0.1975  0.6526 -0.1221
   13CHTO  H126 5311   7.028   5.378   3.033 -0.4932  1.4164  0.0324
   13CHTO   O41 5312   7.096   5.272   2.843 -0.1530  0.0069 -0.6027
   13CHTO   C64 5313   7.010   5.147   2.844 -0.1298  0.1897 -0.0182
   13CHTO  H121 5314   6.993   5.109   2.947  0.4918 -1.7705 -0.6302
   13CHTO   C71 5315   7.074   5.035   2.757  0.1146  0.5067 -0.1321
   13CHTO   O47 5316   7.014   4.901   2.737 -0.3912 -0.0039  0.3595
   13CHTO  H104 5317   6.997   4.863   2.821 -1.6388 -0.8807 -0.2733
   13CHTO   O34 5318   7.143   5.534   2.896  0.1415  0.0005  0.3857
   13CHTO   C49 5319   7.265   5.569   2.935 -0.3915  0.2116  0.0085
   13CHTO   H91 5320   7.319   5.474   2.946 -1.8182 -0.4895  1.2915
   13CHTO   C47 5321   7.256   5.645   3.074  0.1492 -1.0745 -0.0856
   13CHTO   H89 5322   7.363   5.653   3.101  0.0009  0.5624  0.1110
   13CHTO   O33 5323   7.191   5.559   3.173  0.1522 -0.3777  0.3085
   13CHTO   H70 5324   7.217   5.585   3.260  0.5196  0.3809 -0.0281
   13CHTO   C45 5325   7.185   5.787   3.057  0.8720  0.3559 -0.2799
   13CHTO   H87 5326   7.076   5.777   3.068  0.8070  2.0250  0.7389
   13CHTO    N8 5327   7.239   5.873   3.164 -0.3485  0.2336 -0.1343
   13CHTO   H75 5328   7.244   5.830   3.263 -1.9831  0.7924  0.2009
   13CHTO   H76 5329   7.216   5.978   3.164 -0.4385  0.2136 -0.3699
   13CHTO   C43 5330   7.191   5.844   2.910 -0.0194  0.0731 -0.3522
   13CHTO   H85 5331   7.107   5.793   2.861 -0.9247 -0.9165  2.1864
   13CHTO   O29 5332   7.309   5.804   2.843  0.2553  0.0813  0.1558
   13CHTO   C50 5333   7.343   5.666   2.836 -0.5338 -0.1442 -0.0591
   13CHTO   H92 5334   7.327   5.623   2.736  2.7843 -3.7541  0.8220
   13CHTO   C54 5335   7.497   5.665   2.852  0.3434 -0.5420  0.3989
   13CHTO   O36 5336   7.550   5.533   2.847  0.1726  0.2730 -0.0502
   13CHTO   H72 5337   7.638   5.518   2.876 -0.3187 -0.5166  1.0403
   13CHTO   O27 5338   7.150   5.978   2.905 -0.7225 -0.5334 -0.0635
   13CHTO   C37 5339   7.171   6.121   2.924 -0.4173 -0.2527  0.0475
   13CHTO   H79 5340   7.222   6.142   3.019  0.2596 -0.7890 -0.1937
   13CHTO   C38 5341   7.261   6.185   2.810  0.0731 -0.8289  0.1745
   13CHTO   H80 5342   7.225   6.150   2.712  3.0184 -1.6413 -0.6491
   13CHTO   O31 5343   7.386   6.124   2.828  0.0391  0.1394  0.1145
   13CHTO   H68 5344   7.425   6.183   2.889 -0.2773  2.7216 -2.1176
   13CHTO   C39 5345   7.252   6.345   2.819 -0.3422  0.7806 -0.3703
   13CHTO   H81 5346   7.302   6.373   2.912 -1.3579  0.2752  0.3347
   13CHTO    N7 5347   7.325   6.409   2.700 -0.0698  0.2149 -0.2154
   13CHTO   H73 5348   7.259   6.440   2.620 -2.2064 -2.2014  0.5190
   13CHTO   H74 5349   7.397   6.342   2.655 -1.0715 -2.3372  1.8430
   13CHTO   C40 5350   7.106   6.396   2.822 -0.1324 -0.3034  0.3958
   13CHTO   H82 5351   7.055   6.378   2.727  0.5272 -1.1958  0.2002
   13CHTO   O26 5352   7.039   6.332   2.930  0.0018  0.4282  0.0147
   13CHTO   C41 5353   7.029   6.190   2.927  0.0432  0.2111 -0.3193
   13CHTO   H83 5354   6.977   6.153   2.837  2.3074 -1.9162 -0.8043
   13CHTO   C52 5355   6.960   6.150   3.056 -0.3486 -0.0251  0.4740
   13CHTO   O35 5356   6.917   5.998   3.050  0.0606 -0.3244  0.3267
   13CHTO   H71 5357   6.830   5.997   3.015 -0.1835 -0.6153  0.9425
   13CHTO   O28 5358   7.104   6.536   2.858 -0.2835 -0.1763 -0.1868
   13CHTO   C42 5359   7.026   6.633   2.779 -0.3923  0.2974 -1.1491
   13CHTO   H84 5360   7.002   6.590   2.682 -1.2061 -0.1037 -0.7759
   13CHTO   C44 5361   7.117   6.764   2.767  0.6906 -0.5023 -0.5170
   13CHTO   H86 5362   7.129   6.802   2.868  1.4506 -0.8931 -0.4582
   13CHTO   O32 5363   7.245   6.732   2.707  0.1774 -0.5409 -0.0316
   13CHTO   H69 5364   7.308   6.786   2.751 -0.5834  0.8831 -0.6602
   13CHTO   C48 5365   7.036   6.872   2.681 -0.5827  0.0327 -0.3620
   13CHTO   H90 5366   7.004   6.843   2.581  0.9340  0.6018 -1.0336
   13CHTO    N9 5367   7.116   7.002   2.666  0.7547 -0.7733  0.1103
   13CHTO   H77 5368   7.200   6.985   2.600 -0.3638 -1.3258 -1.1713
   13CHTO   H78 5369   7.051   7.080   2.630  0.3682 -0.9969  0.3168
   13CHTO   C51 5370   6.892   6.895   2.757  0.1120  0.1002 -0.4308
   13CHTO   H93 5371   6.905   6.939   2.855 -0.8542 -1.9156  0.6346
   13CHTO   O30 5372   6.818   6.771   2.759 -0.2004 -0.2181  0.4734
   13CHTO   C46 5373   6.886   6.662   2.847 -0.4541  0.0457  1.3439
   13CHTO   H88 5374   6.896   6.704   2.947 -1.5230  0.6206  1.2120
   13CHTO   C53 5375   6.793   6.533   2.843 -0.0429  0.3111  0.0008
   13CHTO   O72 5376   6.668   6.567   2.901 -0.0835  0.2848  0.0065
   13CHTO  H199 5377   6.647   6.651   2.866  0.0777 -0.5644 -2.2121
   13CHTO   O22 5378   6.812   6.982   2.674 -0.5937 -0.2879  0.7881
   13CHTO   C31 5379   6.683   7.039   2.704 -0.1669  0.3063  0.4170
   13CHTO   H59 5380   6.663   7.104   2.616 -2.4625 -0.5287  0.3040
   13CHTO   C29 5381   6.564   6.944   2.707  0.0734 -0.8546  0.4324
   13CHTO   H57 5382   6.576   6.865   2.782  0.1278 -0.5456  0.7496
   13CHTO   O21 5383   6.555   6.881   2.572  0.6036  1.0977  0.5121
   13CHTO   H37 5384   6.549   6.951   2.509  0.7353  1.0536  0.4498
   13CHTO   C27 5385   6.431   7.019   2.737  0.3909 -0.7195  0.0416
   13CHTO   H55 5386   6.402   7.094   2.662  0.1375 -0.0719  0.7756
   13CHTO    N5 5387   6.319   6.922   2.764  0.3728  0.2223 -0.1158
   13CHTO   H43 5388   6.234   6.976   2.803  1.0293  1.5654 -0.5438
   13CHTO   H44 5389   6.280   6.891   2.668  0.3002  2.4844 -0.8428
   13CHTO   C25 5390   6.441   7.114   2.865  0.0032  0.2735 -0.1558
   13CHTO   H53 5391   6.461   7.045   2.948 -2.2145  1.6474  1.5692
   13CHTO   O17 5392   6.562   7.200   2.845 -0.6027 -0.3859 -0.8066
   13CHTO   C32 5393   6.687   7.132   2.827  0.0534  0.7991 -0.1200
   13CHTO   H60 5394   6.705   7.068   2.912  0.7713  0.3333 -0.6116
   13CHTO   C36 5395   6.804   7.237   2.804 -0.9691  1.0235 -1.0495
   13CHTO   O25 5396   6.790   7.312   2.686  0.2242 -1.0592  0.6085
   13CHTO   H40 5397   6.817   7.401   2.690  0.5948 -1.2178  1.8109
   13CHTO   O15 5398   6.319   7.215   2.892 -0.0591 -0.0486 -0.4586
   13CHTO   C19 5399   6.211   7.311   2.889 -0.0605  0.5983  0.4541
   13CHTO   H47 5400   6.223   7.377   2.977  0.1081  0.6747  0.3740
   13CHTO   C20 5401   6.221   7.392   2.755 -0.2001  0.2764 -0.4876
   13CHTO   H48 5402   6.251   7.329   2.669  1.3901  0.3525 -0.0116
   13CHTO   O19 5403   6.330   7.484   2.780 -0.7042  0.1784 -0.2757
   13CHTO   H35 5404   6.353   7.517   2.696 -2.4941  0.9106 -0.5156
   13CHTO   C21 5405   6.090   7.481   2.727 -0.3192 -0.8839 -0.2433
   13CHTO   H49 5406   6.097   7.568   2.791  3.0813 -0.2970 -1.2890
   13CHTO    N4 5407   6.092   7.535   2.590  0.7299  0.1780 -0.5478
   13CHTO   H41 5408   6.179   7.598   2.576  1.0734  0.2360  1.7681
   13CHTO   H42 5409   6.005   7.594   2.567  0.6111  0.2374  0.0731
   13CHTO   C22 5410   5.965   7.396   2.765 -0.1731  0.1908 -0.7723
   13CHTO   H50 5411   5.945   7.326   2.684 -0.9565 -1.1007  0.5091
   13CHTO   O14 5412   5.969   7.335   2.896  0.0004  0.3663  0.2989
   13CHTO   C23 5413   6.075   7.241   2.916  0.5217 -0.1675 -0.5573
   13CHTO   H51 5414   6.053   7.155   2.852  0.1980 -2.2326  2.2433
   13CHTO   C34 5415   6.067   7.192   3.055  0.0341 -0.3446  0.3016
   13CHTO   O23 5416   6.072   7.295   3.150  0.5331 -0.1351 -0.1116
   13CHTO   H38 5417   5.995   7.349   3.153  0.4835 -0.1398 -1.3965
   13CHTO   O16 5418   5.849   7.487   2.767  0.6774  0.5306 -0.0229
   13CHTO   C24 5419   5.709   7.415   2.799 -0.1356 -0.0724 -0.8363
   13CHTO   H52 5420   5.720   7.339   2.875  0.9971  0.5399 -0.3743
   13CHTO   C26 5421   5.663   7.333   2.675  0.4463 -0.0191 -0.4629
   13CHTO   H54 5422   5.687   7.385   2.580  2.4516  0.1035  0.1086
   13CHTO   O20 5423   5.746   7.210   2.673 -0.4379 -0.0770  0.1361
   13CHTO   H36 5424   5.718   7.140   2.729 -0.7115 -0.2382 -0.2021
   13CHTO   C30 5425   5.509   7.297   2.676 -0.2331  0.2411 -0.0712
   13CHTO   H58 5426   5.495   7.198   2.722 -1.1393  0.4522  0.1341
   13CHTO    N6 5427   5.463   7.268   2.536  0.0866  0.6712 -0.5368
   13CHTO   H45 5428   5.362   7.306   2.524 -0.6225 -1.7260 -2.3535
   13CHTO   H46 5429   5.527   7.323   2.469 -0.2761  0.4572 -1.0663
   13CHTO   C33 5430   5.420   7.400   2.757 -0.8896 -0.2747  0.0977
   13CHTO   H61 5431   5.400   7.493   2.701 -0.8651  0.1502  0.7846
   13CHTO   O18 5432   5.480   7.443   2.878 -0.0113  0.3703  0.2691
   13CHTO   C28 5433   5.606   7.511   2.852  0.4209 -0.4087 -0.0463
   13CHTO   H56 5434   5.591   7.590   2.778 -0.1786  0.6914  1.2455
   13CHTO   C35 5435   5.661   7.575   2.981 -0.5845  0.0550 -0.5115
   13CHTO   O24 5436   5.578   7.673   3.040  0.2859  0.0829  0.1116
   13CHTO   H39 5437   5.587   7.756   2.998  0.1622  0.3615  0.6276
   13CHTO    O9 5438   5.291   7.338   2.777 -0.7566 -0.2343  0.7873
   13CHTO   C13 5439   5.283   7.235   2.891  0.2183 -0.3686  0.2073
   13CHTO   H26 5440   5.378   7.231   2.949  1.0397  4.4214 -0.6226
   13CHTO   C11 5441   5.246   7.100   2.817  0.2486 -0.1781 -0.4419
   13CHTO   H24 5442   5.331   7.075   2.752  0.5315 -0.6157  0.0982
   13CHTO    O8 5443   5.130   7.122   2.735  0.3029  0.4358  0.0961
   13CHTO    H3 5444   5.082   7.043   2.719  0.8243  0.2919 -0.7897
   13CHTO    C9 5445   5.233   6.991   2.929 -0.2599  0.2573 -0.1228
   13CHTO   H22 5446   5.328   6.999   2.983  0.5560  3.4446 -1.8925
   13CHTO    N2 5447   5.215   6.857   2.871 -0.5818 -0.1854  0.0405
   13CHTO   H10 5448   5.176   6.794   2.950  0.6856  0.0438  0.8630
   13CHTO   H11 5449   5.142   6.869   2.792 -1.5026  0.3394  0.9484
   13CHTO    C7 5450   5.106   7.030   3.029  0.4670  0.1799 -0.6015
   13CHTO   H20 5451   5.141   7.028   3.135 -1.1141  2.2360  0.0036
   13CHTO    O4 5452   5.062   7.165   3.010 -0.1484 -0.1414 -0.5629
   13CHTO   C14 5453   5.169   7.262   3.006  0.1272 -0.3753  0.0403
   13CHTO   H27 5454   5.213   7.263   3.108 -2.3925  0.3379  1.1500
   13CHTO   C18 5455   5.100   7.400   2.992  0.4692 -0.4759  0.0422
   13CHTO   O13 5456   5.187   7.513   2.988 -0.5814  0.0383  0.4899
   13CHTO    H7 5457   5.255   7.507   2.923 -0.9957 -1.5830  0.1982
   13CHTO    O2 5458   4.979   6.933   3.029 -0.0293  0.3442 -0.0483
   13CHTO    C1 5459   4.876   6.942   3.129  0.2423  0.2787 -0.0300
   13CHTO   H14 5460   4.796   6.876   3.089 -0.0165 -0.0374  0.9890
   13CHTO    C2 5461   4.816   7.097   3.154  0.2449  0.4246 -0.0630
   13CHTO   H15 5462   4.903   7.156   3.188  0.1195 -0.3672  1.7311
   13CHTO    O6 5463   4.754   7.146   3.036 -0.3393 -0.3149  0.5438
   13CHTO    H1 5464   4.799   7.205   2.978 -1.5397  0.6635  0.5794
   13CHTO    C3 5465   4.716   7.095   3.288  1.3636 -0.1230  0.1774
   13CHTO   H16 5466   4.632   7.037   3.248  2.4615 -0.9028 -1.0235
   13CHTO    N1 5467   4.677   7.238   3.327  0.4845  0.0640 -0.4855
   13CHTO    H8 5468   4.681   7.298   3.238  0.0798 -0.8971 -1.1632
   13CHTO    H9 5469   4.578   7.244   3.371  0.9810 -0.0882  0.6813
   13CHTO    C4 5470   4.772   7.009   3.407  0.8230 -0.1741  0.3558
   13CHTO   H17 5471   4.857   7.064   3.446  0.4936  0.9574 -0.4996
   13CHTO    O1 5472   4.814   6.888   3.357 -0.2366  0.1825 -0.3355
   13CHTO    C5 5473   4.923   6.894   3.266  0.2827  0.0599  0.4489
   13CHTO   H18 5474   5.002   6.965   3.291  0.0988 -0.4063  2.4503
   13CHTO   C16 5475   4.983   6.753   3.262 -0.4869 -0.1929 -0.4418
   13CHTO   O11 5476   5.051   6.737   3.382  0.2984  0.0991 -0.4026
   13CHTO    H5 5477   5.046   6.644   3.393  1.3420  0.1674  0.7337
   13CHTO    O3 5478   4.680   6.988   3.516  0.0725 -0.5060  0.1523
   13CHTO    C6 5479   4.576   6.887   3.514 -0.2142 -0.4080 -0.4389
   13CHTO   H19 5480   4.551   6.854   3.414 -2.7940  0.5029 -0.1347
   13CHTO    C8 5481   4.633   6.771   3.605 -0.2690 -0.3866  0.0131
   13CHTO   H21 5482   4.666   6.817   3.699 -1.6570 -0.9827  0.8102
   13CHTO    O7 5483   4.748   6.700   3.543 -0.0147  0.0340 -0.1781
   13CHTO    H2 5484   4.768   6.613   3.572  0.2497 -0.3257 -1.4070
   13CHTO   C12 5485   4.511   6.676   3.633 -0.1573  0.4524 -0.0758
   13CHTO   H25 5486   4.480   6.636   3.534  0.8362 -2.2899  0.6721
   13CHTO    N3 5487   4.556   6.554   3.713 -0.1462  0.0306  0.5675
   13CHTO   H12 5488   4.603   6.580   3.806  0.7327 -0.8519  0.3722
   13CHTO   H13 5489   4.470   6.491   3.728 -2.9477  2.7507 -2.9266
   13CHTO   C15 5490   4.388   6.756   3.697 -0.2630  0.2694  0.5885
   13CHTO   H28 5491   4.416   6.808   3.790 -2.9669  1.0237  1.0474
   13CHTO   O10 5492   4.274   6.688   3.705 -0.4938 -0.1014  0.1091
   13CHTO    H4 5493   4.252   6.669   3.794  0.5187  0.4031  0.4674
   13CHTO    O5 5494   4.346   6.860   3.605 -1.1541 -0.1645  0.0645
   13CHTO   C10 5495   4.446   6.952   3.572 -0.1656 -0.0733  0.5062
   13CHTO   H23 5496   4.468   7.001   3.667  0.1382  1.4702 -0.3519
   13CHTO   C17 5497   4.386   7.056   3.482 -0.1891  0.0644  0.4397
   13CHTO   O12 5498   4.319   7.003   3.367 -0.3886  0.1041  0.1501
   13CHTO    H6 5499   4.265   7.070   3.329 -1.0258  1.0568  2.6469
   14CHTO  H203 5500   7.016   4.793   1.746 -2.0852 -1.6371 -3.6239
   14CHTO   O82 5501   6.942   4.848   1.763 -0.2245 -0.0421 -0.2322
   14CHTO  C123 5502   6.828   4.759   1.787  1.0304 -0.5607 -0.3178
   14CHTO  H227 5503   6.741   4.822   1.809  1.0813 -0.5474 -0.1534
   14CHTO   O77 5504   6.812   4.693   1.656 -0.1974 -0.1124 -0.0438
   14CHTO  C118 5505   6.720   4.583   1.643 -0.0148  0.1180 -0.3749
   14CHTO  H222 5506   6.622   4.625   1.669 -1.0106 -1.1701 -1.9394
   14CHTO  C125 5507   6.722   4.533   1.491 -0.6746  0.4009 -0.7917
   14CHTO   O84 5508   6.658   4.633   1.423 -0.2750 -0.1710 -0.2800
   14CHTO  H205 5509   6.714   4.699   1.386  0.7313  0.7191  2.6669
   14CHTO  C114 5510   6.746   4.472   1.743 -0.3047 -0.6136 -0.4046
   14CHTO  H218 5511   6.845   4.429   1.723 -0.0729  0.7640 -2.4033
   14CHTO  C116 5512   6.764   4.527   1.894 -0.3501 -0.0084 -0.4470
   14CHTO  H220 5513   6.663   4.554   1.930  0.5073  0.1256  1.9022
   14CHTO   O79 5514   6.807   4.407   1.963  0.3229 -0.0777 -0.3844
   14CHTO  H201 5515   6.895   4.387   1.936 -0.0478  0.7190 -2.2634
   14CHTO  C120 5516   6.863   4.648   1.901  0.4120 -0.7656  0.6416
   14CHTO  H224 5517   6.963   4.603   1.882  0.8007 -0.9574  3.0663
   14CHTO   N21 5518   6.867   4.706   2.040 -0.3276  0.9082 -0.2581
   14CHTO  H211 5519   6.951   4.659   2.088  0.7821  0.5920 -2.4784
   14CHTO  H212 5520   6.878   4.813   2.037  0.7901  0.7894 -0.4467
   14CHTO   O75 5521   6.644   4.374   1.713 -0.1120 -0.0094 -0.0938
   14CHTO  C112 5522   6.511   4.406   1.780  0.8938  0.0910 -1.0963
   14CHTO  H216 5523   6.501   4.515   1.792 -0.0600 -0.2658  1.7857
   14CHTO   O73 5524   6.512   4.338   1.910 -0.3910 -0.2116 -0.2991
   14CHTO  C113 5525   6.392   4.338   1.982 -0.4654  0.1000 -0.3982
   14CHTO  H217 5526   6.361   4.442   2.007 -2.6157 -0.9804  1.6708
   14CHTO  C124 5527   6.422   4.256   2.116 -0.5319 -0.0277  0.3708
   14CHTO   O83 5528   6.425   4.112   2.107  0.1457  0.2983 -0.4093
   14CHTO  H204 5529   6.467   4.072   2.182  3.2612 -0.1383 -2.2946
   14CHTO  C109 5530   6.273   4.274   1.896  0.0634  0.0055 -0.7975
   14CHTO  H213 5531   6.288   4.166   1.889 -2.9830 -0.5624  0.6221
   14CHTO  C110 5532   6.258   4.339   1.761  0.0000 -0.0345  1.2229
   14CHTO  H214 5533   6.206   4.434   1.772 -0.4960 -0.2609  0.8998
   14CHTO   O78 5534   6.176   4.259   1.672  0.3396 -0.2050  0.1189
   14CHTO  H200 5535   6.110   4.308   1.628  0.6700 -1.5469 -1.9569
   14CHTO  C111 5536   6.394   4.365   1.689  0.7802 -0.2099  0.4226
   14CHTO  H215 5537   6.430   4.270   1.645  3.2304  1.3362 -1.0426
   14CHTO   N19 5538   6.380   4.457   1.571  1.0174  0.2823  0.1479
   14CHTO  H207 5539   6.278   4.492   1.565  0.8199 -0.2939  0.2096
   14CHTO  H208 5540   6.461   4.522   1.540  0.5433  0.0958 -1.5048
   14CHTO   O74 5541   6.157   4.294   1.976 -0.1094  0.2671  0.3302
   14CHTO  C115 5542   6.041   4.172   1.956  0.7980 -0.5764  0.3352
   14CHTO  H219 5543   6.032   4.139   1.853 -2.8746 -1.6185  0.9158
   14CHTO   O76 5544   6.084   4.026   2.033 -0.0069  0.1149  0.0327
   14CHTO  C122 5545   5.990   3.919   2.014 -0.1697  0.4525 -0.3753
   14CHTO  H226 5546   6.018   3.842   2.086  1.2010 -0.0463 -1.4113
   14CHTO  C126 5547   6.011   3.855   1.875  0.0908  0.2156  0.1253
   14CHTO   O85 5548   6.138   3.791   1.859 -0.0305 -0.0638  0.0393
   14CHTO  H206 5549   6.122   3.704   1.825  1.8362 -0.0946 -0.8044
   14CHTO  C121 5550   5.830   3.956   2.020 -0.7344  0.4164  0.3271
   14CHTO  H225 5551   5.783   3.877   1.958  2.0857 -0.0273 -1.3549
   14CHTO   O81 5552   5.798   3.953   2.155 -0.5140 -0.2060  0.2230
   14CHTO  H202 5553   5.715   3.981   2.188 -1.3941 -0.7042 -1.5041
   14CHTO  C119 5554   5.792   4.094   1.970 -0.2906 -0.1542  0.1041
   14CHTO  H223 5555   5.797   4.084   1.862  0.5433 -2.3760  0.3314
   14CHTO  C117 5556   5.898   4.214   2.005  0.1528  0.9896 -0.6388
   14CHTO  H221 5557   5.904   4.228   2.113 -1.2230 -1.1680 -0.2488
   14CHTO   N20 5558   5.846   4.345   1.946  0.4759  0.1438 -0.5331
   14CHTO  H209 5559   5.776   4.326   1.865  1.5934 -0.1376 -1.4381
   14CHTO  H210 5560   5.803   4.407   2.024  2.3104  0.9471 -0.1368
   14CHTO   O80 5561   5.629   4.133   1.992  0.8608 -0.6947  0.1109
   14CHTO  C103 5562   5.518   4.073   1.894 -0.7020 -0.2213  0.0236
   14CHTO  H190 5563   5.564   4.039   1.801  0.1234 -2.0619  1.1002
   14CHTO  C101 5564   5.430   3.954   1.943 -0.2576  0.2411 -0.4334
   14CHTO  H188 5565   5.395   3.967   2.046 -0.5063 -0.1488 -0.4662
   14CHTO   O68 5566   5.533   3.820   1.956  0.0995 -0.1751  0.3760
   14CHTO  H168 5567   5.529   3.784   2.042 -1.4363  0.0971  0.4357
   14CHTO   C99 5568   5.315   3.928   1.839  0.1259  0.2813 -0.1587
   14CHTO  H186 5569   5.367   3.922   1.741  0.8991 -0.4678  0.2900
   14CHTO   N17 5570   5.228   3.804   1.857  0.2558 -0.4887 -0.2786
   14CHTO  H174 5571   5.182   3.807   1.955  0.8553  0.9784 -0.0310
   14CHTO  H175 5572   5.293   3.717   1.852 -0.7080 -1.2255 -0.1855
   14CHTO   C97 5573   5.233   4.058   1.838 -0.0304  0.6320  0.6084
   14CHTO  H184 5574   5.200   4.077   1.941  1.5573  0.3170  1.1996
   14CHTO   O64 5575   5.312   4.165   1.788 -0.6647 -0.5167 -0.1126
   14CHTO  C104 5576   5.426   4.198   1.862 -0.2132  0.3121  0.1285
   14CHTO  H191 5577   5.387   4.245   1.953 -1.2550 -1.6239  0.7026
   14CHTO  C108 5578   5.507   4.309   1.785 -0.0090 -0.1447 -0.3849
   14CHTO   O71 5579   5.445   4.438   1.778  0.2955 -0.1947 -0.4974
   14CHTO  H171 5580   5.488   4.500   1.722 -1.9024 -0.7190 -2.8420
   14CHTO   O62 5581   5.127   4.059   1.746  0.2821  0.3047  0.6076
   14CHTO   C91 5582   4.994   4.103   1.777 -0.1326 -0.4495 -0.2744
   14CHTO  H178 5583   4.949   4.030   1.844  0.1004  1.0581  1.5866
   14CHTO   C92 5584   4.924   4.096   1.642 -0.1264  0.4438 -0.3931
   14CHTO  H179 5585   4.942   3.998   1.596 -2.2936 -0.3856  0.4254
   14CHTO   O66 5586   4.790   4.089   1.680 -0.1938 -0.3066  0.1589
   14CHTO  H166 5587   4.755   4.007   1.650  1.4765 -0.6286 -0.9327
   14CHTO   C93 5588   4.940   4.220   1.544 -0.2151 -0.2805  0.2339
   14CHTO  H180 5589   4.852   4.215   1.479  1.1172 -3.5325 -1.4649
   14CHTO   N16 5590   5.060   4.203   1.453  0.6409  0.4537 -0.2921
   14CHTO  H172 5591   5.153   4.214   1.507 -0.4214 -1.2893  1.9647
   14CHTO  H173 5592   5.063   4.103   1.413 -0.2674  0.5313 -0.5530
   14CHTO   C94 5593   4.947   4.351   1.619 -0.0383 -1.1256 -0.2424
   14CHTO  H181 5594   5.048   4.393   1.627  0.0070 -1.3917  0.7546
   14CHTO   O61 5595   4.908   4.340   1.760  0.0428 -0.0291  0.2654
   14CHTO   C95 5596   4.993   4.254   1.839  0.1002  0.4776  0.1534
   14CHTO  H182 5597   5.093   4.298   1.845  0.2609  0.1862 -0.3506
   14CHTO  C106 5598   4.940   4.260   1.987 -0.1949  0.5282 -0.1024
   14CHTO   O69 5599   5.033   4.185   2.070  0.3585 -0.1363  0.1493
   14CHTO  H169 5600   4.989   4.136   2.136 -0.4463 -1.8738 -1.6276
   14CHTO   O63 5601   4.862   4.452   1.561  0.3550  0.0898 -0.2229
   14CHTO   C96 5602   4.909   4.613   1.567 -0.3230 -0.2058  0.4746
   14CHTO  H183 5603   4.840   4.679   1.515 -1.1593 -1.5123 -0.1063
   14CHTO   C98 5604   5.042   4.644   1.495  0.1556 -0.1967 -0.7919
   14CHTO  H185 5605   5.121   4.581   1.539  1.5923  1.7898 -0.4704
   14CHTO   O67 5606   5.026   4.602   1.358  0.5009  0.3845  0.6384
   14CHTO  H167 5607   4.950   4.636   1.314  1.4978  1.4142 -0.3303
   14CHTO  C102 5608   5.077   4.798   1.499 -0.5059  0.0487 -0.0348
   14CHTO  H189 5609   5.004   4.851   1.436  0.8462  0.6604 -1.1169
   14CHTO   N18 5610   5.209   4.832   1.444  0.2473 -0.0671  0.1861
   14CHTO  H176 5611   5.208   4.820   1.337  1.9666 -3.3514  0.4662
   14CHTO  H177 5612   5.239   4.933   1.469 -1.3030  1.0640 -2.3691
   14CHTO  C105 5613   5.061   4.851   1.645 -0.2272 -0.1836  0.3457
   14CHTO  H192 5614   5.137   4.805   1.708 -0.8875 -0.9170  0.6143
   14CHTO   O65 5615   4.933   4.810   1.701  0.1458 -0.4446 -0.2108
   14CHTO  C100 5616   4.919   4.669   1.713  0.9093 -0.1727  0.4049
   14CHTO  H187 5617   5.000   4.630   1.777  0.1195 -1.8293  0.4346
   14CHTO  C107 5618   4.797   4.631   1.795  0.0879  0.0225  0.4782
   14CHTO   O70 5619   4.680   4.683   1.738  0.2705 -0.2216 -0.0790
   14CHTO  H170 5620   4.619   4.697   1.807  0.5986 -1.5961  0.5058
   14CHTO   O57 5621   5.066   5.030   1.651  0.0861  0.0443  0.4764
   14CHTO   C85 5622   4.975   5.117   1.576 -0.6421  0.4484 -0.2599
   14CHTO  H157 5623   4.904   5.044   1.532  1.2480 -0.1681 -2.4158
   14CHTO   C83 5624   5.058   5.173   1.460 -0.2811 -0.2889 -0.3851
   14CHTO  H155 5625   5.089   5.087   1.400  0.6582  0.0773 -0.4252
   14CHTO   O56 5626   5.173   5.244   1.515 -0.1842  0.2284  0.4683
   14CHTO  H135 5627   5.239   5.270   1.453 -0.3253  0.1276  0.2721
   14CHTO   C81 5628   4.965   5.271   1.372  0.0697 -0.0287 -0.0020
   14CHTO  H153 5629   4.877   5.217   1.338 -0.4082  0.1841  0.9015
   14CHTO   N14 5630   5.034   5.319   1.247  0.1027  0.2111  0.1380
   14CHTO  H141 5631   5.069   5.235   1.190  0.9418 -0.0055  0.9642
   14CHTO  H142 5632   5.116   5.383   1.271 -1.2444  0.9183  3.0624
   14CHTO   C79 5633   4.918   5.393   1.461  0.0105 -0.5753  0.1043
   14CHTO  H151 5634   4.849   5.447   1.396 -0.9982 -0.9037  0.9050
   14CHTO   O52 5635   4.854   5.338   1.580  0.2812 -0.8593 -0.5801
   14CHTO   C86 5636   4.905   5.226   1.655  0.7543 -0.0520 -0.3687
   14CHTO  H158 5637   4.979   5.260   1.731  0.7165 -1.0044  0.1026
   14CHTO   C90 5638   4.793   5.157   1.728  0.3026  1.0397  0.4767
   14CHTO   O60 5639   4.701   5.092   1.638  0.1253  0.8269 -0.3520
   14CHTO  H138 5640   4.629   5.057   1.688  0.7609 -1.1579 -0.7971
   14CHTO   O50 5641   5.019   5.485   1.498 -0.1702 -0.4954 -0.1776
   14CHTO   C73 5642   5.039   5.615   1.551 -0.2478 -0.0561  0.1622
   14CHTO  H145 5643   4.954   5.646   1.614 -1.2746 -1.0670 -0.6937
   14CHTO   C74 5644   5.053   5.721   1.439  0.2459 -0.2422 -0.4680
   14CHTO  H146 5645   4.964   5.704   1.375  0.6978 -2.0884 -0.6431
   14CHTO   O54 5646   5.037   5.851   1.497  0.3553 -0.3327  0.4713
   14CHTO  H133 5647   5.031   5.914   1.428  3.6624  0.0197  0.4463
   14CHTO   C75 5648   5.183   5.695   1.359  0.1544  0.1202 -0.0162
   14CHTO  H147 5649   5.180   5.596   1.312  0.2974 -1.6041  3.4818
   14CHTO   N13 5650   5.202   5.788   1.243  0.3875 -0.0302  0.0063
   14CHTO  H139 5651   5.296   5.837   1.263 -0.3775  1.4098  0.0711
   14CHTO  H140 5652   5.117   5.853   1.228 -0.9352 -1.4463  1.1751
   14CHTO   C76 5653   5.311   5.690   1.455  0.0182 -0.8218 -0.0737
   14CHTO  H148 5654   5.330   5.787   1.499  1.9571 -1.2383  0.0550
   14CHTO   O49 5655   5.302   5.592   1.567 -0.1465 -0.6168 -0.4910
   14CHTO   C77 5656   5.171   5.609   1.644  0.2790  0.3192 -0.6617
   14CHTO  H149 5657   5.171   5.705   1.697 -2.1471  0.0253 -0.0896
   14CHTO   C88 5658   5.158   5.504   1.758  0.1375 -0.0823 -0.2168
   14CHTO   O58 5659   5.048   5.552   1.841 -0.1755  0.1496  0.0078
   14CHTO  H136 5660   4.983   5.485   1.851  1.6944 -1.6025  0.7523
   14CHTO   O51 5661   5.442   5.642   1.379 -0.0625 -0.7052  0.4635
   14CHTO   C78 5662   5.579   5.704   1.433  0.3601  0.2180  0.1784
   14CHTO  H150 5663   5.568   5.762   1.527  0.9853  1.4210 -0.4737
   14CHTO   C80 5664   5.621   5.797   1.319 -0.1525  0.6894 -0.1211
   14CHTO  H152 5665   5.618   5.735   1.227  0.0449 -0.0828  0.3944
   14CHTO   O55 5666   5.525   5.902   1.314 -0.2479  0.3863  0.5762
   14CHTO  H134 5667   5.503   5.930   1.228 -1.7850 -1.2977  0.3836
   14CHTO   C84 5668   5.770   5.852   1.343 -0.1618  0.7377 -0.8960
   14CHTO  H156 5669   5.772   5.910   1.435  2.2729 -0.6426 -0.0196
   14CHTO   N15 5670   5.816   5.940   1.231 -0.6426  0.0074  0.3624
   14CHTO  H143 5671   5.754   6.027   1.226  1.2387  1.3173 -0.5423
   14CHTO  H144 5672   5.917   5.967   1.253 -0.6242  0.5494 -0.4114
   14CHTO   C87 5673   5.860   5.720   1.351  0.4762  0.2961 -0.3613
   14CHTO  H159 5674   5.852   5.668   1.256 -1.4329  0.6769 -0.4158
   14CHTO   O53 5675   5.817   5.645   1.467 -0.0021 -0.0180  0.0070
   14CHTO   C82 5676   5.683   5.592   1.453 -0.2821  0.2500 -0.2583
   14CHTO  H154 5677   5.682   5.518   1.373  0.7185 -2.6346  2.3398
   14CHTO   C89 5678   5.669   5.518   1.584  0.4364  0.3362 -0.1660
   14CHTO   O59 5679   5.551   5.426   1.583 -0.2759  0.7210  0.5025
   14CHTO  H137 5680   5.492   5.450   1.652 -0.4793  1.5778  0.0325
   14CHTO   O45 5681   6.013   5.741   1.357  0.2895  0.6693 -0.0372
   14CHTO   C67 5682   6.103   5.632   1.327 -0.7165 -0.3396  0.1607
   14CHTO  H124 5683   6.056   5.534   1.326 -1.7485  0.0870  3.0358
   14CHTO   C65 5684   6.180   5.667   1.193  0.0863  0.1192  0.0617
   14CHTO  H122 5685   6.112   5.700   1.114 -1.3975  0.5582  1.4798
   14CHTO   O44 5686   6.251   5.550   1.143 -0.1635  0.5132  1.1022
   14CHTO  H102 5687   6.286   5.486   1.201  1.1687  0.7323  0.5706
   14CHTO   C63 5688   6.270   5.798   1.213  0.2666 -0.0836 -0.1197
   14CHTO  H120 5689   6.205   5.878   1.249 -0.4417 -1.3810  1.5705
   14CHTO   N11 5690   6.325   5.866   1.091  0.0724  0.0224 -0.2186
   14CHTO  H108 5691   6.315   5.972   1.095 -2.7624 -0.2331  0.7127
   14CHTO  H109 5692   6.426   5.835   1.071 -0.4873 -3.2642  1.7191
   14CHTO   C61 5693   6.378   5.764   1.322 -0.4118 -0.6594  0.1882
   14CHTO  H118 5694   6.436   5.856   1.340 -1.4810 -0.0084  0.3501
   14CHTO   O40 5695   6.311   5.733   1.447 -0.4876  0.4220  0.1236
   14CHTO   C68 5696   6.213   5.621   1.443  0.2482 -0.0205 -0.2125
   14CHTO  H125 5697   6.161   5.633   1.540  0.5707  0.4311 -0.0943
   14CHTO   C72 5698   6.280   5.477   1.452 -0.0370  0.1681 -0.1931
   14CHTO   O48 5699   6.367   5.481   1.562 -0.4689  0.5049  0.0801
   14CHTO  H105 5700   6.366   5.397   1.603 -2.4137  1.5388  2.2825
   14CHTO   O38 5701   6.462   5.653   1.277  0.0007  0.2630  0.2505
   14CHTO   C55 5702   6.603   5.670   1.241 -0.3726  0.1067  0.1534
   14CHTO  H112 5703   6.611   5.778   1.223 -2.0262  0.2410  0.1722
   14CHTO   C56 5704   6.627   5.580   1.103 -0.3254  0.3354  0.5542
   14CHTO  H113 5705   6.594   5.478   1.126  1.1324 -0.5449 -1.1517
   14CHTO   O42 5706   6.538   5.638   1.000 -0.3557  0.2478  0.2324
   14CHTO  H100 5707   6.575   5.713   0.959 -1.7075  0.4095 -0.7126
   14CHTO   C57 5708   6.780   5.579   1.061  0.2702  0.0956 -0.0348
   14CHTO  H114 5709   6.796   5.678   1.020  1.6367  1.0108  2.5907
   14CHTO   N10 5710   6.807   5.485   0.948  0.1595  0.5767 -0.0152
   14CHTO  H106 5711   6.905   5.442   0.966 -0.1554  0.4408  1.4986
   14CHTO  H107 5712   6.740   5.401   0.965  0.2570  0.3426 -0.7492
   14CHTO   C58 5713   6.869   5.562   1.184  0.2323  0.5287 -0.3174
   14CHTO  H115 5714   6.867   5.457   1.219 -0.4717  0.5988 -0.1415
   14CHTO   O37 5715   6.842   5.654   1.294 -0.7395 -0.1140 -0.3842
   14CHTO   C59 5716   6.707   5.628   1.351 -0.8896  0.1634 -0.0005
   14CHTO  H116 5717   6.704   5.520   1.360  0.7086  0.0782 -0.3169
   14CHTO   C70 5718   6.710   5.709   1.487 -1.1259 -1.1905  0.4186
   14CHTO   O46 5719   6.592   5.697   1.561 -0.2334 -0.8166  0.6574
   14CHTO  H103 5720   6.540   5.772   1.538 -1.3226 -1.4674  0.9904
   14CHTO   O39 5721   7.022   5.606   1.127  0.4408 -0.0881 -0.2338
   14CHTO   C60 5722   7.124   5.559   1.216  0.0004  0.0064 -0.2659
   14CHTO  H117 5723   7.069   5.570   1.310 -0.5024  0.6810 -0.6373
   14CHTO   C62 5724   7.171   5.417   1.195 -0.0545  0.1225 -0.7255
   14CHTO  H119 5725   7.088   5.345   1.209  0.6137 -0.7494 -1.2435
   14CHTO   O43 5726   7.205   5.400   1.062  0.1219  0.1455  0.5968
   14CHTO  H101 5727   7.172   5.320   1.025  2.8373 -0.7264 -0.0459
   14CHTO   C66 5728   7.282   5.384   1.299  0.3210 -0.0523  0.2520
   14CHTO  H123 5729   7.240   5.392   1.399  2.1391  1.0795  0.9398
   14CHTO   N12 5730   7.319   5.238   1.304 -0.4444 -0.2230 -0.6071
   14CHTO  H110 5731   7.228   5.180   1.297 -0.4935 -0.6179  2.5444
   14CHTO  H111 5732   7.394   5.204   1.235  0.3603  0.4350 -0.0672
   14CHTO   C69 5733   7.404   5.478   1.277  0.1458 -0.1892  0.1092
   14CHTO  H126 5734   7.436   5.472   1.171  0.1411 -2.0789  0.1993
   14CHTO   O41 5735   7.366   5.617   1.296  0.0324  0.6035  0.0870
   14CHTO   C64 5736   7.237   5.667   1.217 -0.1915  0.3919 -0.5070
   14CHTO  H121 5737   7.257   5.711   1.117 -1.1201 -0.7497 -1.2079
   14CHTO   C71 5738   7.186   5.783   1.299 -0.3000 -0.1563 -0.0860
   14CHTO   O47 5739   7.281   5.895   1.307 -0.3385  0.3508  0.2710
   14CHTO  H104 5740   7.336   5.894   1.383  0.7077  0.5609 -0.4809
   14CHTO   O34 5741   7.513   5.449   1.375  0.1217 -0.4478  0.4252
   14CHTO   C49 5742   7.650   5.474   1.333  0.2158 -0.3168  0.0949
   14CHTO   H91 5743   7.668   5.418   1.241  0.0771 -1.0198  0.4920
   14CHTO   C47 5744   7.739   5.416   1.446 -0.8003 -0.1335  0.7968
   14CHTO   H89 5745   7.842   5.419   1.405 -1.0595  0.0498  0.1487
   14CHTO   O33 5746   7.710   5.278   1.463 -0.1675  0.2576 -0.1527
   14CHTO   H70 5747   7.773   5.239   1.520 -0.6111 -0.4089 -0.1099
   14CHTO   C45 5748   7.721   5.490   1.588 -0.7487  0.2203 -0.6502
   14CHTO   H87 5749   7.643   5.431   1.638  1.5175 -0.6433  1.9835
   14CHTO    N8 5750   7.840   5.473   1.670  0.3492 -0.2130  0.4913
   14CHTO   H75 5751   7.931   5.515   1.629  0.3816  2.8303  3.4459
   14CHTO   H76 5752   7.815   5.521   1.763 -1.5583  1.6512 -0.9448
   14CHTO   C43 5753   7.667   5.641   1.568  0.0389 -0.1248  0.2123
   14CHTO   H85 5754   7.559   5.633   1.551 -0.0375  1.0514  0.0835
   14CHTO   O29 5755   7.732   5.688   1.448 -0.1610 -0.2059 -0.1472
   14CHTO   C50 5756   7.684   5.634   1.324  0.2435  0.6045 -0.1818
   14CHTO   H92 5757   7.594   5.692   1.299  0.7408  1.2054 -0.5933
   14CHTO   C54 5758   7.791   5.678   1.220 -0.5808 -0.0744  0.1745
   14CHTO   O36 5759   7.828   5.814   1.231  0.4514  0.6955  0.0664
   14CHTO   H72 5760   7.879   5.822   1.309 -2.0941  1.2212  1.7241
   14CHTO   O27 5761   7.691   5.726   1.681  0.5457  0.0716  0.1116
   14CHTO   C37 5762   7.628   5.840   1.733  0.2053 -0.1554  0.0520
   14CHTO   H79 5763   7.699   5.922   1.754  0.2843 -0.1259 -0.3222
   14CHTO   C38 5764   7.531   5.902   1.627 -0.2972  0.0427 -0.3257
   14CHTO   H80 5765   7.473   5.819   1.584 -0.3745 -0.0511 -0.0420
   14CHTO   O31 5766   7.615   5.960   1.527  0.5518 -0.2034  0.1164
   14CHTO   H68 5767   7.563   6.018   1.475  1.8023 -0.1487 -1.1347
   14CHTO   C39 5768   7.444   6.013   1.691 -0.2436 -0.1485 -0.7494
   14CHTO   H81 5769   7.510   6.093   1.726  0.0471 -1.1487  1.0631
   14CHTO    N7 5770   7.351   6.080   1.598 -0.5499 -0.1290 -0.4722
   14CHTO   H73 5771   7.374   6.040   1.500 -1.2245 -1.4766 -0.0906
   14CHTO   H74 5772   7.331   6.185   1.613 -0.1557 -0.4228  2.1957
   14CHTO   C40 5773   7.373   5.960   1.822 -0.0936  0.2847 -0.1640
   14CHTO   H82 5774   7.309   5.878   1.788  0.6645  0.2116 -1.4789
   14CHTO   O26 5775   7.470   5.916   1.919  0.0146 -0.5511 -0.0309
   14CHTO   C41 5776   7.545   5.800   1.868 -0.2174  0.5632  0.0956
   14CHTO   H83 5777   7.469   5.724   1.842  1.5593 -1.3050  0.2226
   14CHTO   C52 5778   7.638   5.750   1.975 -0.1371  0.3418  0.6605
   14CHTO   O35 5779   7.576   5.714   2.081 -0.4854  0.0449  0.2336
   14CHTO   H71 5780   7.523   5.640   2.056  0.4095 -0.0336 -1.4668
   14CHTO   O28 5781   7.300   6.061   1.888 -0.1912 -0.5872 -0.1818
   14CHTO   C42 5782   7.166   6.032   1.937 -0.3830  0.0841  0.2471
   14CHTO   H84 5783   7.167   6.087   2.032 -0.7230  1.6102 -0.6040
   14CHTO   C44 5784   7.128   5.885   1.971 -0.3647  0.2935 -0.1987
   14CHTO   H86 5785   7.134   5.829   1.878  0.5433  1.2377 -0.7185
   14CHTO   O32 5786   7.216   5.819   2.067  0.1247  0.6425  0.0656
   14CHTO   H69 5787   7.300   5.809   2.025 -0.0512  4.3305 -1.3427
   14CHTO   C48 5788   6.981   5.863   2.025  0.2185  0.0978  0.8683
   14CHTO   H90 5789   6.969   5.907   2.124 -0.5093  3.3382 -0.5934
   14CHTO    N9 5790   6.940   5.722   2.045 -0.4083  0.6704  0.1843
   14CHTO   H77 5791   6.996   5.694   2.133  1.0121  1.5958 -0.4102
   14CHTO   H78 5792   6.961   5.658   1.961  0.1897 -0.0693  0.8940
   14CHTO   C51 5793   6.880   5.936   1.924  0.5135 -0.3156 -1.0620
   14CHTO   H93 5794   6.884   5.885   1.827  0.1961 -2.1390 -0.1322
   14CHTO   O30 5795   6.912   6.077   1.912  0.3067 -0.2213  0.6059
   14CHTO   C46 5796   7.052   6.092   1.850  0.2764  0.0516 -0.1964
   14CHTO   H88 5797   7.052   6.047   1.750  1.6594 -1.5071  0.4824
   14CHTO   C53 5798   7.075   6.239   1.820  0.1020  0.0934  0.3428
   14CHTO   O72 5799   7.072   6.330   1.931  0.3496  0.0000 -0.1331
   14CHTO  H199 5800   7.044   6.415   1.903 -0.0551 -0.2395 -0.4643
   14CHTO   O22 5801   6.742   5.944   1.969  0.3245  0.3368  0.7213
   14CHTO   C31 5802   6.622   5.894   1.894  0.1948  0.7222  0.7145
   14CHTO   H59 5803   6.656   5.843   1.802 -2.0217  1.1819 -0.3970
   14CHTO   C29 5804   6.536   5.791   1.967 -0.2567 -0.0059  0.1613
   14CHTO   H57 5805   6.490   5.851   2.046 -1.5166 -0.7213 -0.0223
   14CHTO   O21 5806   6.619   5.684   2.012  0.1401 -0.0066  0.2149
   14CHTO   H37 5807   6.590   5.649   2.094  0.9575 -1.6719 -0.1839
   14CHTO   C27 5808   6.420   5.739   1.868  0.6806 -0.1801 -0.2364
   14CHTO   H55 5809   6.460   5.696   1.775 -1.6290 -0.8736 -0.9449
   14CHTO    N5 5810   6.321   5.645   1.927  0.1774 -0.1395  0.0962
   14CHTO   H43 5811   6.285   5.584   1.845  0.8526 -0.6429  0.1662
   14CHTO   H44 5812   6.372   5.576   1.993  3.4823 -0.3687 -2.5616
   14CHTO   C25 5813   6.336   5.861   1.817 -0.4643  0.2476 -0.4742
   14CHTO   H53 5814   6.304   5.919   1.904  1.6971 -0.3612  0.7735
   14CHTO   O17 5815   6.427   5.957   1.760  0.1292 -0.5057  0.2752
   14CHTO   C32 5816   6.530   6.011   1.840  0.7728 -0.6467 -0.2071
   14CHTO   H60 5817   6.502   6.068   1.928  1.0297 -2.4453  1.0557
   14CHTO   C36 5818   6.604   6.102   1.739 -0.0723  0.1290  0.3631
   14CHTO   O25 5819   6.714   6.180   1.785  0.2569  0.5943  0.2496
   14CHTO   H40 5820   6.786   6.121   1.791 -0.6071 -0.6084 -0.9290
   14CHTO   O15 5821   6.225   5.819   1.709  0.0709 -0.2502 -0.3721
   14CHTO   C19 5822   6.098   5.878   1.680 -0.2998  0.1279  0.4833
   14CHTO   H47 5823   6.062   5.833   1.586 -0.8947  0.5432  0.5096
   14CHTO   C20 5824   5.987   5.852   1.789  0.5476  0.2757 -0.2254
   14CHTO   H48 5825   6.018   5.894   1.886  0.1578  0.5910 -0.2375
   14CHTO   O19 5826   5.977   5.707   1.809  0.7749  0.5251 -0.0860
   14CHTO   H35 5827   5.994   5.683   1.899  0.7531  2.3401  0.4202
   14CHTO   C21 5828   5.855   5.920   1.750 -0.2129  0.4807  0.2016
   14CHTO   H49 5829   5.818   5.870   1.660  0.2027 -1.6862  1.2056
   14CHTO    N4 5830   5.743   5.899   1.849  0.3681  0.5694  0.2909
   14CHTO   H41 5831   5.647   5.884   1.801  0.6923 -0.9777  0.1138
   14CHTO   H42 5832   5.757   5.827   1.928  1.5647  1.5494  0.9939
   14CHTO   C22 5833   5.880   6.068   1.712  0.1071  0.1471  0.0008
   14CHTO   H50 5834   5.907   6.119   1.805 -1.4411 -0.2891  0.6971
   14CHTO   O14 5835   5.975   6.074   1.607 -0.1611 -0.2758 -0.3805
   14CHTO   C23 5836   6.106   6.032   1.656  0.4581  0.0143  0.5094
   14CHTO   H51 5837   6.125   6.090   1.748  0.1009  0.8022  0.0904
   14CHTO   C34 5838   6.216   6.066   1.555  0.0812  0.1388  0.8754
   14CHTO   O23 5839   6.213   6.197   1.510 -0.6203  0.4743 -0.6683
   14CHTO   H38 5840   6.297   6.216   1.474 -0.0239 -0.8052  0.0139
   14CHTO   O16 5841   5.764   6.134   1.658  0.3888 -0.1921  0.3338
   14CHTO   C24 5842   5.742   6.306   1.680  0.0139 -0.2250 -0.0703
   14CHTO   H52 5843   5.747   6.363   1.587  1.1153  1.7920  1.1768
   14CHTO   C26 5844   5.843   6.372   1.773  0.2940 -0.5813  0.0825
   14CHTO   H54 5845   5.826   6.332   1.875 -1.0626 -0.0908  0.0697
   14CHTO   O20 5846   5.978   6.350   1.730  0.3304  0.1378  0.0213
   14CHTO   H36 5847   6.004   6.422   1.676 -0.2393  0.3083 -0.0291
   14CHTO   C30 5848   5.806   6.528   1.775 -0.3982 -0.7744  0.4452
   14CHTO   H58 5849   5.798   6.575   1.676  3.4701 -0.8717  0.0324
   14CHTO    N6 5850   5.909   6.611   1.845  0.4048 -0.6255 -0.0756
   14CHTO   H45 5851   6.006   6.571   1.822  1.5200  0.9047  1.7919
   14CHTO   H46 5852   5.893   6.621   1.951 -0.9233  0.8465 -0.3906
   14CHTO   C33 5853   5.662   6.545   1.838 -0.1486  0.0595 -0.3545
   14CHTO   H61 5854   5.672   6.503   1.939  1.8496  1.3291  0.0021
   14CHTO   O18 5855   5.566   6.473   1.760 -0.3014 -0.4751 -0.0111
   14CHTO   C28 5856   5.601   6.335   1.744 -0.2870  0.7389 -0.7759
   14CHTO   H56 5857   5.600   6.280   1.839  3.8442 -2.4246 -2.3981
   14CHTO   C35 5858   5.486   6.273   1.657 -0.0984 -0.2664 -0.1735
   14CHTO   O24 5859   5.499   6.139   1.613 -0.3337 -0.1136 -0.3162
   14CHTO   H39 5860   5.553   6.087   1.669  0.5430 -1.2233 -2.1686
   14CHTO    O9 5861   5.621   6.680   1.860  0.3096 -0.1614 -0.4719
   14CHTO   C13 5862   5.506   6.698   1.959  0.1239 -0.0914 -0.3443
   14CHTO   H26 5863   5.509   6.613   2.030 -3.6631  0.3309  0.4191
   14CHTO   C11 5864   5.363   6.700   1.887  0.5628 -0.1298 -0.0866
   14CHTO   H24 5865   5.357   6.604   1.835  0.8916  0.3854 -1.1017
   14CHTO    O8 5866   5.374   6.801   1.784 -0.3208  0.2172 -0.1714
   14CHTO    H3 5867   5.310   6.786   1.718  0.9488 -1.7405 -1.0083
   14CHTO    C9 5868   5.251   6.731   1.991  0.1246  0.0509 -0.4143
   14CHTO   H22 5869   5.258   6.654   2.068  2.2016 -0.2695 -0.8703
   14CHTO    N2 5870   5.115   6.712   1.928  0.0705  0.1673 -0.2099
   14CHTO   H10 5871   5.089   6.614   1.892 -1.1879 -0.7727  3.1206
   14CHTO   H11 5872   5.114   6.780   1.844 -2.0449 -0.9658 -1.1397
   14CHTO    C7 5873   5.281   6.866   2.061  0.2490 -0.0415  0.0419
   14CHTO   H20 5874   5.278   6.832   2.166 -0.7360 -0.1603 -0.0248
   14CHTO    O4 5875   5.411   6.922   2.036  0.5893  0.5140 -0.4034
   14CHTO   C14 5876   5.519   6.830   2.048  0.2628 -0.3210  0.2801
   14CHTO   H27 5877   5.531   6.799   2.154 -2.9745 -1.6565  0.3062
   14CHTO   C18 5878   5.643   6.918   2.010  0.6978 -0.2510 -0.0825
   14CHTO   O13 5879   5.761   6.854   2.056  0.5130  0.4109 -0.1573
   14CHTO    H7 5880   5.829   6.912   2.027  0.1880  1.5025  1.2058
   14CHTO    O2 5881   5.159   6.994   2.040 -0.3273 -0.7979 -0.1107
   14CHTO    C1 5882   5.167   7.133   2.068  0.4176 -0.0876 -0.1014
   14CHTO   H14 5883   5.076   7.176   2.020 -0.6871  2.6215  4.1458
   14CHTO    C2 5884   5.301   7.206   2.017  0.7368 -0.1689 -0.4811
   14CHTO   H15 5885   5.382   7.157   2.073 -0.3248  0.2506  1.4810
   14CHTO    O6 5886   5.311   7.186   1.877  0.0653  0.3275 -0.4045
   14CHTO    H1 5887   5.363   7.109   1.861 -0.9054 -0.2517 -0.8757
   14CHTO    C3 5888   5.304   7.360   2.051 -0.2967  0.2834 -0.0873
   14CHTO   H16 5889   5.220   7.405   1.995 -0.4549  0.5458  0.3529
   14CHTO    N1 5890   5.437   7.424   2.023 -0.1840  0.5995 -0.1953
   14CHTO    H8 5891   5.429   7.532   2.034 -2.0218  0.4252  0.3001
   14CHTO    H9 5892   5.455   7.410   1.918 -1.5724 -2.4313 -0.0638
   14CHTO    C4 5893   5.263   7.382   2.204  0.4545 -0.5109 -0.3517
   14CHTO   H17 5894   5.352   7.361   2.264  0.2201 -1.3973 -0.3053
   14CHTO    O1 5895   5.156   7.305   2.251  0.1264 -0.3404 -0.0472
   14CHTO    C5 5896   5.159   7.164   2.219  0.2591  0.1494 -0.6009
   14CHTO   H18 5897   5.248   7.119   2.262 -0.4475 -1.1332 -0.4511
   14CHTO   C16 5898   5.035   7.094   2.279  0.0542  0.4310 -0.5659
   14CHTO   O11 5899   5.028   7.118   2.420  0.0591 -0.1499 -0.0953
   14CHTO    H5 5900   5.115   7.099   2.449 -0.4823 -1.4451  0.7427
   14CHTO    O3 5901   5.216   7.510   2.236 -0.1021 -0.0323  0.0655
   14CHTO    C6 5902   5.249   7.546   2.378 -0.3531  0.2359 -0.9314
   14CHTO   H19 5903   5.293   7.460   2.429 -2.1326 -1.7551 -2.6796
   14CHTO    C8 5904   5.349   7.667   2.365  0.7198 -0.6405  1.1120
   14CHTO   H21 5905   5.294   7.744   2.310 -0.4950 -2.4681 -0.2806
   14CHTO    O7 5906   5.464   7.622   2.287  0.8364 -0.7924  0.5383
   14CHTO    H2 5907   5.484   7.688   2.224  1.8151 -0.3802  1.2766
   14CHTO   C12 5908   5.389   7.729   2.505 -0.1691  0.1265  0.5970
   14CHTO   H25 5909   5.443   7.641   2.547  2.7248  1.3353 -0.4300
   14CHTO    N3 5910   5.489   7.839   2.488  0.6069  0.0248  0.4592
   14CHTO   H12 5911   5.452   7.929   2.534 -0.4780  0.6770 -1.6639
   14CHTO   H13 5912   5.523   7.848   2.386  1.0753  0.3893  0.6464
   14CHTO   C15 5913   5.254   7.757   2.586  0.0201  0.4642 -0.3557
   14CHTO   H28 5914   5.197   7.836   2.536  0.0384 -0.1246 -1.3069
   14CHTO   O10 5915   5.285   7.789   2.755 -0.3269 -0.3368 -0.5593
   14CHTO    H4 5916   5.348   7.731   2.795 -0.4325 -0.5145 -0.6521
   14CHTO    O5 5917   5.171   7.640   2.593 -0.0697 -0.3795 -0.5419
   14CHTO   C10 5918   5.123   7.588   2.462 -0.9091 -0.0515  0.0363
   14CHTO   H23 5919   5.069   7.670   2.415  0.2331  0.2609 -0.7431
   14CHTO   C17 5920   5.016   7.483   2.487  0.0059  0.6484 -0.0617
   14CHTO   O12 5921   5.045   7.371   2.572  0.4652  0.5589 -0.0747
   14CHTO    H6 5922   4.976   7.308   2.563  2.2164 -1.1505 -2.2974
   15CHTO  H203 5923   7.759   4.574   1.940  0.3934 -0.2956  1.6510
   15CHTO   O82 5924   7.671   4.606   1.936  0.2614 -0.7741  0.3374
   15CHTO  C123 5925   7.610   4.548   1.820 -0.2548  0.2078  0.3737
   15CHTO  H227 5926   7.592   4.441   1.835 -2.2447  0.7656  2.1004
   15CHTO   O77 5927   7.481   4.617   1.811 -0.4040 -0.1639 -0.2675
   15CHTO  C118 5928   7.402   4.585   1.693  0.3069 -0.2295 -0.9753
   15CHTO  H222 5929   7.380   4.479   1.714 -4.2471  0.2902 -2.4480
   15CHTO  C125 5930   7.270   4.671   1.701 -0.1392  0.0483  0.1373
   15CHTO   O84 5931   7.165   4.643   1.799 -0.2378  0.1478 -0.0248
   15CHTO  H205 5932   7.098   4.586   1.768 -0.8829  0.0685  1.4841
   15CHTO  C114 5933   7.492   4.597   1.565 -0.1832  0.0023 -0.6109
   15CHTO  H218 5934   7.519   4.703   1.557  0.5174 -0.2157 -1.2037
   15CHTO  C116 5935   7.625   4.512   1.575  0.3014 -0.3726 -0.2957
   15CHTO  H220 5936   7.603   4.404   1.590 -1.2160 -0.0542 -0.1624
   15CHTO   O79 5937   7.701   4.521   1.448 -0.2877 -0.8365 -0.0276
   15CHTO  H201 5938   7.792   4.509   1.468 -0.0881  0.4432 -0.1295
   15CHTO  C120 5939   7.707   4.567   1.693  0.3810  0.1255  0.0092
   15CHTO  H224 5940   7.719   4.674   1.667 -0.7355 -0.0107 -1.1437
   15CHTO   N21 5941   7.838   4.505   1.706 -0.0665  0.2632  0.1147
   15CHTO  H211 5942   7.913   4.553   1.645  0.9179 -0.4784  0.7243
   15CHTO  H212 5943   7.834   4.401   1.678  0.8554 -0.4663  2.5040
   15CHTO   O75 5944   7.402   4.566   1.455  0.2210  0.4093 -0.5833
   15CHTO  C112 5945   7.369   4.392   1.427  0.4005  0.2632 -0.0620
   15CHTO  H216 5946   7.339   4.342   1.520 -0.7670  0.4199 -0.3505
   15CHTO   O73 5947   7.485   4.335   1.370 -0.2160 -0.5105 -0.2459
   15CHTO  C113 5948   7.484   4.193   1.339  0.0884  0.6674 -1.0528
   15CHTO  H217 5949   7.489   4.131   1.431 -0.6748  1.0454 -0.7572
   15CHTO  C124 5950   7.609   4.154   1.270  0.1378 -0.0271 -0.4495
   15CHTO   O83 5951   7.729   4.192   1.338 -0.1602 -0.0437 -0.0233
   15CHTO  H204 5952   7.725   4.280   1.369  3.0322  0.6920 -1.4681
   15CHTO  C109 5953   7.363   4.157   1.253 -0.3858 -0.0126  0.0743
   15CHTO  H213 5954   7.382   4.204   1.155  0.1105  0.3758  0.3588
   15CHTO  C110 5955   7.231   4.222   1.306 -0.0488  0.1707 -0.1291
   15CHTO  H214 5956   7.209   4.183   1.405 -0.7411  0.3716 -0.1987
   15CHTO   O78 5957   7.118   4.198   1.218 -0.0655 -0.4331  0.3592
   15CHTO  H200 5958   7.123   4.229   1.130 -1.2179  0.2420  0.5056
   15CHTO  C111 5959   7.251   4.377   1.328 -0.0754 -0.2562 -0.0024
   15CHTO  H215 5960   7.266   4.423   1.229 -0.7038  0.2814  0.1483
   15CHTO   N19 5961   7.135   4.445   1.385  0.2712  0.6881 -0.1105
   15CHTO  H207 5962   7.142   4.450   1.493 -1.2017 -2.8601  0.2113
   15CHTO  H208 5963   7.127   4.545   1.345 -1.4199  0.1154 -1.2981
   15CHTO   O74 5964   7.360   4.016   1.246 -0.2461 -0.2787  0.1306
   15CHTO  C115 5965   7.268   3.952   1.126  0.3824 -0.2162 -0.5611
   15CHTO  H219 5966   7.218   4.033   1.073  0.6290  0.7484  0.6532
   15CHTO   O76 5967   7.355   3.879   1.024 -0.7263  0.3550 -0.0429
   15CHTO  C122 5968   7.440   3.786   1.085 -0.1685 -0.0434  0.7391
   15CHTO  H226 5969   7.518   3.841   1.138 -0.7393  0.6619  0.8700
   15CHTO  C126 5970   7.510   3.704   0.975  0.1929 -0.1844 -0.1352
   15CHTO   O85 5971   7.619   3.628   1.033  0.4035  0.2692  0.1641
   15CHTO  H206 5972   7.700   3.654   0.993  2.0996 -1.3531  2.3891
   15CHTO  C121 5973   7.356   3.691   1.188 -0.5304  0.3605 -0.9150
   15CHTO  H225 5974   7.376   3.582   1.180  1.6028  0.6368  0.3241
   15CHTO   O81 5975   7.389   3.728   1.322  0.1140 -0.2847 -0.1827
   15CHTO  H202 5976   7.481   3.718   1.333 -0.1002 -0.8831  1.1352
   15CHTO  C119 5977   7.202   3.706   1.176 -0.3668 -0.0529  0.3182
   15CHTO  H223 5978   7.184   3.668   1.076  0.4200  0.5275 -0.0487
   15CHTO  C117 5979   7.153   3.854   1.188  0.0776 -0.4265 -0.0926
   15CHTO  H221 5980   7.141   3.907   1.283  1.8453 -1.2927  0.6338
   15CHTO   N20 5981   7.026   3.875   1.115  0.2377  0.6860 -0.1799
   15CHTO  H209 5982   7.033   3.946   1.034 -0.6619  0.8549 -0.1055
   15CHTO  H210 5983   6.984   3.786   1.072  0.2058  0.8241 -0.4346
   15CHTO   O80 5984   7.125   3.585   1.274  0.0651 -0.0293  0.1050
   15CHTO  C103 5985   7.006   3.490   1.211 -0.2561  1.3400 -0.7824
   15CHTO  H190 5986   6.967   3.442   1.301 -1.7597  0.1206 -2.0527
   15CHTO  C101 5987   6.884   3.560   1.139 -0.4030  0.5558 -0.0767
   15CHTO  H188 5988   6.923   3.622   1.058 -0.7035 -0.8000 -1.2941
   15CHTO   O68 5989   6.804   3.655   1.237  0.6466  0.2268 -0.5170
   15CHTO  H168 5990   6.715   3.627   1.245 -0.0658  2.6258  0.3188
   15CHTO   C99 5991   6.795   3.455   1.063 -0.3254  0.0234  0.6696
   15CHTO  H186 5992   6.737   3.397   1.138 -1.0806  1.1562  0.9718
   15CHTO   N17 5993   6.700   3.518   0.970 -0.1117  0.2630 -1.1192
   15CHTO  H174 5994   6.612   3.456   0.955 -0.7919  0.5973  1.2672
   15CHTO  H175 5995   6.743   3.553   0.877  0.4419 -0.1207 -1.0109
   15CHTO   C97 5996   6.886   3.354   0.982  0.0752  0.0579 -0.8074
   15CHTO  H184 5997   6.939   3.405   0.900  1.4504 -0.9373 -0.5618
   15CHTO   O64 5998   6.978   3.289   1.075 -0.5715  0.2865 -0.3196
   15CHTO  C104 5999   7.074   3.375   1.125 -0.4672  0.0226 -0.0244
   15CHTO  H191 6000   7.131   3.419   1.043 -1.4288  0.6845 -0.3523
   15CHTO  C108 6001   7.166   3.284   1.202 -0.6933 -0.3113  0.0247
   15CHTO   O71 6002   7.107   3.234   1.319  0.0786  0.1829  0.4185
   15CHTO  H171 6003   7.176   3.198   1.373 -0.9804 -0.9324  1.0761
   15CHTO   O62 6004   6.818   3.237   0.931 -0.0462 -0.0321 -0.3252
   15CHTO   C91 6005   6.834   3.213   0.793 -0.5154 -0.4358  0.9719
   15CHTO  H178 6006   6.917   3.278   0.762 -2.2909  1.5993  0.3606
   15CHTO   C92 6007   6.695   3.254   0.727  0.5949 -0.0542  0.0858
   15CHTO  H179 6008   6.675   3.358   0.756  0.3682 -0.6367  2.0761
   15CHTO   O66 6009   6.705   3.247   0.588  0.1107 -0.1517  0.4779
   15CHTO  H166 6010   6.768   3.186   0.553  1.9510  2.7321 -1.4825
   15CHTO   C93 6011   6.579   3.150   0.758  0.0860 -0.7435  0.0259
   15CHTO  H180 6012   6.525   3.138   0.663  0.3625 -0.8920 -0.1161
   15CHTO   N16 6013   6.481   3.197   0.859  0.0660  0.0588  0.6642
   15CHTO  H172 6014   6.418   3.117   0.895 -0.1126 -0.2731 -0.3710
   15CHTO  H173 6015   6.533   3.243   0.941  1.4852  1.4414 -0.9661
   15CHTO   C94 6016   6.639   3.009   0.801 -0.5900 -0.1929  0.4803
   15CHTO  H181 6017   6.667   3.006   0.907 -2.3001  0.3512  0.9572
   15CHTO   O61 6018   6.755   2.983   0.716  0.5609  0.0277 -0.3662
   15CHTO   C95 6019   6.871   3.065   0.757  0.3392 -0.0769  0.5307
   15CHTO  H182 6020   6.923   3.026   0.845  1.4947  1.2965  0.4911
   15CHTO  C106 6021   6.980   3.039   0.648  0.1367 -0.9001 -0.0686
   15CHTO   O69 6022   7.006   2.895   0.647 -0.2476 -0.3305 -0.1590
   15CHTO  H169 6023   7.008   2.866   0.558 -0.2265 -0.6080 -0.0671
   15CHTO   O63 6024   6.551   2.894   0.765  0.2918 -0.3473 -0.5361
   15CHTO   C96 6025   6.566   2.762   0.849  0.3705  0.6729  0.0565
   15CHTO  H183 6026   6.579   2.796   0.952 -1.0526  2.5509 -0.3424
   15CHTO   C98 6027   6.688   2.680   0.800 -0.4432 -0.4972 -0.1995
   15CHTO  H185 6028   6.714   2.708   0.697 -0.8808  2.0265  0.3511
   15CHTO   O67 6029   6.811   2.720   0.870  0.5085 -0.1806 -0.5773
   15CHTO  H167 6030   6.842   2.804   0.843  0.8197 -0.2542 -0.4455
   15CHTO  C102 6031   6.688   2.521   0.832  0.2899 -0.4357 -0.2588
   15CHTO  H189 6032   6.693   2.509   0.941  0.3069 -0.6802 -0.2859
   15CHTO   N18 6033   6.793   2.435   0.774 -0.0652 -0.2408  0.2829
   15CHTO  H176 6034   6.883   2.478   0.814 -0.4793  0.8735  0.0266
   15CHTO  H177 6035   6.793   2.446   0.666 -2.9032  0.9383  0.3585
   15CHTO  C105 6036   6.546   2.473   0.791  0.1824 -0.2606  0.0128
   15CHTO  H192 6037   6.524   2.490   0.686 -1.8620  0.0537  0.4502
   15CHTO   O65 6038   6.448   2.545   0.866  1.0735  0.1635  0.4854
   15CHTO  C100 6039   6.431   2.684   0.833  0.3365  0.0828 -0.3513
   15CHTO  H187 6040   6.394   2.698   0.731  0.7043  0.1606 -0.4749
   15CHTO  C107 6041   6.317   2.743   0.920 -0.1121  0.1731  0.0564
   15CHTO   O70 6042   6.196   2.669   0.910 -0.0141  0.4580  0.3088
   15CHTO  H170 6043   6.182   2.654   0.819 -0.1293  1.3058  0.1841
   15CHTO   O57 6044   6.527   2.308   0.821 -0.0219 -0.1697 -0.4297
   15CHTO   C85 6045   6.519   2.248   0.951  0.0736  0.2272 -0.2469
   15CHTO  H157 6046   6.535   2.326   1.028  2.2502  0.2335 -0.6782
   15CHTO   C83 6047   6.635   2.141   0.964 -0.2907 -0.1079 -0.0574
   15CHTO  H155 6048   6.731   2.192   0.955 -0.3395 -0.2356 -1.3633
   15CHTO   O56 6049   6.634   2.053   0.851  0.1412  0.4025  0.9255
   15CHTO  H135 6050   6.693   1.981   0.862 -2.4371 -1.6895  1.6891
   15CHTO   C81 6051   6.620   2.069   1.105 -0.1880 -0.2098  0.6443
   15CHTO  H153 6052   6.615   2.150   1.177 -1.5822 -1.0130  1.4723
   15CHTO   N14 6053   6.742   1.997   1.148 -0.1000 -0.4632 -0.2491
   15CHTO  H141 6054   6.734   1.969   1.251 -1.0451  0.4129 -0.0859
   15CHTO  H142 6055   6.833   2.051   1.131 -0.8925  0.6767 -0.9433
   15CHTO   C79 6056   6.488   1.991   1.112  0.3652  0.4110  0.4290
   15CHTO  H151 6057   6.486   1.946   1.211 -1.8876 -1.0396 -0.2345
   15CHTO   O52 6058   6.383   2.090   1.098 -0.0540  0.1214  0.3392
   15CHTO   C86 6059   6.384   2.165   0.969  0.6867 -0.0392  0.3141
   15CHTO  H158 6060   6.365   2.077   0.903  1.6028  0.0005 -0.0170
   15CHTO   C90 6061   6.260   2.251   0.964  0.0829  0.1255 -0.4669
   15CHTO   O60 6062   6.272   2.361   1.058  0.0778  0.8479  0.2612
   15CHTO  H138 6063   6.357   2.397   1.046  0.3355  0.5187  1.0635
   15CHTO   O50 6064   6.479   1.883   1.011  0.4305  0.3152  0.5552
   15CHTO   C73 6065   6.399   1.786   0.944 -0.0569  0.4798 -0.1558
   15CHTO  H145 6066   6.323   1.824   0.874 -1.8179 -2.1734  0.2668
   15CHTO   C74 6067   6.319   1.705   1.055 -0.1034  0.0223 -0.7618
   15CHTO  H146 6068   6.252   1.772   1.112 -1.5804 -1.7988 -0.3332
   15CHTO   O54 6069   6.231   1.602   0.996 -0.1533 -0.0750  0.2126
   15CHTO  H133 6070   6.154   1.645   0.962  1.7544  2.0142 -1.6356
   15CHTO   C75 6071   6.429   1.642   1.152 -0.0767 -0.3981 -0.8897
   15CHTO  H147 6072   6.499   1.719   1.190 -0.9853  0.2499 -0.5100
   15CHTO   N13 6073   6.394   1.566   1.274  0.4178  0.2317 -0.0442
   15CHTO  H139 6074   6.356   1.636   1.347 -0.0085 -0.6332  0.5658
   15CHTO  H140 6075   6.317   1.496   1.244  1.6296 -0.9802 -0.3846
   15CHTO   C76 6076   6.531   1.556   1.067  0.7891  0.3631  0.0091
   15CHTO  H148 6077   6.475   1.468   1.034  1.9576 -0.0867 -0.7765
   15CHTO   O49 6078   6.588   1.630   0.953  1.2568  0.4358 -0.0972
   15CHTO   C77 6079   6.486   1.683   0.867 -0.8136  0.1484  0.1630
   15CHTO  H149 6080   6.416   1.608   0.829 -0.1134 -0.9635  1.0761
   15CHTO   C88 6081   6.565   1.739   0.749  0.1320 -0.2916  0.1382
   15CHTO   O58 6082   6.494   1.792   0.651 -0.3053  0.5800  0.0025
   15CHTO  H136 6083   6.440   1.729   0.607 -0.7502 -0.2937  1.7290
   15CHTO   O51 6084   6.661   1.513   1.140 -0.2466  0.2337 -0.1152
   15CHTO   C78 6085   6.743   1.413   1.055 -0.2083  0.3420 -0.3273
   15CHTO  H150 6086   6.709   1.410   0.949 -0.2271 -1.7320 -0.2867
   15CHTO   C80 6087   6.728   1.266   1.111 -0.0104 -0.2147 -0.4160
   15CHTO  H152 6088   6.724   1.276   1.221 -0.0929  0.3986 -0.4730
   15CHTO   O55 6089   6.597   1.217   1.066 -0.5523  0.1956 -0.1071
   15CHTO  H134 6090   6.587   1.125   1.058 -0.1497  0.2033 -0.8021
   15CHTO   C84 6091   6.847   1.166   1.082 -0.1659 -1.1150 -0.1421
   15CHTO  H156 6092   6.834   1.131   0.980  3.7265 -3.3280  0.0376
   15CHTO   N15 6093   6.835   1.040   1.165  0.3059  0.1310  0.0297
   15CHTO  H143 6094   6.825   1.061   1.270  0.7917  0.0090  0.1028
   15CHTO  H144 6095   6.738   1.007   1.133 -0.4230  0.9637  1.2922
   15CHTO   C87 6096   6.980   1.245   1.086 -0.1755 -0.1981 -0.2629
   15CHTO  H159 6097   7.006   1.263   1.191 -0.4553 -1.6952  0.0728
   15CHTO   O53 6098   6.977   1.354   1.017 -0.4220 -0.1123  0.1799
   15CHTO   C82 6099   6.893   1.461   1.062  0.1500  0.6776  0.0707
   15CHTO  H154 6100   6.914   1.487   1.165  0.1265 -0.8551  0.4728
   15CHTO   C89 6101   6.916   1.582   0.976 -0.0323  0.4019 -0.4188
   15CHTO   O59 6102   6.892   1.560   0.838 -0.4660 -0.1664  0.7854
   15CHTO  H137 6103   6.841   1.632   0.805  0.3669 -0.7054 -1.7755
   15CHTO   O45 6104   7.086   1.154   1.018 -0.3650  0.0308 -0.0823
   15CHTO   C67 6105   7.224   1.204   1.043  0.1029 -0.3622  0.2039
   15CHTO  H124 6106   7.218   1.312   1.051  0.7818 -0.3630  0.6994
   15CHTO   C65 6107   7.295   1.141   1.168  0.0002 -0.0944  0.1706
   15CHTO  H122 6108   7.253   1.040   1.166  0.4135 -0.2900  1.1125
   15CHTO   O44 6109   7.253   1.209   1.293 -0.0025  0.0076 -0.5872
   15CHTO  H102 6110   7.160   1.207   1.305  0.2855 -1.6038  1.8194
   15CHTO   C63 6111   7.448   1.104   1.144 -0.4479  0.1241  0.9370
   15CHTO  H120 6112   7.452   1.008   1.092  0.3566 -0.7015  2.4655
   15CHTO   N11 6113   7.529   1.064   1.265 -0.4480  0.2566 -0.2801
   15CHTO  H108 6114   7.546   1.139   1.339  0.7424  1.0124 -1.2927
   15CHTO  H109 6115   7.497   0.969   1.301 -1.7109  0.9003  0.3318
   15CHTO   C61 6116   7.516   1.220   1.067 -0.4112 -1.0512  0.2606
   15CHTO  H118 6117   7.617   1.187   1.040 -0.5517 -1.1122 -0.2087
   15CHTO   O40 6118   7.444   1.237   0.936  0.5628 -0.5377  0.8284
   15CHTO   C68 6119   7.308   1.184   0.910 -0.7859  0.1573 -0.0993
   15CHTO  H125 6120   7.320   1.078   0.880 -0.7787 -0.0927  0.7542
   15CHTO   C72 6121   7.259   1.265   0.785 -0.3484 -0.0160 -0.2585
   15CHTO   O48 6122   7.136   1.221   0.724  0.0210  0.5371  0.1082
   15CHTO  H105 6123   7.112   1.284   0.658 -0.6476  0.6120  0.4116
   15CHTO   O38 6124   7.515   1.342   1.141 -0.3571 -0.2734  0.1572
   15CHTO   C55 6125   7.583   1.461   1.093  0.2201 -0.8903  0.2661
   15CHTO  H112 6126   7.615   1.452   0.988  0.8708  1.9680  0.1735
   15CHTO   C56 6127   7.709   1.489   1.190 -0.4474 -0.7587 -0.0389
   15CHTO  H113 6128   7.667   1.490   1.292  2.0266  0.7646  0.9999
   15CHTO   O42 6129   7.797   1.376   1.201  0.3773  0.7338  0.1776
   15CHTO  H100 6130   7.748   1.298   1.183 -0.1209  1.0522  0.1712
   15CHTO   C57 6131   7.784   1.620   1.145 -0.5115  0.0953  0.1474
   15CHTO  H114 6132   7.815   1.606   1.041 -0.3630  0.0531  0.1960
   15CHTO   N10 6133   7.912   1.659   1.222  0.3470  0.0357  0.4588
   15CHTO  H106 6134   7.938   1.764   1.219  1.6155 -0.2987 -1.1917
   15CHTO  H107 6135   8.000   1.608   1.186 -0.3220 -2.0752  1.7293
   15CHTO   C58 6136   7.681   1.737   1.153 -0.0353 -0.2115  0.4721
   15CHTO  H115 6137   7.649   1.751   1.258 -2.8958  0.9711 -0.5127
   15CHTO   O37 6138   7.567   1.706   1.075  0.6967  0.0448  0.2878
   15CHTO   C59 6139   7.493   1.583   1.096  0.1418  0.3697  0.3079
   15CHTO  H116 6140   7.437   1.589   1.190 -0.3912  1.4111 -0.0724
   15CHTO   C70 6141   7.393   1.578   0.981  0.0267 -0.1033 -0.0868
   15CHTO   O46 6142   7.275   1.652   0.991  0.3633 -0.1262  0.4082
   15CHTO  H103 6143   7.212   1.603   0.941 -0.2355 -0.3018  1.3179
   15CHTO   O39 6144   7.743   1.884   1.104  0.3585  1.0880  0.2267
   15CHTO   C60 6145   7.707   1.934   0.970  0.5157  0.2220 -0.2050
   15CHTO  H117 6146   7.700   1.850   0.901 -2.4042  0.8640 -0.7328
   15CHTO   C62 6147   7.573   2.012   0.974  0.3413  0.3618 -0.2879
   15CHTO  H119 6148   7.502   1.935   1.012  1.2921 -0.4435 -0.1217
   15CHTO   O43 6149   7.581   2.118   1.069  0.1334 -0.3818 -0.5003
   15CHTO  H101 6150   7.575   2.203   1.028  1.1404  0.3295  0.8115
   15CHTO   C66 6151   7.534   2.045   0.823 -0.9944  0.3105 -0.2537
   15CHTO  H123 6152   7.531   1.955   0.763 -1.5578  0.4012 -0.3626
   15CHTO   N12 6153   7.396   2.097   0.818 -0.2456 -0.3423  0.0898
   15CHTO  H110 6154   7.384   2.187   0.876 -0.3465 -0.5233  0.3500
   15CHTO  H111 6155   7.348   2.108   0.722  2.6055  1.6721 -1.1609
   15CHTO   C69 6156   7.633   2.137   0.758  0.2272 -0.5822 -0.6095
   15CHTO  H126 6157   7.631   2.242   0.792 -2.2375 -0.4201 -1.1659
   15CHTO   O41 6158   7.783   2.079   0.785 -0.2116  0.2493  0.1618
   15CHTO   C64 6159   7.820   2.031   0.910 -0.9118  0.1909 -0.1634
   15CHTO  H121 6160   7.837   2.115   0.981  0.6176  0.9676 -1.4207
   15CHTO   C71 6161   7.955   1.960   0.891  0.6919 -0.6480 -0.0264
   15CHTO   O47 6162   8.044   1.968   1.009  0.1079 -0.0184  0.1333
   15CHTO  H104 6163   8.136   1.969   0.991 -0.0118  1.7342 -0.4738
   15CHTO   O34 6164   7.599   2.140   0.596  0.3635  0.0973  0.4495
   15CHTO   C49 6165   7.571   2.189   0.462 -1.1369  0.2799 -0.6921
   15CHTO   H91 6166   7.576   2.102   0.396 -3.2872 -1.3278  1.2059
   15CHTO   C47 6167   7.684   2.291   0.428  0.1127 -0.3719 -0.5032
   15CHTO   H89 6168   7.668   2.318   0.321 -0.8920  0.7172 -0.0957
   15CHTO   O33 6169   7.817   2.224   0.442 -0.1232 -0.1024 -0.2206
   15CHTO   H70 6170   7.886   2.282   0.417 -1.2953  1.5874  0.3053
   15CHTO   C45 6171   7.658   2.422   0.520  0.3968 -0.1101  0.0285
   15CHTO   H87 6172   7.644   2.405   0.627  1.4150  2.6883  0.6481
   15CHTO    N8 6173   7.774   2.515   0.506  0.4243 -0.0698 -0.1201
   15CHTO   H75 6174   7.736   2.612   0.535  1.4547  0.5202 -0.7135
   15CHTO   H76 6175   7.850   2.480   0.574  1.2558 -0.0796 -1.0340
   15CHTO   C43 6176   7.515   2.484   0.480  0.0845 -0.2517 -0.7170
   15CHTO   H85 6177   7.496   2.571   0.543 -0.9391 -0.4395 -0.7534
   15CHTO   O29 6178   7.408   2.390   0.498 -0.2703 -0.6040  0.1978
   15CHTO   C50 6179   7.431   2.255   0.448 -0.6846 -0.7245 -0.6352
   15CHTO   H92 6180   7.358   2.194   0.504 -2.2701  0.3537 -1.4999
   15CHTO   C54 6181   7.391   2.241   0.298 -0.3210  0.3582 -0.1308
   15CHTO   O36 6182   7.296   2.139   0.275  0.2091 -0.4545 -0.4958
   15CHTO   H72 6183   7.276   2.138   0.183 -0.2639 -0.3423 -0.3977
   15CHTO   O27 6184   7.507   2.528   0.345 -0.2260  0.4754  0.3847
   15CHTO   C37 6185   7.411   2.585   0.249  0.8613  0.4971 -0.2416
   15CHTO   H79 6186   7.347   2.509   0.201 -0.5005  0.2265  1.9193
   15CHTO   C38 6187   7.305   2.671   0.332  0.8519 -0.2259 -0.4609
   15CHTO   H80 6188   7.356   2.741   0.399 -0.3842  0.6199 -0.3802
   15CHTO   O31 6189   7.219   2.586   0.410 -0.6918  0.1100 -0.0997
   15CHTO   H68 6190   7.182   2.626   0.486 -0.6681  0.3535 -0.2157
   15CHTO   C39 6191   7.210   2.771   0.247 -0.6183  0.8444 -0.5241
   15CHTO   H81 6192   7.129   2.715   0.202 -0.1017 -0.2349 -0.1142
   15CHTO    N7 6193   7.143   2.873   0.342 -0.4031 -0.2042 -0.0255
   15CHTO   H73 6194   7.058   2.916   0.291  0.9710  0.6704 -1.6424
   15CHTO   H74 6195   7.201   2.955   0.381 -1.1827  0.4445 -0.2056
   15CHTO   C40 6196   7.285   2.838   0.126 -0.0295 -0.5475 -0.3405
   15CHTO   H82 6197   7.345   2.925   0.153 -1.3203  0.5884 -1.0672
   15CHTO   O26 6198   7.363   2.737   0.056  0.0154  0.2685 -0.1185
   15CHTO   C41 6199   7.470   2.681   0.143  0.4636  0.6167  0.1761
   15CHTO   H83 6200   7.514   2.764   0.201 -1.9733  1.2602  1.1700
   15CHTO   C52 6201   7.578   2.621   0.051 -0.2444  0.3719 -0.0481
   15CHTO   O35 6202   7.640   2.732  -0.032 -0.6918  0.0441 -0.1438
   15CHTO   H71 6203   7.724   2.709  -0.068 -0.5068 -1.0669  0.9953
   15CHTO   O28 6204   7.186   2.867   0.026  0.6123 -0.0121  0.1631
   15CHTO   C42 6205   7.198   2.970  -0.076 -1.0149  0.2449  0.2572
   15CHTO   H84 6206   7.156   2.921  -0.164  0.1263 -1.7215  0.7787
   15CHTO   C44 6207   7.345   3.018  -0.123 -0.1087  0.0377 -0.1508
   15CHTO   H86 6208   7.397   3.054  -0.034 -2.5592 -1.3658  1.9073
   15CHTO   O32 6209   7.429   2.905  -0.164 -0.6567 -0.6239 -0.0464
   15CHTO   H69 6210   7.381   2.826  -0.150 -2.2612  0.7849  2.7299
   15CHTO   C48 6211   7.338   3.134  -0.232  0.3503  0.2950  0.1048
   15CHTO   H90 6212   7.308   3.090  -0.327  0.2414  1.5882 -0.4703
   15CHTO    N9 6213   7.477   3.196  -0.263  0.3775  0.2991 -0.0825
   15CHTO   H77 6214   7.518   3.264  -0.190  2.1010 -0.7823 -0.0136
   15CHTO   H78 6215   7.543   3.119  -0.301  0.1596 -0.0267  0.1892
   15CHTO   C51 6216   7.241   3.244  -0.188  0.1573  0.0100  0.4112
   15CHTO   H93 6217   7.275   3.295  -0.099  1.9384 -1.3114  0.5206
   15CHTO   O30 6218   7.115   3.183  -0.172 -0.1902 -0.9780  0.1805
   15CHTO   C46 6219   7.114   3.094  -0.053  0.6648 -0.9673  0.2097
   15CHTO   H88 6220   7.156   3.153   0.028 -0.9276 -0.1920  0.4883
   15CHTO   C53 6221   6.964   3.061  -0.037  0.7084  0.4078 -0.1622
   15CHTO   O72 6222   6.900   3.176   0.023  0.8778 -0.0344 -0.3228
   15CHTO  H199 6223   6.828   3.155   0.080  0.0985 -2.1671 -2.0065
   15CHTO   O22 6224   7.223   3.343  -0.293  0.8572 -0.4326 -0.2689
   15CHTO   C31 6225   7.160   3.475  -0.248  0.2366 -0.3929  0.0358
   15CHTO   H59 6226   7.156   3.539  -0.338  1.0716 -1.6721 -0.9401
   15CHTO   C29 6227   7.018   3.456  -0.194  0.0812 -0.3352  0.3861
   15CHTO   H57 6228   7.016   3.387  -0.109  0.0490 -0.7773  0.0270
   15CHTO   O21 6229   6.946   3.381  -0.300  0.3072 -0.6911 -0.3885
   15CHTO   H37 6230   6.860   3.363  -0.269  0.0987 -0.3372 -0.7574
   15CHTO   C27 6231   6.950   3.595  -0.149 -0.5935 -0.0930  0.0453
   15CHTO   H55 6232   6.955   3.664  -0.235 -3.2094 -1.0763 -0.9423
   15CHTO    N5 6233   6.810   3.585  -0.110 -0.4113  0.6555 -0.0258
   15CHTO   H43 6234   6.778   3.504  -0.047 -0.2793 -0.3797 -1.2594
   15CHTO   H44 6235   6.749   3.607  -0.197  0.3201  0.7217 -0.5286
   15CHTO   C25 6236   7.045   3.665  -0.041  0.1446 -0.5064  0.0274
   15CHTO   H53 6237   7.057   3.616   0.057  0.1521  1.1422  0.8736
   15CHTO   O17 6238   7.167   3.683  -0.118 -0.0369 -0.1387  0.1672
   15CHTO   C32 6239   7.241   3.563  -0.146 -0.2534 -0.1689  0.3200
   15CHTO   H60 6240   7.266   3.503  -0.059  0.0380  0.1056  0.4243
   15CHTO   C36 6241   7.380   3.599  -0.214  0.2214  0.1829  0.1843
   15CHTO   O25 6242   7.442   3.702  -0.131 -0.4129 -0.2102 -0.5978
   15CHTO   H40 6243   7.486   3.770  -0.178 -0.6285  0.5001  0.2082
   15CHTO   O15 6244   6.989   3.821  -0.001 -0.4591  0.5242  0.6234
   15CHTO   C19 6245   7.061   3.944   0.052 -0.7309 -0.1707 -0.0785
   15CHTO   H47 6246   7.142   3.958  -0.021 -1.3956 -1.3633 -1.0622
   15CHTO   C20 6247   6.960   4.056   0.072  0.2594  0.5131  0.7479
   15CHTO   H48 6248   6.876   4.028   0.137 -0.8875  0.6038 -0.6465
   15CHTO   O19 6249   6.910   4.083  -0.062 -0.6477  0.3212 -0.2700
   15CHTO   H35 6250   6.856   4.160  -0.058 -2.5593 -1.0613  2.6522
   15CHTO   C21 6251   7.020   4.185   0.140 -0.2361 -0.5471 -0.4906
   15CHTO   H49 6252   7.096   4.229   0.075  0.7496 -1.0177  0.3343
   15CHTO    N4 6253   6.917   4.292   0.166  0.3618  0.1386  0.3017
   15CHTO   H41 6254   6.831   4.246   0.212  0.4731 -0.6624 -0.2767
   15CHTO   H42 6255   6.957   4.373   0.225  0.4455  0.0912  0.3093
   15CHTO   C22 6256   7.088   4.138   0.270  0.2934 -0.0023 -0.0910
   15CHTO   H50 6257   7.004   4.105   0.331 -1.3535  0.2655 -2.1666
   15CHTO   O14 6258   7.183   4.035   0.238 -0.1161 -0.2764 -0.0364
   15CHTO   C23 6259   7.125   3.915   0.184  0.0225  0.6668 -0.9094
   15CHTO   H51 6260   7.048   3.893   0.259  0.6402  0.7492 -0.2569
   15CHTO   C34 6261   7.240   3.807   0.181  0.0908 -0.1184 -0.5950
   15CHTO   O23 6262   7.267   3.774   0.320 -0.0380  0.2192  0.0140
   15CHTO   H38 6263   7.332   3.827   0.363 -0.9518  0.6312  0.9038
   15CHTO   O16 6264   7.169   4.248   0.326  0.1733  0.1224 -0.1068
   15CHTO   C24 6265   7.196   4.233   0.479  0.4697  0.2888 -0.2679
   15CHTO   H52 6266   7.150   4.141   0.515  0.4076 -0.5082 -2.2946
   15CHTO   C26 6267   7.133   4.356   0.550  0.2096 -0.2960  0.0566
   15CHTO   H54 6268   7.152   4.450   0.494  1.4384 -0.6310 -0.1130
   15CHTO   O20 6269   6.989   4.339   0.542  0.2179 -0.1888  0.0972
   15CHTO   H36 6270   6.962   4.256   0.574  0.7790 -0.8128 -1.0221
   15CHTO   C30 6271   7.188   4.380   0.693  0.3677 -0.0273  0.5043
   15CHTO   H58 6272   7.167   4.291   0.754 -0.0072  1.4722  2.6211
   15CHTO    N6 6273   7.131   4.499   0.756  0.4217 -0.2800 -0.5049
   15CHTO   H45 6274   7.077   4.467   0.844  0.8666  1.4168  0.4099
   15CHTO   H46 6275   7.213   4.562   0.788 -0.8349  0.4078  1.4711
   15CHTO   C33 6276   7.342   4.375   0.684 -0.0238  0.1748  0.2594
   15CHTO   H61 6277   7.367   4.452   0.609 -1.4730  0.5949  0.1972
   15CHTO   O18 6278   7.374   4.243   0.643 -0.0059  0.3319  0.2879
   15CHTO   C28 6279   7.353   4.224   0.506 -0.5015  0.6295  0.1360
   15CHTO   H56 6280   7.401   4.303   0.448 -0.3295  0.9800  0.7631
   15CHTO   C35 6281   7.413   4.090   0.463 -0.0485 -0.2298  0.3260
   15CHTO   O24 6282   7.374   3.984   0.554  0.0016  0.6968  0.1141
   15CHTO   H39 6283   7.314   3.927   0.510  0.5936  2.2691 -2.9204
   15CHTO    O9 6284   7.412   4.407   0.809 -0.0360  0.8049  0.4576
   15CHTO   C13 6285   7.552   4.494   0.800 -0.3575  0.0122  0.8130
   15CHTO   H26 6286   7.519   4.590   0.756 -0.4676 -0.1612  0.5216
   15CHTO   C11 6287   7.664   4.429   0.715  0.0777 -0.6413 -0.3741
   15CHTO   H24 6288   7.642   4.437   0.607 -0.5933  1.0583 -0.1197
   15CHTO    O8 6289   7.671   4.285   0.747  0.0075 -0.0260 -0.2748
   15CHTO    H3 6290   7.760   4.274   0.775 -0.6882  1.4389  2.7143
   15CHTO    C9 6291   7.798   4.507   0.741 -0.1264 -0.2503 -0.0266
   15CHTO   H22 6292   7.772   4.610   0.713 -2.3243 -0.6910  0.2968
   15CHTO    N2 6293   7.904   4.467   0.642  0.6071  0.1496 -0.1715
   15CHTO   H10 6294   7.870   4.474   0.539  3.6154  1.1171 -1.1357
   15CHTO   H11 6295   7.926   4.364   0.665  1.4827  0.1198 -1.0941
   15CHTO    C7 6296   7.841   4.506   0.894 -0.5094 -0.2875  0.3881
   15CHTO   H20 6297   7.876   4.609   0.915  3.4808 -1.0762 -1.8436
   15CHTO    O4 6298   7.735   4.467   0.983  0.1397  0.0312  0.5194
   15CHTO   C14 6299   7.608   4.529   0.948  0.3521 -0.4464  0.1941
   15CHTO   H27 6300   7.613   4.640   0.954 -1.5554 -0.3502  0.3034
   15CHTO   C18 6301   7.513   4.487   1.063 -0.3680 -0.2866 -0.2649
   15CHTO   O13 6302   7.550   4.563   1.178  0.0902  0.6314 -0.0454
   15CHTO    H7 6303   7.570   4.514   1.255 -0.1561 -0.0565 -0.4166
   15CHTO    O2 6304   7.975   4.408   0.927  0.0136  0.0404  0.2088
   15CHTO    C1 6305   8.009   4.388   1.065 -0.2516  0.4773  0.9210
   15CHTO   H14 6306   7.916   4.382   1.126 -1.2901  1.7231 -0.5011
   15CHTO    C2 6307   8.099   4.499   1.117 -0.1293  0.2107 -0.2265
   15CHTO   H15 6308   8.188   4.488   1.052 -1.0039  1.4522 -1.6573
   15CHTO    O6 6309   8.035   4.628   1.101  0.6667 -0.2406  0.1257
   15CHTO    H1 6310   8.053   4.670   1.019  0.5022 -0.1056  0.1597
   15CHTO    C3 6311   8.143   4.475   1.269 -0.0327 -0.3303 -0.4440
   15CHTO   H16 6312   8.052   4.483   1.330 -0.2868 -0.3563 -0.8121
   15CHTO    N1 6313   8.235   4.574   1.321 -0.3368  0.4789 -0.1401
   15CHTO    H8 6314   8.227   4.588   1.428 -0.8931 -0.2276 -0.0891
   15CHTO    H9 6315   8.201   4.664   1.273  1.5956  1.5758  0.4878
   15CHTO    C4 6316   8.194   4.328   1.295  0.2500 -0.3707  0.3086
   15CHTO   H17 6317   8.297   4.319   1.260  0.2364 -0.0195  0.1718
   15CHTO    O1 6318   8.107   4.239   1.229  0.1817  0.0874 -0.7880
   15CHTO    C5 6319   8.080   4.259   1.089 -0.0372  0.3964 -0.5813
   15CHTO   H18 6320   8.177   4.264   1.040  0.5246 -0.7577  0.3737
   15CHTO   C16 6321   8.002   4.140   1.028  0.6758 -0.1455 -0.2659
   15CHTO   O11 6322   7.872   4.134   1.097 -0.2888 -0.7539 -0.1498
   15CHTO    H5 6323   7.839   4.214   1.062  0.3815 -0.3573  0.1171
   15CHTO    O3 6324   8.177   4.301   1.438 -0.2800  0.3005  0.0610
   15CHTO    C6 6325   8.244   4.179   1.486  0.0420  0.9389  0.1567
   15CHTO   H19 6326   8.246   4.101   1.410  0.3958 -1.9040  2.9433
   15CHTO    C8 6327   8.395   4.193   1.529 -0.2558  0.9182 -0.1634
   15CHTO   H21 6328   8.399   4.272   1.604  2.3767 -1.6440  2.5841
   15CHTO    O7 6329   8.487   4.236   1.422 -0.1600  0.2741  0.7020
   15CHTO    H2 6330   8.565   4.185   1.426 -0.9068 -1.0377 -1.0322
   15CHTO   C12 6331   8.455   4.058   1.595  0.2065 -0.1660  0.3980
   15CHTO   H25 6332   8.442   3.975   1.523 -3.1880 -0.4299  1.2470
   15CHTO    N3 6333   8.598   4.063   1.637  0.2277 -0.5824 -0.0464
   15CHTO   H12 6334   8.601   4.126   1.725  2.4308 -2.9483  1.6659
   15CHTO   H13 6335   8.641   3.965   1.655  1.2967 -0.8584 -3.7191
   15CHTO   C15 6336   8.365   4.017   1.715  0.1033 -0.6595  0.3188
   15CHTO   H28 6337   8.360   4.095   1.790 -1.9347 -1.4526  1.0454
   15CHTO   O10 6338   8.412   3.858   1.795  0.2213 -0.3225 -0.3040
   15CHTO    H4 6339   8.378   3.848   1.882  0.3172 -0.7209 -0.3132
   15CHTO    O5 6340   8.222   4.007   1.674 -0.1186  0.4119 -0.0176
   15CHTO   C10 6341   8.168   4.125   1.607 -0.4840  0.0291 -0.2741
   15CHTO   H23 6342   8.168   4.207   1.678 -0.0175 -0.5891  0.4408
   15CHTO   C17 6343   8.023   4.101   1.572 -0.5417 -0.3620  0.0463
   15CHTO   O12 6344   7.938   4.104   1.686  0.2376  0.0076 -0.1533
   15CHTO    H6 6345   7.926   4.185   1.730 -0.4933 -0.4789  0.5536
   16CHTO  H203 6346   6.236   4.390   0.178  0.2277  0.6912  0.5381
   16CHTO   O82 6347   6.233   4.335   0.255 -0.3407 -0.2127 -0.1254
   16CHTO  C123 6348   6.350   4.325   0.329  0.2602  0.0858  0.4728
   16CHTO  H227 6349   6.390   4.426   0.345 -0.9967  0.4268  1.5518
   16CHTO   O77 6350   6.309   4.259   0.458  0.0874 -0.0286  0.0733
   16CHTO  C118 6351   6.413   4.254   0.552 -0.7289  0.0473  0.1092
   16CHTO  H222 6352   6.448   4.353   0.585  0.8700 -0.4782  0.0465
   16CHTO  C125 6353   6.361   4.176   0.676  0.2458  0.1259 -0.7738
   16CHTO   O84 6354   6.219   4.201   0.703 -0.0899  0.6076 -0.1562
   16CHTO  H205 6355   6.217   4.290   0.732 -1.2693  0.6874 -0.4394
   16CHTO  C114 6356   6.533   4.171   0.499 -0.6560  0.5098  0.2084
   16CHTO  H218 6357   6.500   4.069   0.480  0.6029 -0.0975  1.1839
   16CHTO  C116 6358   6.586   4.221   0.359 -0.4543  0.3966 -0.0434
   16CHTO  H220 6359   6.649   4.312   0.367  0.0043  0.0241  0.6133
   16CHTO   O79 6360   6.673   4.115   0.306 -0.9359 -0.2410 -0.0631
   16CHTO  H201 6361   6.691   4.143   0.218 -1.4634  0.6584  0.1128
   16CHTO  C120 6362   6.462   4.237   0.268 -0.4294 -0.1811 -0.6745
   16CHTO  H224 6363   6.425   4.136   0.243  1.5460 -0.9719 -0.5247
   16CHTO   N21 6364   6.513   4.296   0.140  0.0144  0.2196 -0.0733
   16CHTO  H211 6365   6.506   4.404   0.143 -2.0299  0.1882 -2.0875
   16CHTO  H212 6366   6.455   4.263   0.055  0.1547 -1.0301  0.3023
   16CHTO   O75 6367   6.634   4.165   0.602 -0.3525 -0.6443 -0.0554
   16CHTO  C112 6368   6.769   4.057   0.576  0.1729  0.1403 -0.0999
   16CHTO  H216 6369   6.843   4.109   0.513  2.8304  0.0691  2.8487
   16CHTO   O73 6370   6.716   3.943   0.503 -0.3528 -0.5098 -0.1841
   16CHTO  C113 6371   6.822   3.857   0.455 -0.4172  0.0097  0.0293
   16CHTO  H217 6372   6.898   3.917   0.400 -0.1289 -1.4460 -1.1874
   16CHTO  C124 6373   6.768   3.756   0.356 -0.5245 -0.0789  0.1476
   16CHTO   O83 6374   6.718   3.798   0.230  0.2116 -0.6913  0.0288
   16CHTO  H204 6375   6.716   3.730   0.165 -0.2053  0.0728 -0.7511
   16CHTO  C109 6376   6.897   3.800   0.579  0.3025 -0.5049 -0.1501
   16CHTO  H213 6377   6.826   3.738   0.636  1.2014 -1.1889  0.2240
   16CHTO  C110 6378   6.956   3.912   0.668  0.1541 -0.1740 -0.0293
   16CHTO  H214 6379   7.031   3.971   0.615 -0.0510  0.2149  0.1139
   16CHTO   O78 6380   7.018   3.838   0.774  0.4331  0.1400 -0.1521
   16CHTO  H200 6381   7.098   3.880   0.799  0.3982 -0.5364  1.1942
   16CHTO  C111 6382   6.833   4.001   0.707 -0.6899 -0.2058 -0.2433
   16CHTO  H215 6383   6.761   3.944   0.768  0.8946  0.6576  2.5318
   16CHTO   N19 6384   6.882   4.109   0.792  0.3364 -0.1076  0.3778
   16CHTO  H207 6385   6.824   4.200   0.787  2.0044  0.9257 -0.5844
   16CHTO  H208 6386   6.873   4.070   0.893 -1.4478 -1.8068 -0.4157
   16CHTO   O74 6387   7.008   3.713   0.527 -0.0046 -0.1107 -0.8658
   16CHTO  C115 6388   7.021   3.580   0.595  0.6149  0.4650 -0.0224
   16CHTO  H219 6389   6.962   3.578   0.686  0.4746 -2.3902 -0.1247
   16CHTO   O76 6390   6.963   3.462   0.504 -0.0572  0.2571 -0.1389
   16CHTO  C122 6391   7.040   3.456   0.389  0.0565 -0.5200  0.4373
   16CHTO  H226 6392   7.050   3.556   0.347  2.2279 -0.2344  1.5705
   16CHTO  C126 6393   6.982   3.361   0.283  0.5056  0.1116 -0.0336
   16CHTO   O85 6394   6.968   3.226   0.329 -0.3238  0.1917 -0.1912
   16CHTO  H206 6395   6.875   3.212   0.330 -0.2218 -0.5372 -0.1570
   16CHTO  C121 6396   7.186   3.404   0.423  0.3392 -0.0833 -0.3592
   16CHTO  H225 6397   7.202   3.298   0.394 -0.7210 -0.2396 -0.3903
   16CHTO   O81 6398   7.285   3.478   0.345  0.2269  0.1494  0.0084
   16CHTO  H202 6399   7.310   3.430   0.269  1.2168  1.4570 -0.5011
   16CHTO  C119 6400   7.219   3.417   0.579 -0.0883 -0.4551  0.0672
   16CHTO  H223 6401   7.154   3.343   0.625  2.0387 -2.1089  0.5402
   16CHTO  C117 6402   7.175   3.562   0.624 -0.1663 -0.5379  0.7990
   16CHTO  H221 6403   7.232   3.643   0.578 -1.4504 -0.9146 -1.5074
   16CHTO   N20 6404   7.203   3.575   0.767  0.2327 -0.6061 -0.2149
   16CHTO  H209 6405   7.188   3.674   0.806  1.0050 -1.0487  1.2404
   16CHTO  H210 6406   7.304   3.541   0.785  0.4981  1.0103  1.4391
   16CHTO   O80 6407   7.368   3.356   0.616 -0.6703  0.1108  0.5754
   16CHTO  C103 6408   7.392   3.183   0.617 -0.4780 -0.2575 -0.1402
   16CHTO  H190 6409   7.295   3.140   0.590  0.4041 -1.5988 -1.1983
   16CHTO  C101 6410   7.493   3.134   0.522  0.2471  0.0486  0.1138
   16CHTO  H188 6411   7.589   3.180   0.543  0.4273  1.0511 -2.6805
   16CHTO   O68 6412   7.442   3.188   0.388 -0.2142 -0.4112 -0.4958
   16CHTO  H168 6413   7.516   3.205   0.333 -0.5781 -1.2223 -1.2428
   16CHTO   C99 6414   7.515   2.979   0.522 -0.2608  0.0178  0.6739
   16CHTO  H186 6415   7.418   2.933   0.493  0.0779  0.0484 -0.5534
   16CHTO   N17 6416   7.621   2.933   0.430 -0.1734 -0.4307  0.0217
   16CHTO  H174 6417   7.567   2.898   0.343 -1.3570  1.2179  0.0571
   16CHTO  H175 6418   7.671   2.852   0.481  0.6454  0.0792  0.0297
   16CHTO   C97 6419   7.535   2.941   0.675 -0.1402 -0.1864 -0.4091
   16CHTO  H184 6420   7.628   2.986   0.713 -0.7679  0.4096  0.4419
   16CHTO   O64 6421   7.421   2.995   0.752 -0.2256 -0.6613 -0.3447
   16CHTO  C104 6422   7.420   3.136   0.758 -0.7613 -0.2907 -0.3881
   16CHTO  H191 6423   7.517   3.170   0.793 -0.7293 -2.2040  1.5011
   16CHTO  C108 6424   7.321   3.184   0.863  0.0831 -0.1716 -0.1943
   16CHTO   O71 6425   7.313   3.119   0.990  0.2312  0.0198  0.0020
   16CHTO  H171 6426   7.393   3.137   1.035 -0.1321 -2.6180  1.8099
   16CHTO   O62 6427   7.542   2.796   0.690  0.1492  0.4801  0.2071
   16CHTO   C91 6428   7.523   2.735   0.815  0.1432 -0.5180 -0.2786
   16CHTO  H178 6429   7.512   2.808   0.895  1.0146 -0.0482 -0.5831
   16CHTO   C92 6430   7.650   2.643   0.858  0.6719 -0.2778  0.3142
   16CHTO  H179 6431   7.677   2.576   0.775  0.2213 -0.1095  0.0306
   16CHTO   O66 6432   7.763   2.723   0.880 -0.2657  0.0329 -0.5913
   16CHTO  H166 6433   7.838   2.681   0.844  0.1693 -0.8889  1.3055
   16CHTO   C93 6434   7.625   2.558   0.990  0.0396  0.2268  0.1629
   16CHTO  H180 6435   7.640   2.630   1.073 -2.0436  0.2218  0.5881
   16CHTO   N16 6436   7.725   2.446   1.010  0.3296  0.2694 -0.7556
   16CHTO  H172 6437   7.679   2.349   1.020 -2.1834  1.6471  1.5519
   16CHTO  H173 6438   7.775   2.465   1.104 -0.5678  0.9161 -0.4041
   16CHTO   C94 6439   7.476   2.505   1.011  0.5534 -0.2077  0.0407
   16CHTO  H181 6440   7.460   2.411   0.959  2.0605 -0.9163  0.8335
   16CHTO   O61 6441   7.372   2.598   0.959  0.2137 -0.1865  0.0020
   16CHTO   C95 6442   7.389   2.639   0.822 -0.8999  0.0415 -0.5042
   16CHTO  H182 6443   7.414   2.551   0.764 -1.4054 -1.2197  1.1532
   16CHTO  C106 6444   7.254   2.703   0.758 -0.0603  0.4629  0.2380
   16CHTO   O69 6445   7.150   2.607   0.761  0.3238  0.0221 -0.6289
   16CHTO  H169 6446   7.068   2.651   0.761 -0.3983 -1.2829 -1.1979
   16CHTO   O63 6447   7.452   2.476   1.183 -0.6640  0.3158 -0.3635
   16CHTO   C96 6448   7.293   2.473   1.231  0.3828  0.1193  0.1180
   16CHTO  H183 6449   7.300   2.415   1.323  0.9184 -1.2522 -0.7832
   16CHTO   C98 6450   7.196   2.404   1.130  0.3066 -0.0736  0.0560
   16CHTO  H185 6451   7.204   2.459   1.035  0.2560 -0.1037  0.0342
   16CHTO   O67 6452   7.252   2.275   1.106  0.3117 -0.0713  0.4119
   16CHTO  H167 6453   7.346   2.270   1.104  0.3435  0.1265  1.2429
   16CHTO  C102 6454   7.040   2.399   1.181  0.4360  0.1806  0.5528
   16CHTO  H189 6455   7.044   2.335   1.270 -3.0102 -1.4709 -0.3876
   16CHTO   N18 6456   6.942   2.332   1.091  0.2160  0.4261  0.4783
   16CHTO  H176 6457   6.841   2.369   1.104  0.1326  0.6758 -0.8690
   16CHTO  H177 6458   6.943   2.226   1.110  0.8157  0.2455 -0.5589
   16CHTO  C105 6459   7.005   2.553   1.207 -0.3781  0.3236  0.1466
   16CHTO  H192 6460   7.001   2.601   1.109  2.5081 -1.5658 -0.9391
   16CHTO   O65 6461   7.106   2.611   1.293  0.5267 -0.4398 -0.3047
   16CHTO  C100 6462   7.244   2.618   1.258  0.3974 -0.1572 -0.1838
   16CHTO  H187 6463   7.250   2.683   1.169  0.6569 -0.2740 -0.2517
   16CHTO  C107 6464   7.325   2.683   1.376 -0.0483  0.3632  0.3897
   16CHTO   O70 6465   7.328   2.826   1.371  0.1951 -0.2625  0.2262
   16CHTO  H170 6466   7.370   2.876   1.438  0.8233 -0.9644  0.3577
   16CHTO   O57 6467   6.852   2.564   1.285  0.1311  0.9518  0.4841
   16CHTO   C85 6468   6.759   2.654   1.227 -0.1986  0.1354 -0.8223
   16CHTO  H157 6469   6.777   2.647   1.118  0.7858 -1.6501 -0.5605
   16CHTO   C83 6470   6.791   2.811   1.259 -0.1736  0.1804 -0.2784
   16CHTO  H155 6471   6.895   2.832   1.235  0.0808  2.6683  2.8235
   16CHTO   O56 6472   6.784   2.829   1.399 -0.3286  0.1267 -0.1693
   16CHTO  H135 6473   6.802   2.918   1.423 -0.2258 -0.6722  2.9591
   16CHTO   C81 6474   6.703   2.891   1.164 -0.1523  0.0457 -0.1001
   16CHTO  H153 6475   6.726   2.864   1.061 -0.9798 -0.1774 -0.2265
   16CHTO   N14 6476   6.735   3.034   1.170  0.1959  0.3969 -0.1260
   16CHTO  H141 6477   6.694   3.073   1.261 -1.4682  1.1830 -1.1850
   16CHTO  H142 6478   6.670   3.071   1.093 -1.9307  0.1494  1.4946
   16CHTO   C79 6479   6.548   2.857   1.191 -0.1022  0.4829 -0.4596
   16CHTO  H151 6480   6.488   2.886   1.104 -1.1594 -0.8097 -0.1807
   16CHTO   O52 6481   6.513   2.716   1.195  0.0521 -0.2306 -0.0962
   16CHTO   C86 6482   6.609   2.633   1.270 -0.3651  0.1081 -0.3556
   16CHTO  H158 6483   6.595   2.653   1.378  0.7561  4.3264 -0.8912
   16CHTO   C90 6484   6.585   2.484   1.244  0.9723  0.4938  0.0664
   16CHTO   O60 6485   6.451   2.449   1.295  0.1553 -0.0032 -0.4387
   16CHTO  H138 6486   6.387   2.452   1.227 -0.0928  0.8094 -0.1687
   16CHTO   O50 6487   6.491   2.915   1.307 -0.1058 -0.1192  0.4400
   16CHTO   C73 6488   6.368   2.939   1.376  0.4018  0.5407 -0.3754
   16CHTO  H145 6489   6.336   2.841   1.414  1.2173  0.0814 -0.8599
   16CHTO   C74 6490   6.261   3.001   1.284 -0.4870 -0.1236  0.0289
   16CHTO  H146 6491   6.239   2.934   1.199 -1.7473  2.8991 -2.1498
   16CHTO   O54 6492   6.135   3.010   1.355 -0.2861  0.2519  0.1661
   16CHTO  H133 6493   6.097   2.924   1.359  1.1866 -0.4495 -0.4763
   16CHTO   C75 6494   6.313   3.143   1.231  0.0981  0.5718 -0.1517
   16CHTO  H147 6495   6.400   3.130   1.165  1.2504  1.1758  1.2416
   16CHTO   N13 6496   6.215   3.212   1.140 -0.2448 -0.0873  0.0367
   16CHTO  H139 6497   6.173   3.151   1.061 -0.2740  0.4094 -0.3357
   16CHTO  H140 6498   6.138   3.271   1.188  0.0664 -0.0875  0.5376
   16CHTO   C76 6499   6.350   3.233   1.359  0.1280  0.3677  0.1207
   16CHTO  H148 6500   6.255   3.253   1.409 -1.1064 -2.4121 -1.0308
   16CHTO   O49 6501   6.441   3.160   1.441 -0.2335  0.3938 -0.4091
   16CHTO   C77 6502   6.390   3.035   1.498  0.3330 -0.4635 -0.0976
   16CHTO  H149 6503   6.300   3.042   1.558  1.1113 -1.9379  1.2866
   16CHTO   C88 6504   6.493   2.984   1.598  0.1693 -0.0014 -0.4252
   16CHTO   O58 6505   6.468   2.842   1.650 -0.4116 -0.5164 -0.0371
   16CHTO  H136 6506   6.455   2.782   1.579 -1.7715 -0.8382  0.4532
   16CHTO   O51 6507   6.437   3.369   1.326 -0.1958 -0.2756 -0.0377
   16CHTO   C78 6508   6.426   3.465   1.446 -0.7946  0.1179  0.1300
   16CHTO  H150 6509   6.403   3.412   1.541  2.1533 -0.0292  0.8080
   16CHTO   C80 6510   6.317   3.568   1.421  0.8224 -0.3539  0.1299
   16CHTO  H152 6511   6.316   3.603   1.316 -1.3924  0.1927  0.3055
   16CHTO   O55 6512   6.185   3.514   1.438  0.2233 -0.3160 -0.4034
   16CHTO  H134 6513   6.116   3.567   1.403  0.7800  0.4171 -0.4023
   16CHTO   C84 6514   6.329   3.701   1.512 -0.0155 -0.1325 -0.3028
   16CHTO  H156 6515   6.311   3.674   1.616  2.1451  0.3207  0.2087
   16CHTO   N15 6516   6.230   3.813   1.479 -0.1078 -0.3564 -0.2804
   16CHTO  H143 6517   6.220   3.864   1.573 -0.6954 -0.0069 -0.5290
   16CHTO  H144 6518   6.131   3.786   1.450  0.1111 -0.9995 -0.4149
   16CHTO   C87 6519   6.471   3.756   1.509 -0.1766 -0.3282  0.1178
   16CHTO  H159 6520   6.490   3.789   1.407 -2.1252  0.2126 -0.0944
   16CHTO   O53 6521   6.575   3.632   1.554  0.5640  0.3224 -0.2313
   16CHTO   C82 6522   6.562   3.525   1.466 -0.2996  0.0489 -0.6396
   16CHTO  H154 6523   6.584   3.570   1.369 -1.4522  1.9334 -0.0613
   16CHTO   C89 6524   6.666   3.413   1.494  0.7335  0.1462  0.2553
   16CHTO   O59 6525   6.798   3.454   1.507  0.2197 -0.2870 -0.5627
   16CHTO  H137 6526   6.847   3.379   1.533 -0.1750  0.1759  1.6333
   16CHTO   O45 6527   6.490   3.880   1.608  0.3534  0.1404 -0.6863
   16CHTO   C67 6528   6.622   3.943   1.595  0.0438  0.1480  0.1805
   16CHTO  H124 6529   6.692   3.860   1.611 -1.0819 -0.5179  1.6967
   16CHTO   C65 6530   6.652   3.999   1.451  0.4212  0.0910  0.3118
   16CHTO  H122 6531   6.558   4.034   1.410  1.9135  1.4810 -1.9944
   16CHTO   O44 6532   6.695   3.889   1.370  0.0088 -0.0441  0.1711
   16CHTO  H102 6533   6.640   3.815   1.382 -1.2881  1.1363  1.6852
   16CHTO   C63 6534   6.732   4.131   1.464 -0.6939  0.1297 -0.2790
   16CHTO  H120 6535   6.661   4.208   1.493 -1.1184 -0.8620  1.4065
   16CHTO   N11 6536   6.773   4.188   1.329 -0.1674  0.2054  0.2152
   16CHTO  H108 6537   6.697   4.199   1.255  0.6504  2.4688 -0.3180
   16CHTO  H109 6538   6.865   4.145   1.296 -0.2748 -0.6032  0.9617
   16CHTO   C61 6539   6.836   4.138   1.582  0.0210 -0.2580 -0.1511
   16CHTO  H118 6540   6.876   4.241   1.580 -1.6079  0.4500  2.4275
   16CHTO   O40 6541   6.778   4.112   1.710 -0.5148  0.1159 -0.1030
   16CHTO   C68 6542   6.647   4.044   1.714 -0.6834 -0.1681  0.2706
   16CHTO  H125 6543   6.564   4.117   1.702  0.9133  1.2949 -2.5427
   16CHTO   C72 6544   6.633   3.976   1.846  0.4282  0.2046  0.6546
   16CHTO   O48 6545   6.513   3.907   1.875 -0.3265 -0.3673  0.5313
   16CHTO  H105 6546   6.439   3.960   1.898  1.3103  1.3837  1.9777
   16CHTO   O38 6547   6.958   4.062   1.560 -0.0855  0.0881  0.2933
   16CHTO   C55 6548   7.036   4.009   1.664 -0.0238 -0.0138 -0.4367
   16CHTO  H112 6549   6.975   3.988   1.753  0.7083 -0.2571  0.0063
   16CHTO   C56 6550   7.153   4.120   1.697 -0.4394 -0.0618 -0.3919
   16CHTO  H113 6551   7.167   4.181   1.607 -0.5218  3.1795  1.7219
   16CHTO   O42 6552   7.092   4.206   1.792 -0.1732  0.2129 -0.6343
   16CHTO  H100 6553   7.021   4.255   1.755 -0.3969 -1.1678 -2.0685
   16CHTO   C57 6554   7.284   4.055   1.758 -0.5306 -0.3658 -0.3694
   16CHTO  H114 6555   7.275   4.039   1.866 -0.5324  0.2191 -0.2811
   16CHTO   N10 6556   7.401   4.148   1.736  0.0162 -0.1649 -0.0703
   16CHTO  H106 6557   7.485   4.129   1.801  0.0920  0.0890 -0.0957
   16CHTO  H107 6558   7.377   4.253   1.742 -0.5482 -0.1632 -1.9547
   16CHTO   C58 6559   7.315   3.920   1.687  0.7337  0.1161 -0.6792
   16CHTO  H115 6560   7.334   3.935   1.579  1.8467 -1.6293 -0.7411
   16CHTO   O37 6561   7.197   3.828   1.701  0.1031  0.0191  0.3671
   16CHTO   C59 6562   7.096   3.874   1.614  0.6220 -0.4590 -0.0597
   16CHTO  H116 6563   7.135   3.878   1.512  0.2977 -1.6021 -0.2307
   16CHTO   C70 6564   6.988   3.765   1.605  0.8368 -0.5333 -0.1217
   16CHTO   O46 6565   6.910   3.742   1.720  0.3189  0.4065  0.1710
   16CHTO  H103 6566   6.911   3.827   1.760 -0.6533  0.5751 -0.1545
   16CHTO   O39 6567   7.433   3.835   1.759  0.4830 -0.8272 -0.1088
   16CHTO   C60 6568   7.505   3.757   1.656 -0.3530  0.0096  0.4750
   16CHTO  H117 6569   7.448   3.748   1.564  0.8614 -0.5183 -0.2394
   16CHTO   C62 6570   7.629   3.838   1.607  0.2973 -0.2967 -0.0300
   16CHTO  H119 6571   7.595   3.932   1.558  0.0893 -0.2488  0.2087
   16CHTO   O43 6572   7.701   3.880   1.727  0.2474  0.1779 -0.0387
   16CHTO  H101 6573   7.793   3.863   1.730 -0.0072 -1.1810  0.5982
   16CHTO   C66 6574   7.707   3.747   1.506 -0.9862 -0.2084  0.9232
   16CHTO  H123 6575   7.636   3.714   1.430  0.0176  0.5407 -0.3603
   16CHTO   N12 6576   7.817   3.816   1.431  0.3566 -0.0074  0.1435
   16CHTO  H110 6577   7.841   3.749   1.350  0.7709 -1.1546  1.1852
   16CHTO  H111 6578   7.898   3.827   1.502  1.0612  0.5180 -0.7486
   16CHTO   C69 6579   7.747   3.613   1.571  0.3451 -0.6859 -0.4474
   16CHTO  H126 6580   7.818   3.645   1.651  0.3514 -0.2266 -0.6324
   16CHTO   O41 6581   7.638   3.540   1.621 -0.2858  0.4528  0.3909
   16CHTO   C64 6582   7.543   3.617   1.709  0.5448  0.8510  0.0767
   16CHTO  H121 6583   7.591   3.630   1.808 -1.1074  2.7351  0.6817
   16CHTO   C71 6584   7.416   3.535   1.718  0.1035  0.3665  0.2874
   16CHTO   O47 6585   7.444   3.403   1.743 -1.1805  0.3170 -0.4673
   16CHTO  H104 6586   7.406   3.344   1.681 -2.4506 -1.4620  1.9370
   16CHTO   O34 6587   7.833   3.529   1.469  0.4575 -0.1243  0.6634
   16CHTO   C49 6588   7.812   3.438   1.346  0.7969  0.1844  0.0131
   16CHTO   H91 6589   7.805   3.509   1.264  0.1157  0.5647  0.3982
   16CHTO   C47 6590   7.683   3.359   1.357 -0.3988 -0.3226 -0.2921
   16CHTO   H89 6591   7.685   3.296   1.266  1.7073 -2.8060  1.3989
   16CHTO   O33 6592   7.562   3.446   1.352  0.3036  0.3013  0.0332
   16CHTO   H70 6593   7.558   3.486   1.267  1.9516  1.6671  0.5685
   16CHTO   C45 6594   7.680   3.258   1.484 -0.3975 -0.0405 -0.5081
   16CHTO   H87 6595   7.703   3.317   1.574 -0.5833 -2.4067  1.1242
   16CHTO    N8 6596   7.555   3.185   1.496  0.3825  0.6542 -0.5811
   16CHTO   H75 6597   7.560   3.122   1.584  1.7427 -1.3154 -2.0337
   16CHTO   H76 6598   7.482   3.263   1.511 -0.5570 -0.1032 -1.1760
   16CHTO   C43 6599   7.817   3.170   1.480  1.2100  0.3472 -0.0285
   16CHTO   H85 6600   7.831   3.129   1.580 -2.3387 -0.5812  0.1505
   16CHTO   O29 6601   7.927   3.242   1.435 -0.0296 -0.1560 -0.5529
   16CHTO   C50 6602   7.929   3.346   1.338 -0.7041  0.0262  0.3457
   16CHTO   H92 6603   8.026   3.399   1.343 -0.2527 -0.6100 -1.1675
   16CHTO   C54 6604   7.959   3.294   1.191  0.2716  0.0673  0.4337
   16CHTO   O36 6605   8.062   3.201   1.175  0.1643 -0.0234  0.4148
   16CHTO   H72 6606   8.036   3.133   1.234 -0.3511 -1.3206 -1.2642
   16CHTO   O27 6607   7.792   3.064   1.387  0.0869 -0.4490  0.3202
   16CHTO   C37 6608   7.824   2.927   1.357  0.2411  0.3892 -0.5534
   16CHTO   H79 6609   7.890   2.926   1.269 -1.0257  1.2109 -1.5172
   16CHTO   C38 6610   7.907   2.853   1.470 -0.2397  0.0176 -0.1554
   16CHTO   H80 6611   7.857   2.865   1.567 -0.1699 -0.5797 -0.0486
   16CHTO   O31 6612   8.037   2.919   1.482 -0.7778 -0.5700 -0.6137
   16CHTO   H68 6613   8.079   2.920   1.398 -0.6267  0.5131 -0.5325
   16CHTO   C39 6614   7.926   2.705   1.443  0.3111  0.0452  0.2114
   16CHTO   H81 6615   7.974   2.686   1.347  0.2157 -1.8006  0.5053
   16CHTO    N7 6616   7.985   2.619   1.554  0.1192 -0.1064  0.1310
   16CHTO   H73 6617   8.006   2.520   1.516  0.0909 -0.3372  0.7273
   16CHTO   H74 6618   8.061   2.674   1.609  1.4886 -0.9212 -0.9010
   16CHTO   C40 6619   7.788   2.635   1.416 -0.5184 -0.2278 -0.6238
   16CHTO   H82 6620   7.728   2.629   1.507  0.4795 -1.5631 -0.0335
   16CHTO   O26 6621   7.722   2.704   1.301  0.5422  0.0316 -0.4351
   16CHTO   C41 6622   7.693   2.845   1.323 -0.1783 -0.0229  0.5829
   16CHTO   H83 6623   7.627   2.842   1.411  0.3761 -0.4930  0.9892
   16CHTO   C52 6624   7.615   2.903   1.200 -0.1188  0.5471  0.1964
   16CHTO   O35 6625   7.688   2.899   1.077 -0.0034  0.0256 -0.3814
   16CHTO   H71 6626   7.700   2.819   1.029 -1.2385 -0.4985  0.1575
   16CHTO   O28 6627   7.790   2.503   1.348 -0.4162 -0.2487  0.1197
   16CHTO   C42 6628   7.788   2.380   1.421  0.2577  0.1996 -0.1119
   16CHTO   H84 6629   7.818   2.400   1.523  1.2050 -0.7794 -0.1860
   16CHTO   C44 6630   7.879   2.264   1.365  0.5774  0.3733 -0.2990
   16CHTO   H86 6631   7.878   2.273   1.256 -1.4880 -0.7078 -0.3873
   16CHTO   O32 6632   8.010   2.307   1.394  0.2369  0.4277  0.2746
   16CHTO   H69 6633   8.022   2.338   1.481  3.4788 -0.7915  0.3258
   16CHTO   C48 6634   7.846   2.110   1.411  0.6512  0.1397  0.5232
   16CHTO   H90 6635   7.876   2.082   1.512 -0.9454 -2.0020  0.4342
   16CHTO    N9 6636   7.919   2.007   1.329  0.2076  0.0904  0.1022
   16CHTO   H77 6637   8.019   2.037   1.305 -0.5303  1.8721 -0.8011
   16CHTO   H78 6638   7.915   1.917   1.388 -0.0393 -0.1659 -0.3063
   16CHTO   C51 6639   7.686   2.083   1.407  0.1901 -0.2697  0.2873
   16CHTO   H93 6640   7.655   2.090   1.303 -2.6456  3.9067  1.3081
   16CHTO   O30 6641   7.620   2.193   1.484  0.5367  0.0132  0.1585
   16CHTO   C46 6642   7.634   2.328   1.429 -0.1970  0.3835 -0.6016
   16CHTO   H88 6643   7.586   2.315   1.332 -2.0820 -1.1968  0.5004
   16CHTO   C53 6644   7.540   2.414   1.515 -0.5591  0.3411 -0.6513
   16CHTO   O72 6645   7.584   2.438   1.652 -0.2359  0.1572  0.0354
   16CHTO  H199 6646   7.550   2.518   1.687  0.7250  0.5880 -0.0046
   16CHTO   O22 6647   7.650   1.958   1.466 -0.0539 -0.2597  0.2114
   16CHTO   C31 6648   7.513   1.911   1.487 -0.5419  0.2110 -0.3848
   16CHTO   H59 6649   7.478   1.967   1.576  0.1134  0.3878 -0.2341
   16CHTO   C29 6650   7.408   1.928   1.378  0.1966 -0.6641  0.0598
   16CHTO   H57 6651   7.447   1.871   1.293  0.6270 -0.1411 -0.0967
   16CHTO   O21 6652   7.401   2.067   1.332  0.1367 -0.2633 -0.1467
   16CHTO   H37 6653   7.486   2.101   1.314 -0.1783  1.0608  0.7786
   16CHTO   C27 6654   7.264   1.872   1.427 -0.6389  0.0889  0.3161
   16CHTO   H55 6655   7.237   1.939   1.511  0.4855  0.8617  0.0778
   16CHTO    N5 6656   7.162   1.874   1.315 -0.0598  0.4670  0.1541
   16CHTO   H43 6657   7.087   1.948   1.340 -1.5980 -0.0045 -2.7379
   16CHTO   H44 6658   7.212   1.926   1.234  0.2019  0.5195  0.3505
   16CHTO   C25 6659   7.278   1.722   1.477  0.3715 -0.3242  0.0185
   16CHTO   H53 6660   7.311   1.652   1.399 -0.4239 -1.4875  0.7157
   16CHTO   O17 6661   7.382   1.714   1.569 -0.1679  0.0775 -0.0334
   16CHTO   C32 6662   7.513   1.756   1.533  0.6938  0.7612  0.7345
   16CHTO   H60 6663   7.534   1.691   1.448  0.0374 -0.3905  1.4473
   16CHTO   C36 6664   7.615   1.733   1.640 -0.4177 -0.2805  0.4015
   16CHTO   O25 6665   7.625   1.593   1.667 -0.4366  0.4296  0.0175
   16CHTO   H40 6666   7.668   1.570   1.747 -1.1308 -0.8313  0.0354
   16CHTO   O15 6667   7.151   1.671   1.559 -0.3850 -0.4473  0.1989
   16CHTO   C19 6668   7.065   1.698   1.662  0.5528 -0.0184 -0.7179
   16CHTO   H47 6669   7.055   1.599   1.709  2.3795 -0.0274 -0.3089
   16CHTO   C20 6670   7.112   1.793   1.789  0.4118  0.8928 -0.2973
   16CHTO   H48 6671   7.134   1.897   1.760  1.5043  1.1524  1.3380
   16CHTO   O19 6672   7.244   1.738   1.835 -0.2021 -0.2656 -0.8182
   16CHTO   H35 6673   7.231   1.650   1.864  2.9565 -0.3117  0.6703
   16CHTO   C21 6674   7.007   1.793   1.904  0.0654  0.1172 -0.2687
   16CHTO   H49 6675   6.998   1.690   1.938  0.1195  0.2293  0.0911
   16CHTO    N4 6676   7.042   1.879   2.019 -0.6165  0.1715  0.4974
   16CHTO   H41 6677   7.010   1.837   2.113 -0.3985 -2.4828 -0.5757
   16CHTO   H42 6678   7.145   1.910   2.026 -0.4488 -0.3907  0.4709
   16CHTO   C22 6679   6.872   1.824   1.841 -0.0105 -0.1162  0.3376
   16CHTO   H50 6680   6.877   1.923   1.794 -2.1339 -0.5804 -0.9433
   16CHTO   O14 6681   6.840   1.739   1.732  0.6109  0.0897 -0.3277
   16CHTO   C23 6682   6.924   1.739   1.615 -0.2235 -0.8930  0.1739
   16CHTO   H51 6683   6.923   1.842   1.577 -1.6289 -0.1435  2.1311
   16CHTO   C34 6684   6.868   1.653   1.503 -0.0462 -0.3106 -0.2561
   16CHTO   O23 6685   6.759   1.716   1.447 -0.0555  0.5431  0.2718
   16CHTO   H38 6686   6.715   1.671   1.378  0.4896  0.9516 -0.3469
   16CHTO   O16 6687   6.761   1.812   1.927 -0.5603  0.0740  0.0861
   16CHTO   C24 6688   6.638   1.909   1.894 -0.1546 -0.5181  0.2148
   16CHTO   H52 6689   6.651   1.960   1.799 -0.0601 -0.9343 -0.0009
   16CHTO   C26 6690   6.625   2.018   2.007  0.2948 -0.3737 -0.3999
   16CHTO   H54 6691   6.636   1.971   2.107  2.8495  0.4962 -0.2225
   16CHTO   O20 6692   6.732   2.103   1.983 -0.6537  0.0919 -0.5336
   16CHTO   H36 6693   6.812   2.055   1.974 -0.9954 -0.4157 -0.8425
   16CHTO   C30 6694   6.483   2.087   2.003 -0.3511  0.5136 -0.7333
   16CHTO   H58 6695   6.476   2.156   1.918  2.5195  1.0229 -0.6008
   16CHTO    N6 6696   6.466   2.179   2.121  0.0185 -0.2414  0.4421
   16CHTO   H45 6697   6.442   2.278   2.085  0.2308 -0.1783  0.4692
   16CHTO   H46 6698   6.383   2.143   2.179  1.5542 -2.9632  1.0299
   16CHTO   C33 6699   6.361   1.985   1.992 -0.3526  0.0707 -0.5295
   16CHTO   H61 6700   6.358   1.929   2.087  0.2286  0.0142 -0.5399
   16CHTO   O18 6701   6.397   1.906   1.883  0.3839  0.1482  0.3592
   16CHTO   C28 6702   6.513   1.826   1.877  0.2150 -0.4742  0.0424
   16CHTO   H56 6703   6.515   1.751   1.957  1.9254 -1.4105 -0.8482
   16CHTO   C35 6704   6.508   1.745   1.746 -0.3443 -0.5577 -0.3111
   16CHTO   O24 6705   6.515   1.824   1.621 -0.1636  0.2636 -0.7977
   16CHTO   H39 6706   6.432   1.857   1.593 -0.2829  0.9055  0.3000
   16CHTO    O9 6707   6.225   2.040   1.979 -0.4069  0.2110 -0.2102
   16CHTO   C13 6708   6.121   1.971   2.078 -0.2964 -0.8448  0.0208
   16CHTO   H26 6709   6.170   1.953   2.175  2.3097  1.0815 -0.8644
   16CHTO   C11 6710   6.074   1.838   2.010 -0.3764  0.1924 -0.5832
   16CHTO   H24 6711   6.148   1.757   2.023 -1.0611 -0.7001 -2.0996
   16CHTO    O8 6712   6.049   1.854   1.868  0.3398  0.2274  0.5313
   16CHTO    H3 6713   6.014   1.937   1.845  0.6864  0.0870 -0.5026
   16CHTO    C9 6714   5.945   1.781   2.083 -0.3481  0.1471  0.0214
   16CHTO   H22 6715   5.975   1.779   2.189  0.9777  2.9073 -0.2429
   16CHTO    N2 6716   5.917   1.640   2.039  0.1542 -0.5346  0.2524
   16CHTO   H10 6717   5.831   1.609   2.097 -0.6736  1.0090 -0.1307
   16CHTO   H11 6718   6.005   1.576   2.042 -0.6808 -1.6896  0.3204
   16CHTO    C7 6719   5.832   1.886   2.066  0.8135 -0.0231  0.2208
   16CHTO   H20 6720   5.785   1.890   2.167 -0.2019  0.5515 -0.2625
   16CHTO    O4 6721   5.880   2.021   2.029  0.3748 -0.3165  0.2017
   16CHTO   C14 6722   5.999   2.064   2.103 -0.8306  0.1712 -0.4372
   16CHTO   H27 6723   5.965   2.061   2.209  4.2587  0.3815  1.3079
   16CHTO   C18 6724   6.024   2.213   2.074 -0.0355  1.2240  0.0409
   16CHTO   O13 6725   5.906   2.291   2.065 -0.0968 -0.1759  0.1827
   16CHTO    H7 6726   5.918   2.364   2.007  2.2586 -0.5690  0.1228
   16CHTO    O2 6727   5.719   1.848   1.964 -0.4586  0.0429  0.3425
   16CHTO    C1 6728   5.607   1.930   1.980 -0.1093  0.3566 -1.5707
   16CHTO   H14 6729   5.627   2.008   2.057  1.2567  0.8929 -2.4389
   16CHTO    C2 6730   5.483   1.842   2.029  0.5514  0.6358 -0.4220
   16CHTO   H15 6731   5.489   1.753   1.964  2.6811  1.6503 -1.6501
   16CHTO    O6 6732   5.518   1.802   2.167 -0.4895 -0.2443 -0.1814
   16CHTO    H1 6733   5.487   1.868   2.226 -2.1156 -1.8325  0.8150
   16CHTO    C3 6734   5.343   1.921   2.014  0.1698 -0.5080 -1.1975
   16CHTO   H16 6735   5.345   2.007   2.083 -3.6309 -1.2867 -0.0130
   16CHTO    N1 6736   5.220   1.837   2.031 -0.1589 -0.1576  0.1091
   16CHTO    H8 6737   5.255   1.740   2.065 -1.0487 -1.6210 -2.9344
   16CHTO    H9 6738   5.159   1.873   2.112 -0.7853 -1.0239  0.0299
   16CHTO    C4 6739   5.340   1.998   1.877  0.5050 -0.0278 -0.4022
   16CHTO   H17 6740   5.334   1.926   1.795  1.7534 -1.5691  0.8239
   16CHTO    O1 6741   5.455   2.085   1.858 -0.2274 -0.3701  0.3159
   16CHTO    C5 6742   5.570   2.000   1.848 -0.1858  0.4108  0.1222
   16CHTO   H18 6743   5.544   1.924   1.774 -0.3272 -1.5180  2.1051
   16CHTO   C16 6744   5.683   2.091   1.792  0.5796 -0.0119  0.7916
   16CHTO   O11 6745   5.674   2.103   1.644 -0.6320 -0.1074 -0.0211
   16CHTO    H5 6746   5.609   2.162   1.613 -0.8361 -1.7249 -2.8852
   16CHTO    O3 6747   5.223   2.089   1.873  0.1934 -0.4767  0.0695
   16CHTO    C6 6748   5.192   2.161   1.746 -0.8734 -0.3737  0.3584
   16CHTO   H19 6749   5.273   2.164   1.673 -0.1861 -0.8244  1.0934
   16CHTO    C8 6750   5.059   2.099   1.679  0.1348 -0.6742  0.0042
   16CHTO   H21 6751   4.985   2.090   1.759 -0.3086 -2.4560 -0.5884
   16CHTO    O7 6752   5.094   1.967   1.644  0.5557  0.0112 -0.3044
   16CHTO    H2 6753   5.105   1.918   1.723  2.3360  0.2525 -0.3852
   16CHTO   C12 6754   4.993   2.187   1.567 -0.3584  0.2598  0.5309
   16CHTO   H25 6755   5.054   2.176   1.475 -1.8340 -0.3915 -0.3908
   16CHTO    N3 6756   4.858   2.155   1.517  0.0597  0.6212  0.2912
   16CHTO   H12 6757   4.827   2.221   1.438 -1.2513 -0.8904 -0.4794
   16CHTO   H13 6758   4.864   2.054   1.477 -1.8080  0.9003 -0.7276
   16CHTO   C15 6759   4.994   2.341   1.613 -0.3482  0.1102  0.1539
   16CHTO   H28 6760   4.911   2.359   1.682  0.7017  0.3152  1.3878
   16CHTO   O10 6761   4.985   2.439   1.483 -0.0445 -0.4616  0.9134
   16CHTO    H4 6762   5.064   2.420   1.436 -0.8879 -2.7910  0.3432
   16CHTO    O5 6763   5.111   2.396   1.681 -0.4767 -0.2632  0.1852
   16CHTO   C10 6764   5.160   2.311   1.786  0.2650  0.4942  0.5533
   16CHTO   H23 6765   5.087   2.314   1.867 -0.6617 -3.3888 -0.0523
   16CHTO   C17 6766   5.282   2.383   1.851  0.0021  0.1354 -0.4147
   16CHTO   O12 6767   5.382   2.399   1.751 -0.0675 -0.2449  0.0992
   16CHTO    H6 6768   5.463   2.352   1.761  0.8206  0.9765 -1.1914
   17CHTO  H203 6769   5.831   4.175   0.263 -0.5797  0.5817  1.5247
   17CHTO   O82 6770   5.896   4.242   0.253 -0.1847  0.0512  0.4880
   17CHTO  C123 6771   5.846   4.373   0.285  0.1428 -0.7196 -0.3212
   17CHTO  H227 6772   5.788   4.370   0.379  0.0967  2.5818 -0.1738
   17CHTO   O77 6773   5.970   4.454   0.299 -0.1714 -0.3124 -0.3527
   17CHTO  C118 6774   5.950   4.582   0.364  0.5020 -0.9241 -0.3565
   17CHTO  H222 6775   5.893   4.559   0.455 -2.6128 -3.6284 -2.8461
   17CHTO  C125 6776   6.096   4.645   0.398  0.2743  0.5626  0.0178
   17CHTO   O84 6777   6.085   4.760   0.485  0.0600  0.3102 -0.3877
   17CHTO  H205 6778   6.038   4.826   0.439  0.0305  1.0723  0.7226
   17CHTO  C114 6779   5.861   4.662   0.267  0.1862  0.6564 -0.5041
   17CHTO  H218 6780   5.920   4.683   0.177 -0.5561  0.8358 -0.9549
   17CHTO  C116 6781   5.725   4.590   0.232  0.4882 -0.6611  0.1034
   17CHTO  H220 6782   5.665   4.590   0.325 -1.2075  2.6355 -0.9238
   17CHTO   O79 6783   5.651   4.670   0.137 -0.0440  0.3779  0.0914
   17CHTO  H201 6784   5.562   4.644   0.124  0.0805  1.0856 -2.4970
   17CHTO  C120 6785   5.757   4.443   0.182  0.5104  0.2872  0.3912
   17CHTO  H224 6786   5.810   4.460   0.086  0.2375 -2.6644 -0.3469
   17CHTO   N21 6787   5.626   4.373   0.162 -0.0823  0.0449  0.0964
   17CHTO  H211 6788   5.619   4.269   0.186 -0.6469  0.1669  0.4635
   17CHTO  H212 6789   5.547   4.431   0.206  0.7125  1.6469 -0.5355
   17CHTO   O75 6790   5.830   4.785   0.336  0.1437 -0.4326  0.0205
   17CHTO  C112 6791   5.851   4.924   0.260  1.0529  0.2715 -0.0943
   17CHTO  H216 6792   5.797   4.925   0.164  1.5256  0.9755 -0.3648
   17CHTO   O73 6793   5.988   4.940   0.241 -0.3600 -0.4339  0.7271
   17CHTO  C113 6794   6.010   5.059   0.158  0.9209  0.3039 -0.5742
   17CHTO  H217 6795   5.956   5.048   0.062  0.6483  1.2852 -0.5292
   17CHTO  C124 6796   6.161   5.039   0.132  0.1126 -0.2005  0.2931
   17CHTO   O83 6797   6.227   5.131   0.051 -0.0142 -0.2226 -0.5115
   17CHTO  H204 6798   6.247   5.211   0.095  1.0357  1.4192 -3.8268
   17CHTO  C109 6799   5.982   5.190   0.241 -0.8134 -0.0876  0.4890
   17CHTO  H213 6800   6.054   5.193   0.324  0.3464 -0.4906 -0.4798
   17CHTO  C110 6801   5.836   5.183   0.297 -0.1616 -0.5254 -0.0640
   17CHTO  H214 6802   5.768   5.205   0.214  0.6826 -1.0485 -0.9137
   17CHTO   O78 6803   5.810   5.289   0.393  0.7385 -0.2808 -0.1439
   17CHTO  H200 6804   5.810   5.372   0.349 -0.5665  0.4621  1.2196
   17CHTO  C111 6805   5.798   5.041   0.353  0.6002 -0.0971  0.0984
   17CHTO  H215 6806   5.838   5.029   0.455 -0.1125 -0.1687  0.3656
   17CHTO   N19 6807   5.650   5.034   0.364 -0.2467 -0.0494  0.1928
   17CHTO  H207 6808   5.604   4.997   0.274  1.7625 -0.0660 -0.8522
   17CHTO  H208 6809   5.596   5.125   0.384  1.7121  0.5662  2.8684
   17CHTO   O74 6810   6.001   5.308   0.154  0.3312 -0.3872 -0.0974
   17CHTO  C115 6811   6.043   5.436   0.242  0.2986 -0.0421  0.1173
   17CHTO  H219 6812   5.969   5.458   0.319  1.4453 -0.6414  1.4038
   17CHTO   O76 6813   6.178   5.405   0.326 -0.0926  0.1731 -0.5881
   17CHTO  C122 6814   6.299   5.438   0.260 -0.4963  0.5413 -0.0399
   17CHTO  H226 6815   6.290   5.382   0.166 -2.5022 -1.7591  1.4716
   17CHTO  C126 6816   6.423   5.381   0.333  0.0169  0.1674 -0.4032
   17CHTO   O85 6817   6.547   5.416   0.278  0.1724 -0.1028 -0.0157
   17CHTO  H206 6818   6.609   5.347   0.290  0.5368  0.2620  0.2052
   17CHTO  C121 6819   6.308   5.595   0.228  0.2947  0.0954 -0.0269
   17CHTO  H225 6820   6.358   5.646   0.313  0.9460 -1.7287  0.7023
   17CHTO   O81 6821   6.395   5.618   0.116  0.2190 -0.2642  0.1259
   17CHTO  H202 6822   6.364   5.579   0.037  0.7737  2.5744 -1.5981
   17CHTO  C119 6823   6.164   5.657   0.211 -0.3341  0.3525 -0.9685
   17CHTO  H223 6824   6.135   5.693   0.310 -0.4198 -0.6438 -0.6260
   17CHTO  C117 6825   6.063   5.554   0.148 -0.0658 -0.3207 -0.1558
   17CHTO  H221 6826   6.086   5.502   0.055 -0.7554 -0.1284 -0.4393
   17CHTO   N20 6827   5.938   5.624   0.125 -0.6038 -0.3793 -0.2114
   17CHTO  H209 6828   5.951   5.719   0.076 -2.1795  0.2204  0.4753
   17CHTO  H210 6829   5.885   5.640   0.218 -1.0058  0.2912 -0.5469
   17CHTO   O80 6830   6.178   5.815   0.125  0.3275 -0.0466 -0.1616
   17CHTO  C103 6831   6.182   5.952   0.212  0.5165 -0.1767  0.5394
   17CHTO  H190 6832   6.138   5.922   0.307 -0.1517 -2.2738 -0.4129
   17CHTO  C101 6833   6.325   6.017   0.225  0.5034 -0.5857  0.2590
   17CHTO  H188 6834   6.375   6.022   0.128 -0.1122 -1.6134 -0.1105
   17CHTO   O68 6835   6.414   5.924   0.307  0.0437  0.3631 -0.4938
   17CHTO  H168 6836   6.368   5.844   0.327 -0.0529  0.1100 -1.7129
   17CHTO   C99 6837   6.316   6.165   0.290 -0.0659 -0.0281  0.7295
   17CHTO  H186 6838   6.286   6.149   0.395  2.2847 -0.2382  1.4044
   17CHTO   N17 6839   6.447   6.235   0.285 -0.4978 -0.2307 -0.3312
   17CHTO  H174 6840   6.524   6.188   0.345 -2.2226  1.3857  3.2968
   17CHTO  H175 6841   6.480   6.243   0.182 -0.1614 -2.2982 -0.3909
   17CHTO   C97 6842   6.208   6.248   0.226  0.3792 -0.3362  0.0018
   17CHTO  H184 6843   6.245   6.274   0.126 -2.0411 -0.4189 -0.9508
   17CHTO   O64 6844   6.078   6.175   0.217  0.0027 -1.2440  0.2038
   17CHTO  C104 6845   6.086   6.050   0.149 -0.1678  0.0059 -0.2503
   17CHTO  H191 6846   6.115   6.070   0.046 -0.3402  0.8367 -0.1462
   17CHTO  C108 6847   5.945   5.993   0.142  0.6640 -0.7023 -0.0283
   17CHTO   O71 6848   5.850   6.091   0.094  0.3116 -0.4897  0.6466
   17CHTO  H171 6849   5.866   6.179   0.120 -1.3129 -0.0314  0.1551
   17CHTO   O62 6850   6.178   6.372   0.307 -0.4175 -0.1993  0.2558
   17CHTO   C91 6851   6.096   6.463   0.238  0.1528  0.1120 -0.1732
   17CHTO  H178 6852   6.043   6.413   0.158 -1.3630  1.5968 -0.1324
   17CHTO   C92 6853   6.198   6.567   0.179 -0.0116 -0.3060 -0.3195
   17CHTO  H179 6854   6.277   6.523   0.117  0.6303 -0.0138  0.2881
   17CHTO   O66 6855   6.129   6.647   0.078 -0.3236 -0.1368 -0.5125
   17CHTO  H166 6856   6.087   6.584   0.023 -0.3539  0.4927 -1.2002
   17CHTO   C93 6857   6.263   6.664   0.285  0.4176  0.1694 -0.1501
   17CHTO  H180 6858   6.298   6.752   0.229  0.2606 -0.5506 -1.4031
   17CHTO   N16 6859   6.383   6.613   0.352  0.4950  0.6221 -0.1596
   17CHTO  H172 6860   6.456   6.580   0.280  1.7007 -0.7496  1.6410
   17CHTO  H173 6861   6.354   6.531   0.416  0.8079  0.5114 -0.1615
   17CHTO   C94 6862   6.152   6.712   0.386  0.4915 -0.5204  0.1450
   17CHTO  H181 6863   6.166   6.670   0.486 -1.2279 -3.9736 -0.9905
   17CHTO   O61 6864   6.018   6.677   0.334  0.2984 -0.5228 -0.3010
   17CHTO   C95 6865   5.995   6.533   0.330 -0.0688  0.0324 -0.0002
   17CHTO  H182 6866   6.005   6.492   0.431  0.8705 -1.7090 -0.7860
   17CHTO  C106 6867   5.843   6.513   0.285  0.3276  0.1829  0.4694
   17CHTO   O69 6868   5.757   6.558   0.390 -0.0661  0.2713  0.8472
   17CHTO  H169 6869   5.798   6.636   0.422 -0.2760  0.5773  0.3730
   17CHTO   O63 6870   6.169   6.869   0.400  0.2696  0.2782 -0.0837
   17CHTO   C96 6871   6.116   6.934   0.552  0.6647  0.0784  0.8037
   17CHTO  H183 6872   6.127   6.865   0.636  1.1629  1.3038  1.7573
   17CHTO   C98 6873   5.969   6.984   0.567  0.4346 -0.0134  0.9208
   17CHTO  H185 6874   5.950   7.065   0.495  1.9026  0.1947  0.7401
   17CHTO   O67 6875   5.879   6.868   0.528 -0.2358 -0.2335 -1.3955
   17CHTO  H167 6876   5.801   6.898   0.488  0.3152  0.5205 -1.9175
   17CHTO  C102 6877   5.943   7.041   0.715 -0.7373 -0.4673 -0.0852
   17CHTO  H189 6878   5.952   6.957   0.785  0.5594  0.9067  1.4259
   17CHTO   N18 6879   5.806   7.096   0.735 -0.8516 -0.0194  0.2931
   17CHTO  H176 6880   5.777   7.162   0.654 -0.3684  3.5812  2.9531
   17CHTO  H177 6881   5.788   7.141   0.831  0.2631  0.6106  0.2244
   17CHTO  C105 6882   6.055   7.143   0.749 -0.6059 -0.2188 -0.3132
   17CHTO  H192 6883   6.036   7.240   0.702 -1.1458 -1.2918 -2.3555
   17CHTO   O65 6884   6.188   7.093   0.718  0.0499 -0.4637  0.0610
   17CHTO  C100 6885   6.210   7.053   0.582  0.8584 -0.3539 -0.0928
   17CHTO  H187 6886   6.187   7.141   0.519  3.7503  0.8930  0.5065
   17CHTO  C107 6887   6.363   7.027   0.568 -0.1427  0.0309 -0.0206
   17CHTO   O70 6888   6.394   6.925   0.664 -0.4119  0.0031  0.4055
   17CHTO  H170 6889   6.482   6.896   0.652 -0.2361  0.9513 -0.6649
   17CHTO   O57 6890   6.045   7.166   0.915 -0.0703  0.3753 -0.1554
   17CHTO   C85 6891   6.088   7.293   0.964 -0.8423 -0.4316  0.2665
   17CHTO  H157 6892   6.012   7.370   0.939 -1.2035 -0.4388  1.3405
   17CHTO   C83 6893   6.220   7.353   0.896 -0.4803 -0.2032  0.2384
   17CHTO  H155 6894   6.191   7.373   0.793 -2.9555 -0.3409  0.8799
   17CHTO   O56 6895   6.326   7.260   0.897 -0.1648 -0.6693 -0.5712
   17CHTO  H135 6896   6.392   7.293   0.839  0.9617 -0.1378  0.9811
   17CHTO   C81 6897   6.260   7.487   0.962  0.7605  0.1325  0.5186
   17CHTO  H153 6898   6.175   7.554   0.949  0.1876 -0.5416  0.6973
   17CHTO   N14 6899   6.373   7.561   0.890 -0.0118  0.2719  0.2276
   17CHTO  H141 6900   6.471   7.530   0.917  0.1720  1.7141  1.3127
   17CHTO  H142 6901   6.365   7.574   0.784  0.0664 -0.1133  0.1757
   17CHTO   C79 6902   6.284   7.468   1.117  0.6463  0.4504  0.2580
   17CHTO  H151 6903   6.291   7.567   1.163  2.0542  0.4497  0.0370
   17CHTO   O52 6904   6.170   7.409   1.182  0.1091  0.1513 -0.6569
   17CHTO   C86 6905   6.113   7.285   1.124 -0.3291  0.1635 -0.1228
   17CHTO  H158 6906   6.194   7.212   1.143 -0.9618 -0.5396 -0.1082
   17CHTO   C90 6907   5.990   7.234   1.203 -0.0563  0.4721  0.4990
   17CHTO   O60 6908   6.044   7.192   1.331 -0.3019 -0.1336 -0.5024
   17CHTO  H138 6909   6.085   7.110   1.315  1.4405  0.3588  1.3432
   17CHTO   O50 6910   6.401   7.388   1.152  0.1332  0.2728 -0.7464
   17CHTO   C73 6911   6.511   7.378   1.248  0.8881  0.1558 -0.2775
   17CHTO  H145 6912   6.547   7.478   1.277  1.6142  0.0114 -0.6564
   17CHTO   C74 6913   6.635   7.303   1.190  0.1635 -0.5575 -0.0253
   17CHTO  H146 6914   6.674   7.360   1.105 -0.0932 -0.5443 -0.1333
   17CHTO   O54 6915   6.743   7.300   1.285  0.0693 -0.0469  0.1732
   17CHTO  H133 6916   6.713   7.333   1.368  0.3207 -0.6028  0.4878
   17CHTO   C75 6917   6.595   7.156   1.152 -0.6480 -0.2768  0.2880
   17CHTO  H147 6918   6.505   7.160   1.088 -1.0597  0.6293  0.9207
   17CHTO   N13 6919   6.699   7.068   1.082 -0.2310 -0.2444 -0.6290
   17CHTO  H139 6920   6.759   7.034   1.165 -1.1386  2.8128  1.3933
   17CHTO  H140 6921   6.635   6.989   1.048  1.3622 -1.8266 -0.0028
   17CHTO   C76 6922   6.529   7.077   1.282 -0.2599 -0.3337  0.2859
   17CHTO  H148 6923   6.611   7.077   1.354 -1.0650  1.2782  1.2057
   17CHTO   O49 6924   6.429   7.159   1.348  0.1134 -0.1817  0.2751
   17CHTO   C77 6925   6.465   7.299   1.379  0.3231 -0.5073 -0.5563
   17CHTO  H149 6926   6.546   7.305   1.452 -0.0268  0.1973 -0.2288
   17CHTO   C88 6927   6.348   7.354   1.451  0.6346 -0.1233  0.0288
   17CHTO   O58 6928   6.335   7.282   1.605  0.2073 -0.3922 -0.1664
   17CHTO  H136 6929   6.268   7.315   1.661  0.2624 -0.1448 -0.2449
   17CHTO   O51 6930   6.477   6.939   1.257  0.1723  1.0369 -1.1532
   17CHTO   C78 6931   6.316   6.918   1.262  0.1698  0.7255 -0.4467
   17CHTO  H150 6932   6.269   7.017   1.246  0.3591  0.8967  0.0633
   17CHTO   C80 6933   6.262   6.854   1.397  0.6623 -1.0020 -0.4322
   17CHTO  H152 6934   6.313   6.758   1.419 -0.0298 -1.2395  0.1565
   17CHTO   O55 6935   6.292   6.962   1.492  0.1401 -0.1468 -0.0033
   17CHTO  H134 6936   6.214   7.006   1.519  0.3873  0.3258 -0.0497
   17CHTO   C84 6937   6.104   6.824   1.398  0.1919 -0.1379 -0.4861
   17CHTO  H156 6938   6.055   6.921   1.387  0.9176  0.3461  0.5224
   17CHTO   N15 6939   6.056   6.767   1.523 -0.0243 -0.0176 -0.4042
   17CHTO  H143 6940   5.961   6.721   1.508 -1.0207  1.8543  0.0745
   17CHTO  H144 6941   6.131   6.697   1.555 -0.6584  0.0695  1.3193
   17CHTO   C87 6942   6.075   6.736   1.273  0.2991  0.1290 -0.2732
   17CHTO  H159 6943   6.130   6.642   1.280 -0.3247 -0.5392 -3.6472
   17CHTO   O53 6944   6.127   6.816   1.135  0.7165  0.0055  0.9827
   17CHTO   C82 6945   6.272   6.838   1.138 -0.0379 -0.4058  0.1888
   17CHTO  H154 6946   6.328   6.745   1.131 -0.8817 -0.9359  0.4968
   17CHTO   C89 6947   6.300   6.918   1.002  0.1961  0.1064  0.9333
   17CHTO   O59 6948   6.443   6.929   0.973 -0.4611  0.3650  0.0484
   17CHTO  H137 6949   6.461   6.951   0.883  1.2188 -1.3418 -0.0453
   17CHTO   O45 6950   5.902   6.717   1.261 -0.1651  0.3477  0.5524
   17CHTO   C67 6951   5.848   6.613   1.176  0.3649 -0.0008 -0.2524
   17CHTO  H124 6952   5.746   6.592   1.208  0.2096 -0.0100 -0.7490
   17CHTO   C65 6953   5.845   6.658   1.034 -0.4495 -0.1720  0.2196
   17CHTO  H122 6954   5.933   6.721   1.018 -0.5746 -0.1201 -0.2684
   17CHTO   O44 6955   5.732   6.740   1.021 -0.0182  0.5265 -0.0026
   17CHTO  H102 6956   5.648   6.701   1.039 -0.4060  2.7495  3.5609
   17CHTO   C63 6957   5.842   6.536   0.930 -0.3586  0.3466  0.1900
   17CHTO  H120 6958   5.944   6.497   0.920 -0.3083  0.4614  0.2547
   17CHTO   N11 6959   5.810   6.579   0.789 -0.3190 -0.7124  0.5337
   17CHTO  H108 6960   5.725   6.538   0.739 -1.9674  2.1890  0.8603
   17CHTO  H109 6961   5.817   6.685   0.791  1.4493 -0.8092  0.4017
   17CHTO   C61 6962   5.768   6.421   0.992 -0.3510 -0.1553 -0.9106
   17CHTO  H118 6963   5.763   6.341   0.917  1.0214 -0.1077 -1.0661
   17CHTO   O40 6964   5.843   6.373   1.109 -0.0113 -0.4725  0.4956
   17CHTO   C68 6965   5.918   6.473   1.192 -0.1625  0.5274  1.0954
   17CHTO  H125 6966   6.023   6.490   1.160 -0.4238  1.8728  0.9110
   17CHTO   C72 6967   5.923   6.431   1.339 -0.4187 -0.0190  0.5162
   17CHTO   O48 6968   5.954   6.290   1.352 -0.7260  0.0474 -0.7655
   17CHTO  H105 6969   5.922   6.247   1.429  1.2312  0.2939  0.2186
   17CHTO   O38 6970   5.638   6.454   1.047 -0.5256  0.1498 -0.4321
   17CHTO   C55 6971   5.547   6.358   1.103 -0.0773 -0.2069  0.4238
   17CHTO  H112 6972   5.585   6.322   1.200 -0.6611 -1.4602  0.1932
   17CHTO   C56 6973   5.513   6.244   1.007  0.1273 -0.6445  0.4095
   17CHTO  H113 6974   5.498   6.284   0.906  3.0402  0.6753  0.4597
   17CHTO   O42 6975   5.628   6.160   0.982 -0.2003  0.6825  0.2749
   17CHTO  H100 6976   5.693   6.209   0.936 -2.6649  1.5713 -2.4316
   17CHTO   C57 6977   5.393   6.153   1.064  0.6299  0.1513 -0.1603
   17CHTO  H114 6978   5.434   6.092   1.144  0.1624  1.1313  0.8452
   17CHTO   N10 6979   5.344   6.065   0.949  0.8099 -0.0211 -0.0762
   17CHTO  H106 6980   5.415   6.045   0.870 -1.3927  0.8736 -2.3397
   17CHTO  H107 6981   5.255   6.098   0.899  0.1221 -1.7400 -0.0068
   17CHTO   C58 6982   5.271   6.236   1.118 -0.0494  0.1112 -0.0295
   17CHTO  H115 6983   5.227   6.293   1.033 -3.0185  1.7703  2.5330
   17CHTO   O37 6984   5.323   6.334   1.204 -0.0494 -0.4959 -0.2797
   17CHTO   C59 6985   5.413   6.427   1.145 -0.1505 -0.6322  0.0388
   17CHTO  H116 6986   5.366   6.492   1.071  1.9019 -0.1783 -0.8884
   17CHTO   C70 6987   5.446   6.544   1.242 -0.2743  0.6275 -0.5888
   17CHTO   O46 6988   5.346   6.646   1.253 -0.2353  0.1710 -0.6148
   17CHTO  H103 6989   5.317   6.687   1.174  1.2448  3.0490  0.2442
   17CHTO   O39 6990   5.153   6.147   1.194  0.1198  0.4074  0.2632
   17CHTO   C60 6991   5.021   6.198   1.188  0.6357 -0.3348 -0.4069
   17CHTO  H117 6992   5.029   6.306   1.195  1.0295 -0.4717  1.7410
   17CHTO   C62 6993   4.943   6.163   1.053  0.0919  0.6308 -0.1011
   17CHTO  H119 6994   5.000   6.213   0.972  1.8571 -0.0022  0.7231
   17CHTO   O43 6995   4.931   6.019   1.042 -0.5888 -0.5290  0.4933
   17CHTO  H101 6996   5.011   5.973   1.025 -0.7105  0.0364 -1.6588
   17CHTO   C66 6997   4.796   6.242   1.048  0.0307  0.5713 -0.0268
   17CHTO  H123 6998   4.815   6.349   1.058  0.6898  0.5368 -0.9384
   17CHTO   N12 6999   4.719   6.205   0.926  0.0327 -0.0494  0.1870
   17CHTO  H110 7000   4.655   6.283   0.888 -0.2001 -1.0490 -1.5343
   17CHTO  H111 7001   4.784   6.168   0.848  0.7259  2.3720 -0.4432
   17CHTO   C69 7002   4.715   6.209   1.181  0.6102 -0.4203 -0.2886
   17CHTO  H126 7003   4.685   6.103   1.182  1.5014 -0.6752  0.1157
   17CHTO   O41 7004   4.820   6.229   1.314  0.5412  0.6519  0.1221
   17CHTO   C64 7005   4.931   6.149   1.313  0.3049  0.3474  0.0244
   17CHTO  H121 7006   4.905   6.043   1.296  0.3997  0.1171  1.2540
   17CHTO   C71 7007   4.997   6.167   1.448 -0.1142 -0.0368  0.5156
   17CHTO   O47 7008   4.917   6.120   1.559  0.3310  0.1207 -0.0134
   17CHTO  H104 7009   4.935   6.162   1.641 -0.0860 -1.6931  1.0275
   17CHTO   O34 7010   4.575   6.316   1.181  0.3178 -0.4571 -0.0063
   17CHTO   C49 7011   4.495   6.428   1.253 -0.7312  0.0534  0.2924
   17CHTO   H91 7012   4.557   6.515   1.230  1.8024 -1.7325  0.1746
   17CHTO   C47 7013   4.504   6.402   1.403  0.4089 -0.2685 -0.0061
   17CHTO   H89 7014   4.453   6.484   1.458 -2.5412 -1.8087 -0.3590
   17CHTO   O33 7015   4.641   6.399   1.437 -0.3140  0.2544  0.3161
   17CHTO   H70 7016   4.679   6.317   1.410 -0.4729 -0.5965  2.5758
   17CHTO   C45 7017   4.422   6.267   1.445 -1.2389 -0.1905 -0.5561
   17CHTO   H87 7018   4.496   6.185   1.444 -1.1193 -0.1549  1.9981
   17CHTO    N8 7019   4.382   6.280   1.589 -0.1155  0.0134  0.3345
   17CHTO   H75 7020   4.323   6.192   1.612  0.3698  0.0655  1.8374
   17CHTO   H76 7021   4.331   6.372   1.614  1.2181  1.5233 -2.2860
   17CHTO   C43 7022   4.307   6.229   1.332  0.2861 -0.1680 -0.4219
   17CHTO   H85 7023   4.357   6.175   1.252 -0.1905 -3.2477  1.2624
   17CHTO   O29 7024   4.250   6.349   1.283 -0.0335 -0.3825  0.1252
   17CHTO   C50 7025   4.343   6.438   1.216  0.1793 -0.2187  0.6308
   17CHTO   H92 7026   4.331   6.419   1.109  2.0875  0.8272  0.1982
   17CHTO   C54 7027   4.291   6.579   1.233 -0.6687 -0.1096 -0.4988
   17CHTO   O36 7028   4.161   6.613   1.178  0.3697 -0.3204 -0.4668
   17CHTO   H72 7029   4.177   6.673   1.108  1.5571  0.5426  0.5267
   17CHTO   O27 7030   4.220   6.133   1.387 -0.5295  0.0329  0.1884
   17CHTO   C37 7031   4.182   6.013   1.320  0.0067  0.3809  0.0164
   17CHTO   H79 7032   4.109   5.965   1.386 -0.6592  0.1659 -0.8637
   17CHTO   C38 7033   4.116   6.040   1.184 -0.5913 -0.3126  0.2545
   17CHTO   H80 7034   4.171   6.118   1.130 -2.3628  0.6277 -0.2263
   17CHTO   O31 7035   3.993   6.103   1.214 -0.1091 -0.2520 -0.0103
   17CHTO   H68 7036   3.921   6.046   1.195 -0.6238  0.7744 -1.2462
   17CHTO   C39 7037   4.093   5.904   1.101 -0.0040  0.2585  0.0661
   17CHTO   H81 7038   4.010   5.848   1.146  0.1936  1.7738  2.3905
   17CHTO    N7 7039   4.051   5.937   0.959 -0.7486 -0.2875 -0.1938
   17CHTO   H73 7040   3.949   5.971   0.967 -0.6972  0.0655 -1.0508
   17CHTO   H74 7041   4.066   5.850   0.896  0.9795  0.7693 -1.2908
   17CHTO   C40 7042   4.219   5.805   1.108  0.3495  0.5823 -0.2666
   17CHTO   H82 7043   4.306   5.839   1.051  0.4638  0.1329 -0.3576
   17CHTO   O26 7044   4.246   5.795   1.248  0.6064  0.3609 -0.0328
   17CHTO   C41 7045   4.306   5.912   1.308  0.3050  0.1835 -0.2158
   17CHTO   H83 7046   4.383   5.952   1.240 -0.5145  0.4994 -0.9801
   17CHTO   C52 7047   4.373   5.871   1.441 -0.1215  0.1985 -0.6710
   17CHTO   O35 7048   4.484   5.790   1.418 -0.3773  0.0366  0.4895
   17CHTO   H71 7049   4.503   5.737   1.493  0.5381 -1.8999 -1.0707
   17CHTO   O28 7050   4.175   5.672   1.064  0.2653 -0.1669  0.4126
   17CHTO   C42 7051   4.272   5.568   1.028  0.3018 -0.9240 -0.0302
   17CHTO   H84 7052   4.208   5.479   1.021 -1.5031  0.1586  2.0710
   17CHTO   C44 7053   4.378   5.541   1.144 -0.1517  0.6236 -0.4254
   17CHTO   H86 7054   4.432   5.634   1.164  0.7119  0.2415 -0.9507
   17CHTO   O32 7055   4.302   5.508   1.267  0.0895  0.0183  0.6619
   17CHTO   H69 7056   4.309   5.580   1.327 -1.2075 -1.8766  3.1362
   17CHTO   C48 7057   4.495   5.439   1.104 -1.1226 -0.0275  0.2103
   17CHTO   H90 7058   4.456   5.339   1.088 -1.7489  0.1602  0.5545
   17CHTO    N9 7059   4.590   5.433   1.219 -0.0376 -0.1489 -0.1932
   17CHTO   H77 7060   4.613   5.527   1.267  0.5726  0.9210 -2.5212
   17CHTO   H78 7061   4.668   5.362   1.197 -1.5545 -1.9940  0.2116
   17CHTO   C51 7062   4.561   5.488   0.969 -0.8585 -0.3730  0.0059
   17CHTO   H93 7063   4.576   5.594   0.987 -2.5063 -0.0665 -0.4114
   17CHTO   O30 7064   4.466   5.464   0.870 -0.4755 -0.1469  0.3091
   17CHTO   C46 7065   4.345   5.588   0.887  1.4572 -0.7354 -0.3580
   17CHTO   H88 7066   4.403   5.679   0.897  1.2741 -0.8805  2.4846
   17CHTO   C53 7067   4.249   5.583   0.762 -0.1435  0.2846 -0.7555
   17CHTO   O72 7068   4.304   5.636   0.646  0.0548 -0.5037  0.1626
   17CHTO  H199 7069   4.236   5.675   0.595 -0.1940 -0.9298  0.1704
   17CHTO   O22 7070   4.683   5.428   0.930 -0.5108 -0.0894  0.0547
   17CHTO   C31 7071   4.774   5.492   0.825  0.0216 -0.7208  0.4397
   17CHTO   H59 7072   4.861   5.423   0.818 -0.0274 -0.8719  1.2159
   17CHTO   C29 7073   4.712   5.501   0.684  0.8912 -0.4356 -0.6278
   17CHTO   H57 7074   4.614   5.551   0.689  1.0599 -0.0517 -1.1074
   17CHTO   O21 7075   4.690   5.363   0.638 -0.3714  0.0078  0.2339
   17CHTO   H37 7076   4.613   5.321   0.673 -1.2053  0.8508 -0.5685
   17CHTO   C27 7077   4.805   5.567   0.575 -0.5645 -0.1366  0.0379
   17CHTO   H55 7078   4.892   5.504   0.557 -0.5229  0.5909 -2.3804
   17CHTO    N5 7079   4.729   5.592   0.441  0.3756 -0.0367  0.0044
   17CHTO   H43 7080   4.745   5.510   0.373  1.1475  0.3858 -0.3245
   17CHTO   H44 7081   4.756   5.681   0.387  2.1441 -2.5233 -3.4281
   17CHTO   C25 7082   4.861   5.704   0.636  0.2499  0.1943  0.0648
   17CHTO   H53 7083   4.774   5.771   0.643 -0.4685 -0.7462  0.2034
   17CHTO   O17 7084   4.914   5.691   0.766 -0.2410 -0.7889  0.2569
   17CHTO   C32 7085   4.827   5.636   0.866  0.3301 -0.0251 -0.1828
   17CHTO   H60 7086   4.743   5.703   0.885  1.9149  2.5416 -1.9517
   17CHTO   C36 7087   4.908   5.632   1.000 -0.6685 -0.0370  0.4985
   17CHTO   O25 7088   5.034   5.563   0.987 -0.0978 -0.6120  0.2504
   17CHTO   H40 7089   5.020   5.470   0.992  0.4991 -0.6748  0.7295
   17CHTO   O15 7090   4.965   5.757   0.548 -0.3453  0.5938 -0.2931
   17CHTO   C19 7091   4.996   5.905   0.528 -0.1713 -0.0327 -0.7976
   17CHTO   H47 7092   5.033   5.907   0.424 -0.5897  1.8019 -0.9208
   17CHTO   C20 7093   4.871   5.998   0.525  0.4338 -0.7698 -0.2874
   17CHTO   H48 7094   4.807   5.987   0.614  0.1260 -0.8789 -0.5192
   17CHTO   O19 7095   4.789   5.961   0.414  0.7547 -0.3042 -0.5170
   17CHTO   H35 7096   4.748   5.878   0.430 -0.2029  0.8383  3.6407
   17CHTO   C21 7097   4.914   6.152   0.502 -0.2035  0.2352 -0.4810
   17CHTO   H49 7098   4.953   6.162   0.401 -0.1628  0.6909 -0.4209
   17CHTO    N4 7099   4.804   6.245   0.510  0.0995 -0.0008  0.3779
   17CHTO   H41 7100   4.795   6.300   0.418  1.0717  0.2440  0.4165
   17CHTO   H42 7101   4.716   6.187   0.533  0.7588 -1.2958 -0.2925
   17CHTO   C22 7102   5.031   6.190   0.603  0.1586  0.4685  0.6394
   17CHTO   H50 7103   4.993   6.171   0.703  2.2325  0.9569  1.5620
   17CHTO   O14 7104   5.142   6.098   0.588  0.1793 -0.7790  0.7652
   17CHTO   C23 7105   5.109   5.965   0.626  0.1037 -0.4085 -0.6639
   17CHTO   H51 7106   5.073   5.975   0.730  0.2583  1.1888 -0.7522
   17CHTO   C34 7107   5.243   5.883   0.625  0.2996 -0.1386 -0.0441
   17CHTO   O23 7108   5.215   5.756   0.684  0.4263  0.1307  0.9826
   17CHTO   H38 7109   5.269   5.749   0.760 -0.1711 -0.4667  1.3583
   17CHTO   O16 7110   5.075   6.327   0.584 -0.0820 -0.3238 -0.4657
   17CHTO   C24 7111   5.119   6.387   0.716  0.1297  0.1224  0.1844
   17CHTO   H52 7112   5.145   6.314   0.792  0.8280  2.1302  1.9381
   17CHTO   C26 7113   5.010   6.480   0.768 -0.2126 -0.5890  0.1510
   17CHTO   H54 7114   4.993   6.560   0.693 -1.0955 -1.4835 -0.6283
   17CHTO   O20 7115   4.889   6.401   0.772 -0.4358 -0.3714 -0.3020
   17CHTO   H36 7116   4.836   6.445   0.837  0.4492 -0.9983  0.8626
   17CHTO   C30 7117   5.064   6.542   0.907 -0.2925 -0.7121  0.6749
   17CHTO   H58 7118   5.104   6.466   0.975 -0.9140 -1.8096 -0.1716
   17CHTO    N6 7119   4.959   6.632   0.970 -0.2728 -0.1571 -0.2289
   17CHTO   H45 7120   4.945   6.721   0.911 -0.6852 -0.1534 -0.1244
   17CHTO   H46 7121   4.864   6.581   0.972 -0.1758 -0.3784 -1.1466
   17CHTO   C33 7122   5.200   6.617   0.863  0.2329 -0.3286  0.0396
   17CHTO   H61 7123   5.179   6.690   0.783 -0.0410 -0.6760 -0.2065
   17CHTO   O18 7124   5.298   6.525   0.811  0.5825 -0.2748  0.0707
   17CHTO   C28 7125   5.257   6.463   0.686  0.3201  0.0554 -0.7136
   17CHTO   H56 7126   5.245   6.533   0.603  0.0864  0.4055 -0.3840
   17CHTO   C35 7127   5.367   6.364   0.645  0.2402 -0.0881 -0.5041
   17CHTO   O24 7128   5.481   6.439   0.602  0.0962 -0.2012 -0.3566
   17CHTO   H39 7129   5.536   6.481   0.665  1.2034 -1.7916 -0.2201
   17CHTO    O9 7130   5.253   6.701   0.973 -0.5294 -0.1851  0.1941
   17CHTO   C13 7131   5.333   6.838   0.923 -0.1017  0.3654  0.5032
   17CHTO   H26 7132   5.389   6.813   0.830  2.5464  0.4567  2.0133
   17CHTO   C11 7133   5.431   6.890   1.039 -0.0440 -0.0310  0.5012
   17CHTO   H24 7134   5.500   6.807   1.059 -1.0395 -1.6011 -2.2751
   17CHTO    O8 7135   5.359   6.915   1.159  0.4793 -0.0998  0.2932
   17CHTO    H3 7136   5.272   6.935   1.130  0.4173 -0.8140 -0.0129
   17CHTO    C9 7137   5.508   7.010   0.986 -0.4141 -0.0206  0.1135
   17CHTO   H22 7138   5.560   6.979   0.893 -0.0651 -1.1212  0.6691
   17CHTO    N2 7139   5.618   7.054   1.074 -0.0894 -0.2426  0.0047
   17CHTO   H10 7140   5.690   6.982   1.109 -0.4713  0.6032  2.6685
   17CHTO   H11 7141   5.674   7.134   1.028 -1.7559  0.8092 -0.2510
   17CHTO    C7 7142   5.403   7.115   0.953  0.1107 -0.8539 -0.7104
   17CHTO   H20 7143   5.458   7.196   0.901 -0.2054 -0.9176 -1.1498
   17CHTO    O4 7144   5.309   7.068   0.852 -0.2264 -0.3023 -0.0050
   17CHTO   C14 7145   5.237   6.949   0.879  0.9841  0.2162 -0.1306
   17CHTO   H27 7146   5.191   6.906   0.787  1.3205 -1.8648  0.6489
   17CHTO   C18 7147   5.112   6.981   0.976  0.3316  0.2534  0.0562
   17CHTO   O13 7148   5.011   7.052   0.900 -0.4774  0.3532  1.1043
   17CHTO    H7 7149   4.946   6.990   0.875 -0.9196  1.5035 -0.7111
   17CHTO    O2 7150   5.333   7.183   1.077 -0.3108  0.6396 -0.6391
   17CHTO    C1 7151   5.290   7.324   1.065 -0.2186  0.3329  0.4642
   17CHTO   H14 7152   5.223   7.332   0.977 -0.8767 -3.3360  0.5833
   17CHTO    C2 7153   5.409   7.427   1.051 -0.5486 -0.4416  0.4488
   17CHTO   H15 7154   5.484   7.386   1.120 -0.6349 -2.2957 -0.5271
   17CHTO    O6 7155   5.469   7.422   0.918 -0.3150 -0.0328 -0.1487
   17CHTO    H1 7156   5.551   7.466   0.921 -0.5270  0.4372 -0.9579
   17CHTO    C3 7157   5.376   7.583   1.078 -0.0702  0.2983 -0.7294
   17CHTO   H16 7158   5.307   7.614   0.997 -1.1758  0.6244  0.3258
   17CHTO    N1 7159   5.494   7.677   1.087 -0.6328  0.8232  0.2107
   17CHTO    H8 7160   5.452   7.770   1.125 -1.1425  1.3183 -1.5049
   17CHTO    H9 7161   5.557   7.636   1.165 -0.5289 -1.4919 -1.0588
   17CHTO    C4 7162   5.283   7.594   1.212 -0.3763  0.9317  0.1019
   17CHTO   H17 7163   5.340   7.570   1.302  0.7556  0.9682 -0.5996
   17CHTO    O1 7164   5.173   7.503   1.196  0.3752 -0.4080 -0.0916
   17CHTO    C5 7165   5.213   7.365   1.192  0.6878  1.2514  0.4395
   17CHTO   H18 7166   5.274   7.346   1.280  0.1491 -0.3782  0.4799
   17CHTO   C16 7167   5.084   7.276   1.200 -0.0129  0.3896  0.2386
   17CHTO   O11 7168   5.017   7.278   1.325  0.3043 -0.6512  0.7221
   17CHTO    H5 7169   4.957   7.211   1.349  0.9933 -2.0176 -1.2545
   17CHTO    O3 7170   5.232   7.726   1.237  0.2577 -0.3064 -0.6551
   17CHTO    C6 7171   5.179   7.757   1.368  0.2271 -0.0396  0.0506
   17CHTO   H19 7172   5.110   7.841   1.357 -1.8156 -1.4595  1.5539
   17CHTO    C8 7173   5.100   7.642   1.439  0.0928 -1.0328  0.1851
   17CHTO   H21 7174   5.160   7.552   1.438 -1.5226 -2.1431 -2.1470
   17CHTO    O7 7175   4.976   7.612   1.362 -0.3016 -0.1474 -0.0022
   17CHTO    H2 7176   4.957   7.524   1.387 -0.7477  0.2217  0.9569
   17CHTO   C12 7177   5.074   7.683   1.590  0.2550 -0.4876  0.3314
   17CHTO   H25 7178   5.014   7.775   1.576  1.0108  0.0703  0.6996
   17CHTO    N3 7179   4.982   7.583   1.660  0.4352  0.7381 -0.2239
   17CHTO   H12 7180   4.920   7.551   1.578  1.5313  1.4982 -1.3675
   17CHTO   H13 7181   5.041   7.499   1.695 -0.7705 -0.6227 -1.3787
   17CHTO   C15 7182   5.209   7.722   1.658  0.5985  0.7419 -0.0408
   17CHTO   H28 7183   5.278   7.638   1.666  0.2096  0.3710 -0.6156
   17CHTO   O10 7184   5.181   7.782   1.806 -1.0595 -0.0982  0.0609
   17CHTO    H4 7185   5.255   7.818   1.851 -0.4709  2.1197 -2.6023
   17CHTO    O5 7186   5.263   7.841   1.595  0.6488 -0.2924  0.3189
   17CHTO   C10 7187   5.297   7.811   1.457 -0.2383  0.0351  0.0928
   17CHTO   H23 7188   5.372   7.732   1.460  2.0562  2.1290 -0.6239
   17CHTO   C17 7189   5.366   7.928   1.398  0.5012 -0.3051 -0.8322
   17CHTO   O12 7190   5.290   8.049   1.409  0.1386 -0.4054  0.1698
   17CHTO    H6 7191   5.345   8.125   1.411 -0.4123  0.0410 -1.0747
   18CHTO  H203 7192   6.766   7.788   2.062  0.2902  0.7746  0.4721
   18CHTO   O82 7193   6.685   7.811   2.019  0.4159  0.2070 -0.0766
   18CHTO  C123 7194   6.707   7.843   1.880  1.1521 -0.2122  0.5677
   18CHTO  H227 7195   6.814   7.868   1.864  0.9743 -0.4684 -1.1503
   18CHTO   O77 7196   6.682   7.723   1.798 -0.2769  0.5413 -0.9685
   18CHTO  C118 7197   6.709   7.728   1.658 -0.5805 -0.4895 -0.1781
   18CHTO  H222 7198   6.816   7.744   1.643 -0.4232 -1.8561 -0.5756
   18CHTO  C125 7199   6.676   7.577   1.606 -0.5154 -0.0409  1.0281
   18CHTO   O84 7200   6.542   7.538   1.628  0.1033 -0.6263  0.2765
   18CHTO  H205 7201   6.527   7.524   1.720  1.2611  1.4459  0.8079
   18CHTO  C114 7202   6.619   7.838   1.596 -0.2356 -0.1676  0.2077
   18CHTO  H218 7203   6.517   7.814   1.625 -0.8810  0.0805 -1.8021
   18CHTO  C116 7204   6.629   7.982   1.668 -0.7298 -0.6533  0.3358
   18CHTO  H220 7205   6.732   8.014   1.642 -1.2865  0.1571 -0.9475
   18CHTO   O79 7206   6.534   8.067   1.610  0.2890  0.1415 -0.0726
   18CHTO  H201 7207   6.537   8.150   1.653 -1.7669  0.2650 -0.1364
   18CHTO  C120 7208   6.612   7.965   1.826  0.0086  0.3710  0.3119
   18CHTO  H224 7209   6.508   7.934   1.848  0.5171 -0.7131  1.2834
   18CHTO   N21 7210   6.631   8.090   1.900  0.0778  0.1040  0.2526
   18CHTO  H211 7211   6.574   8.090   1.992 -2.0411 -1.0135 -1.0266
   18CHTO  H212 7212   6.599   8.170   1.835  0.6547 -1.3113 -1.7929
   18CHTO   O75 7213   6.632   7.841   1.452  0.1283 -0.5216  0.4544
   18CHTO  C112 7214   6.769   7.857   1.376  0.0912  0.0992 -0.2560
   18CHTO  H216 7215   6.847   7.796   1.423 -0.3885  0.3416  0.8754
   18CHTO   O73 7216   6.799   7.999   1.374  0.2727  0.0040 -0.5349
   18CHTO  C113 7217   6.926   8.028   1.318 -0.6207  0.1299  0.0622
   18CHTO  H217 7218   7.010   7.963   1.352 -0.8397  0.1766  0.6969
   18CHTO  C124 7219   6.953   8.174   1.339  0.2948  0.0141  0.2978
   18CHTO   O83 7220   6.959   8.201   1.480 -0.3170  0.0371  0.4589
   18CHTO  H204 7221   6.908   8.279   1.494 -0.0722 -0.1057  2.3638
   18CHTO  C109 7222   6.914   8.003   1.167 -0.4986 -0.0844 -0.5609
   18CHTO  H213 7223   6.834   8.070   1.131 -0.8308 -1.1790 -1.9074
   18CHTO  C110 7224   6.869   7.858   1.137 -0.6285  0.2145  0.0425
   18CHTO  H214 7225   6.952   7.789   1.150  0.0378  0.7005 -1.5760
   18CHTO   O78 7226   6.837   7.860   0.992 -0.1338 -0.0593  0.1750
   18CHTO  H200 7227   6.801   7.944   0.971 -0.6705 -0.2321  0.3997
   18CHTO  C111 7228   6.751   7.823   1.227 -0.0883  0.2395 -0.0155
   18CHTO  H215 7229   6.667   7.887   1.198 -0.6108  0.5793  2.1776
   18CHTO   N19 7230   6.711   7.683   1.205 -0.8816  0.8100 -0.1841
   18CHTO  H207 7231   6.715   7.649   1.103  1.4082  1.9152 -0.4911
   18CHTO  H208 7232   6.613   7.669   1.249 -0.5901 -0.0590  0.2037
   18CHTO   O74 7233   7.039   8.035   1.098  0.3932 -0.0805 -0.2030
   18CHTO  C115 7234   7.022   8.110   0.951 -0.5442 -0.7524  0.5042
   18CHTO  H219 7235   6.954   8.052   0.889  0.0248 -1.1949  0.2791
   18CHTO   O76 7236   6.958   8.241   0.962 -0.0033  0.0444 -0.2326
   18CHTO  C122 7237   6.914   8.308   0.844  0.2102  0.0899  0.0282
   18CHTO  H226 7238   6.903   8.415   0.861 -1.0720  0.3098 -1.9868
   18CHTO  C126 7239   6.769   8.249   0.808  0.1032  0.1284  0.2311
   18CHTO   O85 7240   6.697   8.313   0.701 -0.7134 -0.3027  0.2193
   18CHTO  H206 7241   6.731   8.287   0.618 -0.4864  1.3625 -0.2185
   18CHTO  C121 7242   7.018   8.303   0.724 -0.2218 -0.3552 -0.4687
   18CHTO  H225 7243   6.966   8.298   0.626 -1.0080 -0.0455 -0.0656
   18CHTO   O81 7244   7.092   8.426   0.729 -0.4960  0.1541  0.2024
   18CHTO  H202 7245   7.033   8.499   0.729 -1.4538 -0.5919 -1.4473
   18CHTO  C119 7246   7.116   8.181   0.730 -0.1772 -0.2423  0.5228
   18CHTO  H223 7247   7.061   8.099   0.685  0.6724 -1.7974  2.2834
   18CHTO  C117 7248   7.158   8.134   0.876 -0.6333  0.2176 -0.1801
   18CHTO  H221 7249   7.208   8.212   0.933  0.8473 -0.9359  0.1050
   18CHTO   N20 7250   7.242   8.017   0.880  0.1240 -0.6669 -0.1951
   18CHTO  H209 7251   7.333   8.048   0.831  0.5888  0.7599  1.5280
   18CHTO  H210 7252   7.262   7.983   0.980  1.8351  1.0403  0.0730
   18CHTO   O80 7253   7.238   8.197   0.623 -0.4161 -0.1734 -0.0385
   18CHTO  C103 7254   7.245   8.096   0.480  0.1563 -0.1093  0.2467
   18CHTO  H190 7255   7.332   8.119   0.417  1.4493 -3.5364  0.6608
   18CHTO  C101 7256   7.246   7.933   0.502 -0.6329  0.2794 -0.4972
   18CHTO  H188 7257   7.161   7.894   0.558  0.1823  0.0523  0.6037
   18CHTO   O68 7258   7.374   7.891   0.562 -0.2950  0.5584 -0.1306
   18CHTO  H168 7259   7.445   7.930   0.515  0.5616  1.4852  1.8819
   18CHTO   C99 7260   7.226   7.853   0.361  0.0303  0.4303  0.0511
   18CHTO  H186 7261   7.296   7.888   0.282 -0.6711  0.0289 -0.7641
   18CHTO   N17 7262   7.235   7.701   0.367  0.0219 -0.0090  0.9114
   18CHTO  H174 7263   7.277   7.672   0.463 -0.3249 -0.5751  0.8933
   18CHTO  H175 7264   7.288   7.659   0.283 -0.8947  1.0269 -0.1959
   18CHTO   C97 7265   7.083   7.900   0.321  0.0852 -0.5258  0.0461
   18CHTO  H184 7266   7.015   7.881   0.405 -2.0313  1.1084 -1.2516
   18CHTO   O64 7267   7.099   8.041   0.291 -0.0399  0.1093  0.1963
   18CHTO  C104 7268   7.121   8.134   0.398 -0.7436  0.0514 -0.4117
   18CHTO  H191 7269   7.035   8.141   0.465 -0.7981  1.3578 -0.6083
   18CHTO  C108 7270   7.140   8.272   0.336 -0.2575 -0.6753 -0.0649
   18CHTO   O71 7271   7.021   8.344   0.309  0.1353 -0.4591 -0.1840
   18CHTO  H171 7272   7.033   8.434   0.332  1.8871 -0.4694 -1.0067
   18CHTO   O62 7273   7.030   7.840   0.202  0.4279 -0.5477 -0.1268
   18CHTO   C91 7274   6.886   7.846   0.188 -0.1840  0.1045  0.9686
   18CHTO  H178 7275   6.834   7.884   0.276 -0.4273 -1.3077  1.4552
   18CHTO   C92 7276   6.836   7.700   0.170  0.9090 -0.3580 -0.0674
   18CHTO  H179 7277   6.886   7.652   0.085  1.3341  2.7676 -1.6747
   18CHTO   O66 7278   6.873   7.633   0.290 -0.1421  0.1975 -0.5410
   18CHTO  H166 7279   6.877   7.540   0.284  0.4748  0.1052  0.9108
   18CHTO   C93 7280   6.676   7.691   0.158  0.2965  0.8324  0.7530
   18CHTO  H180 7281   6.633   7.732   0.251 -1.1681 -0.2239  0.5640
   18CHTO   N16 7282   6.625   7.551   0.145 -0.3654  0.5378  0.5780
   18CHTO  H172 7283   6.661   7.480   0.217 -1.0207  1.6315  1.9947
   18CHTO  H173 7284   6.606   7.521   0.043  2.0827 -0.6025  0.4317
   18CHTO   C94 7285   6.629   7.780   0.037  0.8397  0.3354  0.6708
   18CHTO  H181 7286   6.656   7.738  -0.059  1.2615  0.6535  0.6479
   18CHTO   O61 7287   6.696   7.911   0.044  0.4765  0.1054  0.1642
   18CHTO   C95 7288   6.838   7.922   0.061 -0.1862 -0.6623  0.6688
   18CHTO  H182 7289   6.889   7.871  -0.021  0.6494 -0.8337  1.2847
   18CHTO  C106 7290   6.875   8.071   0.068 -0.4311  0.6615  0.2020
   18CHTO   O69 7291   6.822   8.134   0.179  0.2886  0.6917 -0.1837
   18CHTO  H169 7292   6.823   8.227   0.185  3.6543  0.5267  4.0190
   18CHTO   O63 7293   6.452   7.799   0.033 -0.3380  0.6148  0.8098
   18CHTO   C96 7294   6.408   7.945   0.010  0.0791 -0.5479  0.0610
   18CHTO  H183 7295   6.479   7.992  -0.057 -1.4418  2.0605  0.2033
   18CHTO   C98 7296   6.385   8.030   0.144 -0.2983 -0.0141 -0.2143
   18CHTO  H185 7297   6.296   7.983   0.190 -0.3005  1.8721  1.8022
   18CHTO   O67 7298   6.495   8.035   0.235 -0.6844  0.3391  0.0358
   18CHTO  H167 7299   6.476   8.093   0.307 -0.5589  0.2140  0.1707
   18CHTO  C102 7300   6.348   8.179   0.113 -0.8955 -0.2875  0.1187
   18CHTO  H189 7301   6.442   8.226   0.079 -0.5009 -0.0125  1.5902
   18CHTO   N18 7302   6.304   8.260   0.224  0.0936 -0.2934  0.4397
   18CHTO  H176 7303   6.378   8.326   0.267 -0.6853  0.9531 -0.0694
   18CHTO  H177 7304   6.263   8.199   0.302 -0.4981  1.1202  1.2544
   18CHTO  C105 7305   6.250   8.188  -0.010 -0.1915 -0.4140 -0.2762
   18CHTO  H192 7306   6.146   8.179   0.023  0.6501  0.9093  2.9833
   18CHTO   O65 7307   6.271   8.099  -0.116 -0.2309  0.1827 -0.3551
   18CHTO  C100 7308   6.266   7.968  -0.063  0.2389 -0.1889 -0.8339
   18CHTO  H187 7309   6.178   7.963   0.003  1.3466  1.5176  0.8169
   18CHTO  C107 7310   6.248   7.872  -0.178 -0.0069 -0.4790  0.0286
   18CHTO   O70 7311   6.132   7.896  -0.252 -0.0275 -0.1007  0.0616
   18CHTO  H170 7312   6.057   7.843  -0.231 -0.9465  1.6363  1.2746
   18CHTO   O57 7313   6.286   8.349  -0.065  0.2392  0.2620  0.2254
   18CHTO   C85 7314   6.190   8.439  -0.118  0.4836  0.2484  0.3833
   18CHTO  H157 7315   6.246   8.523  -0.163  3.6339 -2.1317 -0.3274
   18CHTO   C83 7316   6.107   8.510  -0.006 -0.2925  0.3258 -0.1913
   18CHTO  H155 7317   6.177   8.560   0.061  0.1328 -1.9610  1.1441
   18CHTO   O56 7318   6.041   8.415   0.080  0.0168 -0.2880  0.4084
   18CHTO  H135 7319   6.091   8.342   0.112 -1.1988 -1.6222 -0.6919
   18CHTO   C81 7320   6.012   8.616  -0.068 -0.3827 -0.2216 -0.1409
   18CHTO  H153 7321   6.067   8.686  -0.131  2.4428 -0.2665  2.1189
   18CHTO   N14 7322   5.942   8.696   0.034  0.1861  0.1618  0.2423
   18CHTO  H141 7323   5.872   8.763  -0.012 -0.9760 -1.8682 -1.0760
   18CHTO  H142 7324   5.997   8.750   0.108 -0.3526  0.4723  0.4186
   18CHTO   C79 7325   5.913   8.540  -0.165 -0.6546  0.2389  0.2335
   18CHTO  H151 7326   5.857   8.613  -0.222 -2.1950 -0.6341  0.6050
   18CHTO   O52 7327   5.973   8.453  -0.259 -0.0744  0.2724  0.3272
   18CHTO   C86 7328   6.090   8.373  -0.220  0.2574  0.2370  0.2706
   18CHTO  H158 7329   6.046   8.275  -0.189  1.3620 -0.1485  0.6372
   18CHTO   C90 7330   6.168   8.337  -0.346  0.3034  0.5771 -0.5540
   18CHTO   O60 7331   6.242   8.448  -0.399  0.5251  0.2666 -0.3004
   18CHTO  H138 7332   6.317   8.464  -0.345  2.0352 -2.2245 -1.5565
   18CHTO   O50 7333   5.814   8.464  -0.089  0.4383  0.9074 -0.3554
   18CHTO   C73 7334   5.694   8.406  -0.139  0.0763  0.1524  0.4378
   18CHTO  H145 7335   5.713   8.356  -0.235  0.1010 -1.8424  1.4531
   18CHTO   C74 7336   5.587   8.523  -0.168  0.7025  0.4135 -0.4681
   18CHTO  H146 7337   5.634   8.586  -0.245 -0.6214  2.2435  0.1619
   18CHTO   O54 7338   5.473   8.465  -0.229 -0.5216 -0.0278  0.7226
   18CHTO  H133 7339   5.432   8.402  -0.172 -3.1434 -2.2570 -3.3530
   18CHTO   C75 7340   5.563   8.605  -0.033  0.3164 -0.5361 -0.2804
   18CHTO  H147 7341   5.657   8.659  -0.013 -0.4930  0.2089  1.6105
   18CHTO   N13 7342   5.471   8.721  -0.044 -0.5058 -0.0506 -0.4781
   18CHTO  H139 7343   5.369   8.691  -0.065 -1.1049  0.2937  1.7718
   18CHTO  H140 7344   5.513   8.788  -0.117  1.5601 -0.2343  0.4944
   18CHTO   C76 7345   5.530   8.502   0.084  0.2999  0.3946 -0.0382
   18CHTO  H148 7346   5.423   8.482   0.083  0.3594  0.0567  0.2047
   18CHTO   O49 7347   5.606   8.374   0.086 -0.2711 -0.5132  0.0437
   18CHTO   C77 7348   5.636   8.307  -0.039 -0.3194 -0.6995  0.4264
   18CHTO  H149 7349   5.539   8.274  -0.077 -1.5125  2.1856  0.8395
   18CHTO   C88 7350   5.731   8.184  -0.018 -0.0330  0.5522 -0.0493
   18CHTO   O58 7351   5.808   8.153  -0.136  1.0129  0.2751 -0.2496
   18CHTO  H136 7352   5.896   8.130  -0.116  0.9078  1.4538  1.6760
   18CHTO   O51 7353   5.575   8.570   0.210 -0.0241  0.1580 -0.2435
   18CHTO   C78 7354   5.557   8.497   0.340 -0.0585 -0.0820  0.0943
   18CHTO  H150 7355   5.545   8.392   0.305 -0.3554  0.3995 -1.2941
   18CHTO   C80 7356   5.433   8.544   0.416 -0.0553  0.6315  0.0156
   18CHTO  H152 7357   5.434   8.655   0.412 -2.4872  0.6379 -1.9784
   18CHTO   O55 7358   5.310   8.509   0.345  0.1738 -0.0566 -0.5989
   18CHTO  H134 7359   5.321   8.483   0.256 -1.2243  1.4105 -1.2299
   18CHTO   C84 7360   5.425   8.490   0.566 -0.0128  0.2704 -0.2842
   18CHTO  H156 7361   5.403   8.384   0.571 -1.1884  0.6083  3.1844
   18CHTO   N15 7362   5.321   8.564   0.643  0.3148  0.5756 -0.2056
   18CHTO  H143 7363   5.329   8.671   0.636  3.8990  0.2947 -1.4125
   18CHTO  H144 7364   5.308   8.531   0.744 -1.4452  0.2146 -0.5350
   18CHTO   C87 7365   5.558   8.511   0.631 -0.3662  0.9128 -0.1339
   18CHTO  H159 7366   5.574   8.618   0.646 -0.6851  1.0544 -0.7875
   18CHTO   O53 7367   5.668   8.443   0.541 -0.2564 -0.3573  0.3847
   18CHTO   C82 7368   5.688   8.514   0.418  0.1237  0.0418  0.5014
   18CHTO  H154 7369   5.711   8.618   0.440 -0.9928  0.7130 -1.4196
   18CHTO   C89 7370   5.811   8.446   0.347 -0.0504  0.0248  0.3281
   18CHTO   O59 7371   5.774   8.312   0.330 -0.3453 -0.0997  0.4989
   18CHTO  H137 7372   5.853   8.262   0.330 -0.7194 -0.7002  0.3439
   18CHTO   O45 7373   5.564   8.436   0.770 -0.6741  0.2221  0.6083
   18CHTO   C67 7374   5.698   8.448   0.834  0.5189  0.0111 -0.2658
   18CHTO  H124 7375   5.773   8.418   0.761 -0.5654 -2.5221 -0.3813
   18CHTO   C65 7376   5.725   8.597   0.878 -0.0010 -0.2139 -0.8389
   18CHTO  H122 7377   5.630   8.651   0.874 -1.7550 -3.1316  0.0650
   18CHTO   O44 7378   5.818   8.650   0.779 -0.4385  0.0022  0.2930
   18CHTO  H102 7379   5.868   8.719   0.819  0.5066 -1.4752  1.7270
   18CHTO   C63 7380   5.764   8.607   1.023 -0.3043 -0.3433  0.2323
   18CHTO  H120 7381   5.681   8.573   1.085 -0.2715 -1.7748 -0.4803
   18CHTO   N11 7382   5.784   8.745   1.068  0.3891 -0.3467 -0.3064
   18CHTO  H108 7383   5.782   8.763   1.174  1.1086  4.0850 -0.9688
   18CHTO  H109 7384   5.728   8.814   1.009 -0.0940  0.0775  0.6284
   18CHTO   C61 7385   5.887   8.509   1.046 -0.5542  0.3342 -0.3969
   18CHTO  H118 7386   5.917   8.521   1.152  3.0896 -2.2634 -1.0344
   18CHTO   O40 7387   5.842   8.371   1.031  0.4893  0.4166  0.1685
   18CHTO   C68 7388   5.717   8.342   0.954 -0.1492  0.2445 -0.1357
   18CHTO  H125 7389   5.638   8.357   1.030 -0.7359 -2.4829 -0.1642
   18CHTO   C72 7390   5.719   8.189   0.907 -0.3787 -0.5447  0.1260
   18CHTO   O48 7391   5.742   8.087   1.002  0.3213  0.0342  0.1822
   18CHTO  H105 7392   5.807   8.022   0.985 -0.8643 -0.9067 -0.8641
   18CHTO   O38 7393   6.002   8.546   0.967 -0.0795  0.7214  0.6968
   18CHTO   C55 7394   6.124   8.478   1.002  0.6693  0.0972  0.5624
   18CHTO  H112 7395   6.110   8.384   1.058  1.0282  0.3849  1.1432
   18CHTO   C56 7396   6.218   8.577   1.076  0.5904  0.1580 -0.1517
   18CHTO  H113 7397   6.227   8.662   1.006  0.6201  0.6416  0.4331
   18CHTO   O42 7398   6.151   8.637   1.189  0.2603  0.2195 -0.3691
   18CHTO  H100 7399   6.218   8.652   1.253 -0.4079  0.3843  0.2989
   18CHTO   C57 7400   6.360   8.506   1.110  0.8290 -0.8756  0.1238
   18CHTO  H114 7401   6.327   8.434   1.185  0.1485 -0.5100  0.1853
   18CHTO   N10 7402   6.460   8.598   1.176 -0.2932 -0.3909  0.5791
   18CHTO  H106 7403   6.518   8.538   1.245  0.0612 -0.2686  0.3876
   18CHTO  H107 7404   6.528   8.639   1.103  0.1156 -1.6924  0.2145
   18CHTO   C58 7405   6.414   8.432   0.987 -0.5890  0.1256 -0.5407
   18CHTO  H115 7406   6.471   8.505   0.926 -0.9133  1.5695  0.8176
   18CHTO   O37 7407   6.313   8.371   0.907 -0.4770 -0.3576  0.0873
   18CHTO   C59 7408   6.190   8.438   0.876 -0.7535  0.5315  0.2313
   18CHTO  H116 7409   6.199   8.519   0.804 -0.8392  0.1147 -0.2496
   18CHTO   C70 7410   6.101   8.339   0.795 -0.8161  0.2317 -0.4948
   18CHTO   O46 7411   6.091   8.211   0.854  0.0095  0.1042 -0.6713
   18CHTO  H103 7412   6.007   8.171   0.844  0.5515 -0.8175 -1.6149
   18CHTO   O39 7413   6.522   8.302   1.028 -0.2917 -0.2241 -0.1644
   18CHTO   C60 7414   6.452   8.194   1.092  0.1964  0.1749  0.6566
   18CHTO  H117 7415   6.363   8.240   1.133  0.2673  0.5717  0.3644
   18CHTO   C62 7416   6.414   8.073   0.999  0.1971 -0.3133 -0.0780
   18CHTO  H119 7417   6.356   8.112   0.913  0.4125 -0.6026 -0.3525
   18CHTO   O43 7418   6.532   8.004   0.951 -0.3073 -0.0516 -0.2645
   18CHTO  H101 7419   6.570   8.057   0.884  1.4860 -0.6452  0.2624
   18CHTO   C66 7420   6.308   7.987   1.089 -0.2192 -0.7681  0.1899
   18CHTO  H123 7421   6.237   8.057   1.133 -0.0974 -1.6066  1.7498
   18CHTO   N12 7422   6.231   7.902   0.999 -0.6209 -0.8041 -0.0267
   18CHTO  H110 7423   6.155   7.959   0.947 -1.2303 -1.2383  0.3720
   18CHTO  H111 7424   6.186   7.818   1.051  0.3857 -3.0591 -2.6983
   18CHTO   C69 7425   6.385   7.911   1.199 -0.0899  0.0115 -0.2676
   18CHTO  H126 7426   6.451   7.838   1.148 -1.3572 -1.2986 -0.0410
   18CHTO   O41 7427   6.489   8.022   1.283 -0.3525 -0.2061  0.4440
   18CHTO   C64 7428   6.535   8.146   1.214  0.0767  0.1823 -0.0885
   18CHTO  H121 7429   6.640   8.129   1.182  0.4342  3.7136 -1.0499
   18CHTO   C71 7430   6.544   8.263   1.316 -0.3893  0.2356  0.3330
   18CHTO   O47 7431   6.642   8.245   1.415 -0.6806  0.1712  0.0361
   18CHTO  H104 7432   6.711   8.307   1.430  0.0333 -0.5289 -0.2944
   18CHTO   O34 7433   6.289   7.837   1.298 -0.1308  0.1231 -0.4038
   18CHTO   C49 7434   6.207   7.880   1.413  0.1343  0.1078 -0.7160
   18CHTO   H91 7435   6.267   7.853   1.500  2.1292 -0.9346 -2.3642
   18CHTO   C47 7436   6.079   7.796   1.414 -0.0568  0.6367 -0.3186
   18CHTO   H89 7437   6.026   7.831   1.506  0.6039  0.7483  0.0273
   18CHTO   O33 7438   6.114   7.659   1.430  0.5888  0.1739 -1.0033
   18CHTO   H70 7439   6.117   7.634   1.520  0.0362  2.8163 -0.1969
   18CHTO   C45 7440   5.985   7.837   1.286  0.7061  0.5640  0.4410
   18CHTO   H87 7441   6.048   7.820   1.197  0.9005  1.0916  0.4780
   18CHTO    N8 7442   5.856   7.764   1.278  0.1450  0.3359 -0.1780
   18CHTO   H75 7443   5.836   7.744   1.173 -1.2626  0.5528  0.0336
   18CHTO   H76 7444   5.842   7.681   1.346  1.4637  0.3411  0.1058
   18CHTO   C43 7445   5.955   7.997   1.300 -0.2599 -0.4126 -0.0355
   18CHTO   H85 7446   5.907   8.022   1.206  1.9074  3.2715 -0.2540
   18CHTO   O29 7447   6.076   8.074   1.319 -0.2491 -0.3657  0.3868
   18CHTO   C50 7448   6.174   8.032   1.415  0.5746 -0.6897  0.2030
   18CHTO   H92 7449   6.263   8.086   1.382  0.2715  0.1658  0.7731
   18CHTO   C54 7450   6.155   8.094   1.549 -0.2266  0.0610 -0.0101
   18CHTO   O36 7451   6.054   8.031   1.627  0.1380 -0.4382 -0.6580
   18CHTO   H72 7452   6.093   7.996   1.705 -0.5762 -0.1199 -0.1599
   18CHTO   O27 7453   5.864   8.033   1.395  0.1630  0.2205 -0.2393
   18CHTO   C37 7454   5.804   8.144   1.459 -0.9476  0.1011 -0.3397
   18CHTO   H79 7455   5.874   8.196   1.526  1.1681 -0.9975 -1.6710
   18CHTO   C38 7456   5.761   8.261   1.357 -0.3299  0.2173 -0.5019
   18CHTO   H80 7457   5.707   8.217   1.272 -1.9682 -2.1567  1.6950
   18CHTO   O31 7458   5.895   8.305   1.305  0.6452 -0.0675 -0.3865
   18CHTO   H68 7459   5.885   8.345   1.221  0.7972  3.4022  1.1422
   18CHTO   C39 7460   5.678   8.373   1.429 -0.2291 -0.7932 -0.0223
   18CHTO   H81 7461   5.738   8.424   1.504  0.2544 -2.5385  0.8007
   18CHTO    N7 7462   5.624   8.471   1.337  0.3775  0.0515  0.3094
   18CHTO   H73 7463   5.568   8.430   1.254 -0.7313  0.4267  0.8609
   18CHTO   H74 7464   5.545   8.530   1.380 -2.1451 -3.3658  0.5351
   18CHTO   C40 7465   5.558   8.307   1.510  0.5535  0.1297 -0.3122
   18CHTO   H82 7466   5.489   8.263   1.437 -0.3613  1.2732 -0.1445
   18CHTO   O26 7467   5.602   8.210   1.610  0.1952  0.1065 -0.8692
   18CHTO   C41 7468   5.680   8.099   1.549  0.2581  0.1181  0.2313
   18CHTO   H83 7469   5.611   8.043   1.484 -0.2469 -0.1263  0.9654
   18CHTO   C52 7470   5.719   7.997   1.661  0.4690 -0.1912  0.1868
   18CHTO   O35 7471   5.591   7.928   1.718 -0.3608 -0.3717 -0.4820
   18CHTO   H71 7472   5.540   7.992   1.765  3.3222  0.6959  2.2253
   18CHTO   O28 7473   5.487   8.399   1.592 -0.3233 -0.5283 -0.2654
   18CHTO   C42 7474   5.340   8.392   1.622 -0.0726 -0.1558 -0.3372
   18CHTO   H84 7475   5.319   8.477   1.687 -0.6868 -0.7210  0.2145
   18CHTO   C44 7476   5.288   8.268   1.708  0.1306 -0.0533 -0.0895
   18CHTO   H86 7477   5.303   8.178   1.647  0.6273  1.0728 -1.6834
   18CHTO   O32 7478   5.374   8.276   1.826 -0.2384  0.7235  0.1928
   18CHTO   H69 7479   5.343   8.224   1.898 -0.0255  0.2228 -0.0705
   18CHTO   C48 7480   5.136   8.272   1.733 -0.1837  0.2941 -0.2541
   18CHTO   H90 7481   5.116   8.357   1.798  1.0347 -0.7458  1.5097
   18CHTO    N9 7482   5.088   8.147   1.792 -0.3147  0.8647 -0.8437
   18CHTO   H77 7483   5.161   8.067   1.796 -1.5566 -0.3358 -1.6862
   18CHTO   H78 7484   4.992   8.122   1.749 -0.8045 -1.1488  1.3047
   18CHTO   C51 7485   5.060   8.290   1.594  0.1049 -0.5937  0.3309
   18CHTO   H93 7486   5.092   8.210   1.527  1.7398  0.6910 -0.4737
   18CHTO   O30 7487   5.105   8.421   1.544  0.5482 -0.0993  0.1236
   18CHTO   C46 7488   5.246   8.403   1.495  0.0980 -0.6766  0.1180
   18CHTO   H88 7489   5.262   8.318   1.428 -1.4365  0.5766 -1.8650
   18CHTO   C53 7490   5.275   8.534   1.418  0.4894  0.7084 -0.5799
   18CHTO   O72 7491   5.190   8.552   1.308  0.3661  0.0724 -0.1282
   18CHTO  H199 7492   5.228   8.595   1.233  0.8748  0.9512  0.6200
   18CHTO   O22 7493   4.922   8.307   1.599 -0.1269  0.0369  0.5509
   18CHTO   C31 7494   4.829   8.272   1.486 -0.0256  0.0851  0.3069
   18CHTO   H59 7495   4.734   8.243   1.535 -0.5261 -0.8547 -1.1684
   18CHTO   C29 7496   4.794   8.396   1.392  0.4550 -0.2778 -0.7482
   18CHTO   H57 7497   4.892   8.444   1.384  0.4396  0.1455  1.3248
   18CHTO   O21 7498   4.716   8.493   1.463  0.7374  0.3755 -0.0370
   18CHTO   H37 7499   4.728   8.575   1.419  1.4352 -0.4561 -1.4327
   18CHTO   C27 7500   4.748   8.361   1.250 -0.0648  0.2302  0.2606
   18CHTO   H55 7501   4.643   8.330   1.258 -0.5077  2.0818  2.0988
   18CHTO    N5 7502   4.756   8.478   1.160  0.0903  0.2125  0.1861
   18CHTO   H43 7503   4.653   8.503   1.142  0.0530 -0.0691  0.0162
   18CHTO   H44 7504   4.796   8.561   1.217  0.8213 -0.3843  0.5512
   18CHTO   C25 7505   4.813   8.228   1.196  0.1262  0.0535  0.3478
   18CHTO   H53 7506   4.918   8.255   1.175 -0.9376  2.5436 -2.0844
   18CHTO   O17 7507   4.797   8.126   1.293 -0.0652 -0.7192  0.3300
   18CHTO   C32 7508   4.876   8.149   1.409 -0.8433 -0.0153 -0.2360
   18CHTO   H60 7509   4.981   8.156   1.380 -0.8451  0.6112 -0.0919
   18CHTO   C36 7510   4.870   8.024   1.502  0.5083  0.7287 -0.1244
   18CHTO   O25 7511   4.900   7.907   1.433 -0.5195 -0.6321 -0.1388
   18CHTO   H40 7512   4.847   7.916   1.356 -0.7735 -0.6806  0.0291
   18CHTO   O15 7513   4.756   8.169   1.063  0.7004 -0.3252 -0.1506
   18CHTO   C19 7514   4.831   8.140   0.936 -0.2624  0.5212  0.1269
   18CHTO   H47 7515   4.770   8.068   0.880  1.4233 -0.4144 -0.5532
   18CHTO   C20 7516   4.855   8.264   0.844 -0.0434 -0.7832 -0.0737
   18CHTO   H48 7517   4.911   8.343   0.897 -2.3637  0.2705  0.8676
   18CHTO   O19 7518   4.729   8.326   0.821  0.1112  0.6976  0.3433
   18CHTO   H35 7519   4.679   8.258   0.780  0.3517  0.7812 -0.0978
   18CHTO   C21 7520   4.935   8.223   0.713  0.3991 -0.9793 -0.0289
   18CHTO   H49 7521   4.879   8.155   0.649 -0.3567 -1.6415  1.2962
   18CHTO    N4 7522   4.959   8.341   0.622 -0.9579  0.2680  0.7196
   18CHTO   H41 7523   4.888   8.421   0.636 -0.5579  0.7135  0.2368
   18CHTO   H42 7524   5.059   8.380   0.635 -0.8314  0.0316  0.4559
   18CHTO   C22 7525   5.068   8.149   0.751 -0.7855  0.3086 -0.2212
   18CHTO   H50 7526   5.147   8.215   0.786  0.3472  0.1577 -2.3997
   18CHTO   O14 7527   5.046   8.044   0.852  0.2958  0.5410  0.1387
   18CHTO   C23 7528   4.963   8.067   0.969  0.0107 -0.2033  0.3701
   18CHTO   H51 7529   5.026   8.129   1.034 -0.9758 -0.8067  1.9499
   18CHTO   C34 7530   4.924   7.936   1.042 -0.0744 -0.0391 -0.1376
   18CHTO   O23 7531   5.042   7.885   1.101 -0.3152  0.2558  0.0480
   18CHTO   H38 7532   5.094   7.957   1.132 -0.8836  0.2282  1.0815
   18CHTO   O16 7533   5.120   8.072   0.646 -0.1712 -0.0987 -0.1480
   18CHTO   C24 7534   5.273   8.087   0.609  0.1965  0.4797  0.0130
   18CHTO   H52 7535   5.320   8.176   0.651  0.7682  0.5420 -0.7590
   18CHTO   C26 7536   5.287   8.110   0.456 -0.2000  0.4355 -0.0313
   18CHTO   H54 7537   5.236   8.026   0.403  0.3501  0.5111 -0.6808
   18CHTO   O20 7538   5.224   8.234   0.422 -0.0700  0.3557 -0.2095
   18CHTO   H36 7539   5.233   8.249   0.329 -1.5002 -0.8048 -0.5501
   18CHTO   C30 7540   5.435   8.105   0.407 -0.3476  0.3198 -0.4969
   18CHTO   H58 7541   5.487   8.196   0.439  1.9063 -1.6259  1.5795
   18CHTO    N6 7542   5.445   8.107   0.260 -0.6766 -0.3423  0.0842
   18CHTO   H45 7543   5.360   8.165   0.228 -0.3230 -0.0073 -0.2483
   18CHTO   H46 7544   5.533   8.163   0.230 -0.5399 -0.4155  0.3457
   18CHTO   C33 7545   5.517   7.988   0.474 -0.2084  0.2923 -0.1640
   18CHTO   H61 7546   5.475   7.894   0.436  0.6385  0.0734 -0.5631
   18CHTO   O18 7547   5.499   8.001   0.616 -0.4274  0.0644 -0.2945
   18CHTO   C28 7548   5.362   7.966   0.655 -0.2007 -0.1003 -0.5591
   18CHTO   H56 7549   5.330   7.878   0.599 -2.0340 -0.2725  0.6981
   18CHTO   C35 7550   5.350   7.962   0.814  0.4989 -0.1941  0.2245
   18CHTO   O24 7551   5.360   7.828   0.864  0.1983 -0.4182  0.2948
   18CHTO   H39 7552   5.430   7.781   0.823  0.1948 -0.8776  0.8259
   18CHTO    O9 7553   5.661   7.986   0.442  0.3953  0.2102  0.2079
   18CHTO   C13 7554   5.732   7.841   0.474  0.3119 -0.3794  0.5735
   18CHTO   H26 7555   5.657   7.764   0.446 -2.3246  2.2854  0.0977
   18CHTO   C11 7556   5.774   7.829   0.627 -0.0086  0.4726  0.3173
   18CHTO   H24 7557   5.683   7.818   0.688 -1.4638 -0.3189 -1.9328
   18CHTO    O8 7558   5.862   7.937   0.676 -0.2942 -0.1126  0.0738
   18CHTO    H3 7559   5.917   7.974   0.609 -0.6719  0.2721 -0.0215
   18CHTO    C9 7560   5.833   7.687   0.630  0.5332 -0.0033  0.2493
   18CHTO   H22 7561   5.759   7.617   0.589 -0.5122  1.1838  0.1164
   18CHTO    N2 7562   5.847   7.636   0.769 -0.1300 -0.0841 -0.4471
   18CHTO   H10 7563   5.770   7.681   0.829  1.6252 -0.1889  1.9538
   18CHTO   H11 7564   5.939   7.674   0.810 -1.1086  1.2714  0.5415
   18CHTO    C7 7565   5.966   7.673   0.546 -0.6712  0.3563 -0.5619
   18CHTO   H20 7566   5.991   7.565   0.553 -1.0406  0.3065  0.0535
   18CHTO    O4 7567   5.942   7.710   0.405  0.7520 -0.2057 -0.4919
   18CHTO   C14 7568   5.858   7.824   0.376  0.0278  0.3012  0.6602
   18CHTO   H27 7569   5.821   7.801   0.274 -0.9256 -1.2130  1.3275
   18CHTO   C18 7570   5.945   7.952   0.360  0.1579  0.0659 -1.0219
   18CHTO   O13 7571   6.029   7.953   0.247  0.5115 -0.1041  0.1226
   18CHTO    H7 7572   6.075   8.034   0.237 -0.3518  0.2804 -0.8122
   18CHTO    O2 7573   6.106   7.751   0.607  0.1673  0.3660  0.3258
   18CHTO    C1 7574   6.221   7.735   0.528  0.2708 -0.1839  0.6748
   18CHTO   H14 7575   6.205   7.780   0.428  1.7243  1.0465  0.9694
   18CHTO    C2 7576   6.267   7.582   0.507 -0.6521  0.4314 -1.0285
   18CHTO   H15 7577   6.243   7.525   0.598  0.2480 -1.2148 -1.7970
   18CHTO    O6 7578   6.198   7.527   0.399 -0.5243 -0.2097 -0.2149
   18CHTO    H1 7579   6.181   7.436   0.415  0.0213 -0.0903  1.0972
   18CHTO    C3 7580   6.425   7.582   0.479  0.2408  0.0876 -0.1815
   18CHTO   H16 7581   6.435   7.615   0.374  0.2130 -0.4460 -0.3528
   18CHTO    N1 7582   6.470   7.437   0.487  0.0633  0.5776  0.3360
   18CHTO    H8 7583   6.477   7.401   0.386 -0.1291 -0.8784  0.8163
   18CHTO    H9 7584   6.403   7.377   0.547 -0.4380  0.4662 -0.3406
   18CHTO    C4 7585   6.508   7.685   0.564 -0.0414 -0.3713 -0.6824
   18CHTO   H17 7586   6.481   7.664   0.668  2.3118 -2.2604 -0.3860
   18CHTO    O1 7587   6.460   7.819   0.540 -0.5520  0.2232 -0.4185
   18CHTO    C5 7588   6.327   7.829   0.598  0.3248  0.1391  0.2346
   18CHTO   H18 7589   6.324   7.812   0.706 -1.2451  1.7714  0.4846
   18CHTO   C16 7590   6.287   7.975   0.584  0.3293  0.2022  0.3226
   18CHTO   O11 7591   6.351   8.065   0.679 -0.0495  0.0243  0.5309
   18CHTO    H5 7592   6.317   8.050   0.765  1.3872  0.6755  1.2129
   18CHTO    O3 7593   6.648   7.678   0.549  0.1185  0.4433  0.2852
   18CHTO    C6 7594   6.733   7.681   0.670 -0.1215 -0.7780 -0.3530
   18CHTO   H19 7595   6.687   7.719   0.762 -0.5402 -3.1777  0.4456
   18CHTO    C8 7596   6.792   7.545   0.713  0.3776 -0.2641  0.4502
   18CHTO   H21 7597   6.846   7.502   0.629 -0.6025  1.4946 -1.1076
   18CHTO    O7 7598   6.681   7.464   0.758 -0.2295  0.3558 -0.5596
   18CHTO    H2 7599   6.713   7.388   0.803 -2.0131  2.0950  3.9061
   18CHTO   C12 7600   6.895   7.552   0.833 -0.5109 -0.8584  0.0790
   18CHTO   H25 7601   6.841   7.590   0.922 -0.4507 -2.2605  0.7263
   18CHTO    N3 7602   6.955   7.421   0.875  0.0799 -0.0954 -0.2821
   18CHTO   H12 7603   7.016   7.427   0.964 -0.9465  0.1288  0.4136
   18CHTO   H13 7604   7.026   7.386   0.801  1.4209  0.1053  0.8844
   18CHTO   C15 7605   7.010   7.656   0.786  0.4851  0.3821  0.0557
   18CHTO   H28 7606   7.074   7.623   0.704 -0.2165 -4.3610  1.2901
   18CHTO   O10 7607   7.091   7.705   0.887  0.0053 -0.2456 -0.5144
   18CHTO    H4 7608   7.126   7.632   0.934 -0.1467  1.1855  1.9514
   18CHTO    O5 7609   6.948   7.778   0.744  0.0687  0.1217  0.0052
   18CHTO   C10 7610   6.847   7.780   0.638  0.7305 -0.4360 -0.0437
   18CHTO   H23 7611   6.880   7.748   0.539  0.0178  1.8538 -1.0666
   18CHTO   C17 7612   6.797   7.927   0.619  0.7445 -0.4501 -0.1769
   18CHTO   O12 7613   6.730   7.975   0.500  0.9449 -0.3032 -0.2757
   18CHTO    H6 7614   6.665   8.037   0.527  0.8481 -1.2412  1.7185
   19CHTO  H203 7615   5.380   9.514   2.570 -2.5797 -0.0718 -1.2418
   19CHTO   O82 7616   5.447   9.480   2.514 -1.0101 -0.2944  0.7307
   19CHTO  C123 7617   5.414   9.373   2.427 -0.5249 -0.1586  0.3695
   19CHTO  H227 7618   5.335   9.409   2.360  0.9189 -0.3649 -1.4787
   19CHTO   O77 7619   5.536   9.348   2.354 -0.0357  0.0471  0.1392
   19CHTO  C118 7620   5.528   9.245   2.260 -0.0132 -0.3426 -0.4952
   19CHTO  H222 7621   5.444   9.250   2.188 -2.5779  1.2868  2.4574
   19CHTO  C125 7622   5.667   9.249   2.174  0.8147 -0.0709 -0.2324
   19CHTO   O84 7623   5.784   9.196   2.230  0.1396 -0.2464  0.3162
   19CHTO  H205 7624   5.809   9.236   2.311  0.3620 -1.2972  0.7694
   19CHTO  C114 7625   5.509   9.116   2.337 -0.2885  0.2511 -0.0104
   19CHTO  H218 7626   5.598   9.090   2.394  0.2326 -0.2543 -1.0438
   19CHTO  C116 7627   5.371   9.125   2.419 -0.1863 -0.2366  0.2047
   19CHTO  H220 7628   5.285   9.117   2.349  0.0824  0.1280 -0.1684
   19CHTO   O79 7629   5.349   9.002   2.496 -0.4909  0.3233  0.0255
   19CHTO  H201 7630   5.426   8.972   2.540 -0.3271 -0.3958 -0.7411
   19CHTO  C120 7631   5.363   9.249   2.509  0.1912  0.5590  0.4749
   19CHTO  H224 7632   5.431   9.242   2.596  0.4815 -0.7620  0.1538
   19CHTO   N21 7633   5.226   9.282   2.561 -0.0711  0.8853  0.1118
   19CHTO  H211 7634   5.173   9.341   2.489  1.7000  0.6459 -1.4176
   19CHTO  H212 7635   5.234   9.344   2.649  1.9489  0.8738 -0.0357
   19CHTO   O75 7636   5.500   9.012   2.238  0.4427 -0.1619 -0.0392
   19CHTO  C112 7637   5.568   8.860   2.285 -0.3579  0.0285  0.4901
   19CHTO  H216 7638   5.529   8.841   2.386 -0.6383  0.0853  0.3920
   19CHTO   O73 7639   5.714   8.874   2.284  0.4554 -0.0566  0.1884
   19CHTO  C113 7640   5.779   8.753   2.317 -0.0385 -0.4042 -0.1791
   19CHTO  H217 7641   5.746   8.735   2.421  0.1645 -0.4072 -0.1153
   19CHTO  C124 7642   5.927   8.781   2.317  0.7146  0.2506 -0.0076
   19CHTO   O83 7643   5.990   8.665   2.361 -0.1064  0.3601 -0.5346
   19CHTO  H204 7644   6.082   8.676   2.371 -0.4569  3.4160 -0.3168
   19CHTO  C109 7645   5.735   8.633   2.219 -0.5987  0.3966  0.0037
   19CHTO  H213 7646   5.772   8.662   2.119 -1.0273  0.1770 -0.2191
   19CHTO  C110 7647   5.579   8.613   2.221  0.1644  0.1508 -0.0001
   19CHTO  H214 7648   5.546   8.587   2.321 -0.7463  0.8990 -0.0971
   19CHTO   O78 7649   5.548   8.510   2.123 -0.3163 -0.2026  0.2282
   19CHTO  H200 7650   5.481   8.453   2.155  1.8851 -1.4679  2.8167
   19CHTO  C111 7651   5.513   8.749   2.189 -0.7362 -0.3824 -0.2686
   19CHTO  H215 7652   5.543   8.778   2.087 -2.4005  0.1161 -0.6300
   19CHTO   N19 7653   5.364   8.746   2.186 -0.1910  0.4309  0.1213
   19CHTO  H207 7654   5.340   8.684   2.101 -0.3285 -0.2900  0.6864
   19CHTO  H208 7655   5.324   8.696   2.273 -2.1757 -0.3615 -1.1926
   19CHTO   O74 7656   5.796   8.508   2.259  0.0538  0.8302 -0.3216
   19CHTO  C115 7657   5.843   8.419   2.149 -0.4397  0.4398  0.3796
   19CHTO  H219 7658   5.760   8.395   2.083 -1.0786 -1.4706  1.8079
   19CHTO   O76 7659   5.966   8.487   2.063  0.1947  0.0142 -0.4106
   19CHTO  C122 7660   6.017   8.409   1.955 -0.2699 -0.0323  0.4494
   19CHTO  H226 7661   6.105   8.465   1.924  0.0504 -0.8260 -0.1102
   19CHTO  C126 7662   5.917   8.419   1.831 -0.3609 -0.2437  0.6544
   19CHTO   O85 7663   5.806   8.333   1.838 -0.3881 -0.3423 -0.1672
   19CHTO  H206 7664   5.832   8.243   1.844  1.7221  0.3073  1.0112
   19CHTO  C121 7665   6.060   8.264   2.003  0.3780 -0.7608  0.2949
   19CHTO  H225 7666   6.086   8.203   1.914  1.0190  0.2501 -0.2282
   19CHTO   O81 7667   6.181   8.273   2.077 -0.3788 -0.5607  0.4794
   19CHTO  H202 7668   6.201   8.186   2.106  0.6533 -0.5895 -0.2847
   19CHTO  C119 7669   5.946   8.194   2.089 -0.0153  0.4768 -0.3238
   19CHTO  H223 7670   5.860   8.181   2.023  0.6370  0.0363 -1.0947
   19CHTO  C117 7671   5.897   8.283   2.208 -0.3982 -0.7185  0.8063
   19CHTO  H221 7672   5.975   8.314   2.277  0.2306 -0.0406 -0.1974
   19CHTO   N20 7673   5.798   8.205   2.288 -0.0598  0.4794 -0.1674
   19CHTO  H209 7674   5.849   8.142   2.360 -0.5216  1.6373  1.1982
   19CHTO  H210 7675   5.732   8.150   2.222  0.8501 -0.3694 -0.3968
   19CHTO   O80 7676   5.992   8.032   2.116  0.5276 -0.5418  0.0519
   19CHTO  C103 7677   6.009   7.933   1.984 -1.3227 -0.3232 -1.2622
   19CHTO  H190 7678   5.965   7.982   1.898 -2.1221  0.4975 -0.3902
   19CHTO  C101 7679   6.163   7.898   1.950 -0.2629  0.1196 -0.6703
   19CHTO  H188 7680   6.206   7.859   2.042 -0.1090  0.1601 -0.7254
   19CHTO   O68 7681   6.248   8.027   1.904  0.3435 -0.4548  0.2986
   19CHTO  H168 7682   6.205   8.084   1.844  2.4004  1.3815  0.4999
   19CHTO   C99 7683   6.168   7.787   1.835  0.0862  0.4840  0.2176
   19CHTO  H186 7684   6.127   7.840   1.746 -0.7603 -1.2553 -0.4467
   19CHTO   N17 7685   6.307   7.727   1.802 -0.5154  0.3451 -0.7757
   19CHTO  H174 7686   6.352   7.685   1.891  0.2748  0.0306 -1.3143
   19CHTO  H175 7687   6.300   7.664   1.714 -0.2328 -3.2803  1.7121
   19CHTO   C97 7688   6.059   7.674   1.859  0.4083 -0.0658  0.2468
   19CHTO  H184 7689   6.095   7.606   1.938 -2.1029 -1.7197  0.0203
   19CHTO   O64 7690   5.929   7.728   1.887  0.2949  0.0065 -0.1048
   19CHTO  C104 7691   5.929   7.801   2.010 -0.4091 -0.5481 -0.1523
   19CHTO  H191 7692   5.977   7.750   2.093  1.4040  1.1715 -0.0771
   19CHTO  C108 7693   5.784   7.833   2.051  0.0024 -0.7666  0.0559
   19CHTO   O71 7694   5.726   7.718   2.117  0.1366 -0.0848 -0.6981
   19CHTO  H171 7695   5.642   7.744   2.149  0.0930 -0.7821 -0.2400
   19CHTO   O62 7696   6.036   7.602   1.731  0.0470  0.2895 -0.2428
   19CHTO   C91 7697   5.952   7.482   1.742  0.1165  0.1419  0.1203
   19CHTO  H178 7698   5.901   7.482   1.839  1.2238 -1.2155  0.7232
   19CHTO   C92 7699   6.031   7.358   1.734 -0.6703  0.0755 -0.0756
   19CHTO  H179 7700   6.085   7.375   1.640 -1.5257 -1.5266 -0.8758
   19CHTO   O66 7701   6.130   7.342   1.839  0.3751 -0.4280  0.2736
   19CHTO  H166 7702   6.087   7.304   1.913  1.2239 -0.5365  0.7140
   19CHTO   C93 7703   5.949   7.224   1.714 -0.0326 -0.1438 -0.3092
   19CHTO  H180 7704   5.902   7.203   1.812  1.7358  0.5509  0.6993
   19CHTO   N16 7705   6.031   7.105   1.685 -0.1340  0.3147 -0.2307
   19CHTO  H172 7706   6.128   7.126   1.643  0.1760  0.4640  0.5565
   19CHTO  H173 7707   6.027   7.030   1.763  0.9538 -0.9999 -1.4139
   19CHTO   C94 7708   5.835   7.239   1.606  0.7982 -1.0240 -0.1231
   19CHTO  H181 7709   5.876   7.249   1.506  0.7270 -1.1832 -0.1697
   19CHTO   O61 7710   5.762   7.361   1.630 -0.3077  0.2758 -0.1281
   19CHTO   C95 7711   5.836   7.479   1.629 -0.2709 -0.2750 -0.5518
   19CHTO  H182 7712   5.892   7.480   1.535  0.8291 -1.7224  0.0695
   19CHTO  C106 7713   5.734   7.600   1.637 -0.2479  0.4647 -0.0755
   19CHTO   O69 7714   5.675   7.633   1.510 -0.2258  0.2580  0.0875
   19CHTO  H169 7715   5.588   7.597   1.508  0.2646 -0.9169 -1.2567
   19CHTO   O63 7716   5.718   7.104   1.619  0.1678  0.4285 -0.0045
   19CHTO   C96 7717   5.604   7.104   1.520 -0.3497 -0.4030 -0.4440
   19CHTO  H183 7718   5.650   7.090   1.422 -0.0062 -1.6322 -0.1116
   19CHTO   C98 7719   5.507   7.225   1.529 -0.4013  0.0309 -0.4733
   19CHTO  H185 7720   5.526   7.278   1.623  0.2764 -1.9955  0.5729
   19CHTO   O67 7721   5.536   7.316   1.424  0.4866 -0.3233 -0.2801
   19CHTO  H167 7722   5.628   7.334   1.421  0.3688  0.1741 -0.9815
   19CHTO  C102 7723   5.357   7.195   1.507 -0.7810  0.8079  0.3032
   19CHTO  H189 7724   5.339   7.203   1.398  1.0255  0.3695 -0.0344
   19CHTO   N18 7725   5.264   7.294   1.567 -0.1483 -0.4169  0.0258
   19CHTO  H176 7726   5.170   7.294   1.515  0.2258 -0.0324 -0.6536
   19CHTO  H177 7727   5.309   7.392   1.570 -0.3721 -0.2513 -1.7757
   19CHTO  C105 7728   5.320   7.048   1.541 -0.4333 -0.7136 -0.1525
   19CHTO  H192 7729   5.323   7.035   1.650  2.4282 -0.2682 -0.1207
   19CHTO   O65 7730   5.414   6.960   1.478 -0.4903 -0.1532 -0.0764
   19CHTO  C100 7731   5.532   6.967   1.549 -0.0915  0.3066  0.5500
   19CHTO  H187 7732   5.516   6.951   1.657  0.8091 -0.0771  0.6334
   19CHTO  C107 7733   5.604   6.841   1.491  0.3066  0.2073 -0.2300
   19CHTO   O70 7734   5.718   6.812   1.563  0.0077  0.0957  0.4057
   19CHTO  H170 7735   5.761   6.740   1.522 -0.3193 -0.0945  0.3976
   19CHTO   O57 7736   5.164   7.028   1.474 -0.6977 -0.7027 -0.0641
   19CHTO   C85 7737   5.103   6.907   1.525 -0.2471 -0.3043 -0.6421
   19CHTO  H157 7738   5.176   6.870   1.600 -2.5456 -0.8436  1.3932
   19CHTO   C83 7739   5.096   6.797   1.410 -0.3091  0.3324  0.1851
   19CHTO  H155 7740   5.201   6.772   1.391 -0.3698 -1.6452  2.1663
   19CHTO   O56 7741   5.042   6.859   1.292 -0.8558  1.2490 -0.4707
   19CHTO  H135 7742   5.067   6.819   1.211 -0.1285 -0.9163  0.7646
   19CHTO   C81 7743   5.026   6.673   1.475 -0.4652 -0.3509 -0.0049
   19CHTO  H153 7744   5.088   6.648   1.561  2.4644  1.0349 -1.6422
   19CHTO   N14 7745   5.024   6.557   1.384  0.5120  0.2248  0.4882
   19CHTO  H141 7746   5.124   6.519   1.376  0.3698  0.2554 -1.6924
   19CHTO  H142 7747   4.957   6.478   1.411  1.1139  0.9878  4.5058
   19CHTO   C79 7748   4.883   6.708   1.526  0.2280  0.3042  0.3632
   19CHTO  H151 7749   4.841   6.614   1.559  1.6012 -1.1454 -1.8455
   19CHTO   O52 7750   4.889   6.808   1.627 -0.0164 -0.5124 -0.7425
   19CHTO   C86 7751   4.957   6.930   1.586  0.0165 -0.9302 -0.6295
   19CHTO  H158 7752   4.893   6.974   1.506  0.7189 -0.3237 -0.8674
   19CHTO   C90 7753   4.958   7.038   1.698 -0.1344  0.0539  0.1032
   19CHTO   O60 7754   4.823   7.081   1.721  0.4253  0.0360 -0.0129
   19CHTO  H138 7755   4.819   7.165   1.762 -1.3270 -0.0945  0.0904
   19CHTO   O50 7756   4.790   6.738   1.414 -0.2356 -0.2684  0.3644
   19CHTO   C73 7757   4.644   6.754   1.379 -0.3280  0.1499 -0.1503
   19CHTO  H145 7758   4.603   6.652   1.378 -1.9146  0.7573  0.9390
   19CHTO   C74 7759   4.639   6.825   1.237  0.6123  0.0018 -0.6270
   19CHTO  H146 7760   4.692   6.769   1.159 -0.8718  1.0825 -2.4436
   19CHTO   O54 7761   4.501   6.818   1.199  0.0719 -0.1087 -0.1460
   19CHTO  H133 7762   4.438   6.851   1.260 -1.5258  0.6985 -2.1726
   19CHTO   C75 7763   4.688   6.977   1.248 -0.8404  0.5592 -0.2991
   19CHTO  H147 7764   4.797   6.980   1.266 -1.0380  1.6249  0.7542
   19CHTO   N13 7765   4.659   7.061   1.131  0.4869  0.0046  0.4181
   19CHTO  H139 7766   4.551   7.070   1.125  0.5696  1.7845  1.2458
   19CHTO  H140 7767   4.703   7.157   1.155  0.7274 -0.5616  2.3301
   19CHTO   C76 7768   4.618   7.044   1.380 -0.2307 -0.6356  0.1624
   19CHTO  H148 7769   4.512   7.065   1.361  0.1483  2.2908  1.0619
   19CHTO   O49 7770   4.621   6.964   1.499 -0.4540 -0.0195 -0.5008
   19CHTO   C77 7771   4.565   6.837   1.487  0.4469 -0.4819 -0.0846
   19CHTO  H149 7772   4.462   6.841   1.452  0.7316  0.1996 -0.8625
   19CHTO   C88 7773   4.565   6.772   1.622 -0.6006 -0.1005  0.1920
   19CHTO   O58 7774   4.497   6.853   1.730  0.6957  0.4502  0.2027
   19CHTO  H136 7775   4.458   6.801   1.797  0.5797  0.1074 -0.1283
   19CHTO   O51 7776   4.702   7.176   1.423 -0.9756  1.2422  0.3788
   19CHTO   C78 7777   4.611   7.306   1.428  0.3779 -0.0240  0.0787
   19CHTO  H150 7778   4.505   7.293   1.397  0.6682 -0.1995 -0.8399
   19CHTO   C80 7779   4.676   7.417   1.345 -0.6218 -0.3180  0.1871
   19CHTO  H152 7780   4.777   7.434   1.387 -1.0397 -2.2250  2.0679
   19CHTO   O55 7781   4.703   7.356   1.216  0.1714 -0.1442  0.2340
   19CHTO  H134 7782   4.783   7.387   1.176  0.2617  0.0063  0.5291
   19CHTO   C84 7783   4.584   7.549   1.340 -0.5905  0.6065  0.0280
   19CHTO  H156 7784   4.482   7.523   1.309  0.1057 -0.8203 -1.1194
   19CHTO   N15 7785   4.642   7.653   1.251  0.2901 -0.4877 -0.2501
   19CHTO  H143 7786   4.564   7.713   1.208 -0.1609  0.2203  1.5111
   19CHTO  H144 7787   4.715   7.716   1.296  0.3967 -0.7746 -0.0217
   19CHTO   C87 7788   4.568   7.594   1.487  0.0679 -0.1312  0.2030
   19CHTO  H159 7789   4.663   7.636   1.520  1.0388 -1.8221 -0.3911
   19CHTO   O53 7790   4.525   7.481   1.576  0.0991 -0.2716  0.4283
   19CHTO   C82 7791   4.605   7.361   1.570 -0.3178 -0.0118 -0.8869
   19CHTO  H154 7792   4.705   7.387   1.604  0.1364 -3.6128  0.6773
   19CHTO   C89 7793   4.557   7.253   1.666 -0.2921  0.3643  0.0052
   19CHTO   O59 7794   4.433   7.176   1.641  0.3302  0.8169  0.4592
   19CHTO  H137 7795   4.350   7.206   1.672 -0.7379 -0.8289 -0.6978
   19CHTO   O45 7796   4.469   7.725   1.479  0.7241  0.0402 -0.6602
   19CHTO   C67 7797   4.438   7.789   1.605 -0.4899  0.1493 -0.1852
   19CHTO  H124 7798   4.412   7.711   1.676 -0.5161 -1.7001 -2.1923
   19CHTO   C65 7799   4.561   7.884   1.653  0.0332 -0.3673 -0.2878
   19CHTO  H122 7800   4.619   7.918   1.567 -0.5021  0.6123 -0.2707
   19CHTO   O44 7801   4.646   7.791   1.721 -0.1256  0.0216  0.3434
   19CHTO  H102 7802   4.723   7.837   1.750  1.2295 -1.1182 -1.3628
   19CHTO   C63 7803   4.513   8.017   1.734 -0.4076 -0.0563 -0.2852
   19CHTO  H120 7804   4.494   8.096   1.660 -1.2961 -0.2162 -0.2382
   19CHTO   N11 7805   4.618   8.082   1.811  0.4922  0.1524  0.2685
   19CHTO  H108 7806   4.627   8.028   1.903 -0.9839  2.7742  2.0009
   19CHTO  H109 7807   4.713   8.092   1.764 -1.0650  3.2780 -2.4016
   19CHTO   C61 7808   4.376   7.992   1.807 -1.3325 -1.2184 -0.1970
   19CHTO  H118 7809   4.344   8.088   1.851  3.3836 -0.2944  1.4293
   19CHTO   O40 7810   4.273   7.949   1.712  0.2370 -1.0841  0.0954
   19CHTO   C68 7811   4.311   7.884   1.587  0.2036  0.1670 -0.2112
   19CHTO  H125 7812   4.331   7.964   1.513  1.0288  2.2774  2.2482
   19CHTO   C72 7813   4.190   7.807   1.538  0.5456  0.9800 -0.9879
   19CHTO   O48 7814   4.143   7.693   1.623 -0.6565  0.3355 -0.0750
   19CHTO  H105 7815   4.115   7.729   1.705 -0.7682  0.5708 -0.2138
   19CHTO   O38 7816   4.397   7.888   1.909 -0.2227 -0.0142  0.2841
   19CHTO   C55 7817   4.297   7.797   1.950 -0.0325 -0.5247  0.9011
   19CHTO  H112 7818   4.246   7.750   1.865  0.4755 -1.3735  1.0580
   19CHTO   C56 7819   4.191   7.853   2.057  0.4350 -0.4651 -0.2870
   19CHTO  H113 7820   4.258   7.892   2.134 -0.1514  1.3487 -0.6635
   19CHTO   O42 7821   4.116   7.969   2.012  0.6965 -0.6088 -0.7301
   19CHTO  H100 7822   4.115   8.029   2.085  3.5216 -0.9044 -0.3898
   19CHTO   C57 7823   4.096   7.743   2.114  0.5768 -0.6122 -0.4412
   19CHTO  H114 7824   4.025   7.705   2.041  0.4772 -1.4915  0.1136
   19CHTO   N10 7825   4.011   7.796   2.225 -0.5727  0.0804 -0.2211
   19CHTO  H106 7826   4.052   7.884   2.271 -0.5374  0.2115 -0.4969
   19CHTO  H107 7827   3.913   7.820   2.185 -0.7022 -0.7283 -0.4041
   19CHTO   C58 7828   4.179   7.622   2.168  0.2253  0.9112  0.2315
   19CHTO  H115 7829   4.226   7.652   2.264  0.2747  0.3493  0.3821
   19CHTO   O37 7830   4.277   7.579   2.075  0.2535 -0.1438 -0.4121
   19CHTO   C59 7831   4.366   7.671   2.010 -0.3895 -0.5819  0.4526
   19CHTO  H116 7832   4.437   7.701   2.087  1.4133  3.3395 -2.6013
   19CHTO   C70 7833   4.445   7.586   1.907 -0.2585  0.0196  0.0918
   19CHTO   O46 7834   4.356   7.529   1.815 -0.1097 -0.0446  0.4782
   19CHTO  H103 7835   4.376   7.549   1.725 -0.3319  1.8356  0.8307
   19CHTO   O39 7836   4.084   7.495   2.210  0.3004 -0.1245 -0.2366
   19CHTO   C60 7837   4.069   7.389   2.113 -0.0841  0.4364 -0.3518
   19CHTO  H117 7838   4.091   7.434   2.016 -0.6883  0.9689 -0.2472
   19CHTO   C62 7839   4.176   7.270   2.134  0.9370  0.4351 -0.6888
   19CHTO  H119 7840   4.279   7.309   2.127  0.1458  2.6280 -0.3199
   19CHTO   O43 7841   4.157   7.206   2.257 -0.0949  0.2587 -0.1872
   19CHTO  H101 7842   4.197   7.122   2.246 -1.3915 -0.6259  1.4946
   19CHTO   C66 7843   4.162   7.176   2.011 -0.4841 -0.3036  0.0570
   19CHTO  H123 7844   4.170   7.241   1.924 -0.4246 -1.7323 -1.0367
   19CHTO   N12 7845   4.280   7.083   2.001 -0.0343  0.0216  0.1897
   19CHTO  H110 7846   4.267   7.013   1.920 -1.4371 -1.0763  1.3314
   19CHTO  H111 7847   4.363   7.150   1.987 -1.2597  1.5571  0.1065
   19CHTO   C69 7848   4.026   7.102   1.992  0.1744 -0.2081 -0.3381
   19CHTO  H126 7849   4.025   7.025   2.072  1.1887 -0.7747 -0.8614
   19CHTO   O41 7850   3.909   7.206   2.002  0.0569 -0.2798 -0.4775
   19CHTO   C64 7851   3.924   7.331   2.104 -0.1431  0.0379 -0.0324
   19CHTO  H121 7852   3.890   7.302   2.206 -1.3026 -0.5783 -0.5989
   19CHTO   C71 7853   3.820   7.443   2.067 -0.6802 -0.3498 -0.6108
   19CHTO   O47 7854   3.801   7.467   1.927 -0.3286 -0.2422  0.2735
   19CHTO  H104 7855   3.769   7.554   1.910  1.9552  0.9705  1.8092
   19CHTO   O34 7856   4.016   7.037   1.853  0.2337  0.3426  0.1618
   19CHTO   C49 7857   3.940   7.061   1.749 -0.3550 -0.1168  0.8615
   19CHTO   H91 7858   3.839   7.037   1.782 -0.7476  1.6644  1.0054
   19CHTO   C47 7859   3.976   6.959   1.637 -0.3744  0.3270  0.4565
   19CHTO   H89 7860   3.898   6.976   1.560 -1.3658  0.1586  1.4281
   19CHTO   O33 7861   3.962   6.820   1.682  0.1311  0.1100  0.0745
   19CHTO   H70 7862   3.880   6.810   1.727  0.6749 -0.0585  1.0547
   19CHTO   C45 7863   4.113   6.989   1.547 -0.2053 -0.8398 -0.1640
   19CHTO   H87 7864   4.198   6.991   1.617  0.8962  0.6915 -1.5100
   19CHTO    N8 7865   4.144   6.884   1.445 -0.5624 -0.3350  1.3599
   19CHTO   H75 7866   4.062   6.877   1.375  0.2092  1.4995  0.2542
   19CHTO   H76 7867   4.159   6.787   1.490  2.2782 -1.0296 -0.9770
   19CHTO   C43 7868   4.117   7.144   1.500  0.2045 -0.2696  0.2467
   19CHTO   H85 7869   4.218   7.166   1.464 -0.5677 -1.0389 -2.5310
   19CHTO   O29 7870   4.086   7.226   1.618 -0.0160 -0.9667  0.4765
   19CHTO   C50 7871   3.962   7.204   1.686 -0.1206 -0.0845 -0.2152
   19CHTO   H92 7872   3.979   7.278   1.765  1.5229 -1.0311  0.3361
   19CHTO   C54 7873   3.841   7.258   1.605 -0.6858  0.3599 -0.5893
   19CHTO   O36 7874   3.715   7.207   1.651 -0.3231 -0.1121 -0.0128
   19CHTO   H72 7875   3.701   7.118   1.626  0.6533 -0.2953  0.0665
   19CHTO   O27 7876   4.033   7.179   1.388  0.0892  0.0742 -0.0318
   19CHTO   C37 7877   4.045   7.276   1.279  0.4303  0.4494 -0.1286
   19CHTO   H79 7878   3.947   7.281   1.230 -0.2134 -2.3845  0.7706
   19CHTO   C38 7879   4.084   7.423   1.326 -0.5062 -0.3258  0.7161
   19CHTO   H80 7880   4.178   7.417   1.383  2.5034  0.0540 -3.9674
   19CHTO   O31 7881   3.970   7.470   1.399 -0.4397 -0.4253 -0.1667
   19CHTO   H68 7882   3.893   7.480   1.346 -0.3722 -1.2887 -0.4408
   19CHTO   C39 7883   4.106   7.513   1.197 -0.2930 -0.1226 -0.4121
   19CHTO   H81 7884   4.020   7.515   1.131 -2.2350  2.7286  2.0865
   19CHTO    N7 7885   4.139   7.654   1.236 -0.2444 -0.0090 -0.2825
   19CHTO   H73 7886   4.048   7.709   1.256  0.5519  0.5238  1.9927
   19CHTO   H74 7887   4.191   7.657   1.331 -1.0139  1.0518  0.1163
   19CHTO   C40 7888   4.222   7.449   1.112  0.7100  0.1894  0.4873
   19CHTO   H82 7889   4.312   7.450   1.174  0.0062 -0.7840  1.5428
   19CHTO   O26 7890   4.187   7.316   1.068  0.0815 -0.4912 -0.0472
   19CHTO   C41 7891   4.154   7.225   1.180  0.6585 -0.3201  1.1655
   19CHTO   H83 7892   4.248   7.208   1.234  1.1434 -3.4065 -0.4910
   19CHTO   C52 7893   4.122   7.086   1.117  0.0431  0.0350 -0.4817
   19CHTO   O35 7894   4.219   7.013   1.086 -0.2781  0.0231  0.3588
   19CHTO   H71 7895   4.269   6.977   1.157  1.4361  2.0162  0.2308
   19CHTO   O28 7896   4.247   7.510   0.982 -0.2039  0.2042 -0.1421
   19CHTO   C42 7897   4.378   7.579   0.957 -0.0428  0.3617  0.3500
   19CHTO   H84 7898   4.422   7.589   1.057 -0.3292 -0.8273  0.5989
   19CHTO   C44 7899   4.361   7.726   0.907 -0.2699 -0.2492  0.5655
   19CHTO   H86 7900   4.313   7.729   0.809  1.7942 -0.5542 -0.4875
   19CHTO   O32 7901   4.284   7.792   1.009  0.0115  0.1403  0.1587
   19CHTO   H69 7902   4.284   7.885   0.992  1.2821  0.5818  2.4551
   19CHTO   C48 7903   4.509   7.795   0.892 -0.0813  0.4791  0.2366
   19CHTO   H90 7904   4.548   7.809   0.993  2.0181  0.3634 -0.5285
   19CHTO    N9 7905   4.506   7.931   0.830 -1.0983  0.3698 -0.3580
   19CHTO   H77 7906   4.608   7.959   0.806 -0.5399 -0.2573  1.1792
   19CHTO   H78 7907   4.475   8.004   0.904  1.3088 -0.0225  1.0933
   19CHTO   C51 7908   4.616   7.693   0.821  0.3989 -0.0127  0.2984
   19CHTO   H93 7909   4.603   7.687   0.713  0.3773  1.1026  0.2398
   19CHTO   O30 7910   4.609   7.565   0.884 -0.1335 -0.1667 -0.1527
   19CHTO   C46 7911   4.482   7.501   0.868 -0.3960 -0.1485  0.0745
   19CHTO   H88 7912   4.452   7.495   0.763  1.5715 -2.6065 -0.3774
   19CHTO   C53 7913   4.498   7.352   0.913  0.3857 -0.7742 -0.6540
   19CHTO   O72 7914   4.585   7.273   0.837  0.2005 -0.4959  0.1861
   19CHTO  H199 7915   4.585   7.191   0.882 -2.2350 -0.3253  0.6150
   19CHTO   O22 7916   4.746   7.736   0.839  0.3176  0.1372 -0.3711
   19CHTO   C31 7917   4.850   7.676   0.768  0.0202  0.1052 -0.4980
   19CHTO   H59 7918   4.807   7.586   0.718  2.6751 -0.7893 -1.2548
   19CHTO   C29 7919   4.907   7.770   0.662 -0.5036 -0.1592 -0.0180
   19CHTO   H57 7920   4.953   7.850   0.721 -1.0918 -0.3037  0.6462
   19CHTO   O21 7921   4.787   7.827   0.591  0.4506 -0.1244 -0.2810
   19CHTO   H37 7922   4.720   7.764   0.574 -0.9578  1.3079 -0.2234
   19CHTO   C27 7923   5.017   7.691   0.578  0.0585  0.4685  0.4641
   19CHTO   H55 7924   4.970   7.602   0.531 -0.3581  1.2712 -0.6755
   19CHTO    N5 7925   5.079   7.779   0.471 -0.8310 -0.4465  0.2275
   19CHTO   H43 7926   5.005   7.818   0.402  0.1354  0.7044 -0.1688
   19CHTO   H44 7927   5.153   7.719   0.420  0.4463 -0.5435  2.1647
   19CHTO   C25 7928   5.131   7.635   0.674 -0.8652  0.2467 -0.7128
   19CHTO   H53 7929   5.176   7.719   0.728  1.7186 -1.9535  0.6578
   19CHTO   O17 7930   5.069   7.557   0.780  0.0253  0.6575  0.5334
   19CHTO   C32 7931   4.968   7.626   0.857 -0.2677 -0.0064 -0.1426
   19CHTO   H60 7932   5.008   7.711   0.913  3.3142 -2.7623  1.6928
   19CHTO   C36 7933   4.914   7.516   0.960  0.0853  0.3940  0.1005
   19CHTO   O25 7934   4.869   7.403   0.891  0.0270 -0.0427 -0.0312
   19CHTO   H40 7935   4.803   7.353   0.936 -1.7044 -0.6178 -3.0921
   19CHTO   O15 7936   5.245   7.550   0.600  0.2693 -0.3273 -0.0848
   19CHTO   C19 7937   5.314   7.444   0.535 -0.8384 -0.4833  0.4463
   19CHTO   H47 7938   5.289   7.466   0.430  1.0968 -0.7719 -0.1062
   19CHTO   C20 7939   5.467   7.452   0.555  0.0364 -0.1290  0.4037
   19CHTO   H48 7940   5.495   7.426   0.658 -1.4948 -2.0850  0.3463
   19CHTO   O19 7941   5.514   7.586   0.514  0.0117 -0.1701  0.5914
   19CHTO   H35 7942   5.466   7.655   0.557  2.0999  0.7455  1.5347
   19CHTO   C21 7943   5.522   7.336   0.455  0.0525  0.2590  0.0274
   19CHTO   H49 7944   5.482   7.353   0.355 -0.6724  0.2673  0.3130
   19CHTO    N4 7945   5.673   7.326   0.451  0.3175 -0.3134  0.2311
   19CHTO   H41 7946   5.702   7.309   0.348  1.7126  0.5468  0.4803
   19CHTO   H42 7947   5.705   7.243   0.512  0.3595 -0.4134  0.0746
   19CHTO   C22 7948   5.459   7.194   0.480 -0.5749 -0.6270  0.1443
   19CHTO   H50 7949   5.506   7.140   0.562  0.6179 -0.2384 -0.2754
   19CHTO   O14 7950   5.321   7.200   0.480 -0.7936 -0.5850  0.0017
   19CHTO   C23 7951   5.261   7.303   0.567 -0.3002  0.0806 -0.3513
   19CHTO   H51 7952   5.285   7.273   0.670  1.7455  1.9562 -0.2565
   19CHTO   C34 7953   5.108   7.285   0.553 -0.1226  0.9156  0.0032
   19CHTO   O23 7954   5.074   7.170   0.636 -0.2130  0.4111 -0.0670
   19CHTO   H38 7955   5.054   7.206   0.720 -0.2238  0.4726 -0.0958
   19CHTO   O16 7956   5.482   7.112   0.361 -0.2520  0.4544  0.4876
   19CHTO   C24 7957   5.571   6.993   0.353 -0.5635 -0.0591  0.2623
   19CHTO   H52 7958   5.647   6.995   0.432 -1.1755 -1.2078  0.9001
   19CHTO   C26 7959   5.635   6.996   0.212  0.1117  0.3324 -0.3126
   19CHTO   H54 7960   5.557   7.019   0.136 -0.2379  0.1483 -0.0128
   19CHTO   O20 7961   5.735   7.101   0.209 -0.4594  0.5904 -0.5232
   19CHTO   H36 7962   5.743   7.127   0.119  1.7350 -1.2852 -0.9299
   19CHTO   C30 7963   5.691   6.857   0.165 -0.4038  0.1454 -0.6109
   19CHTO   H58 7964   5.759   6.815   0.240 -0.5057  0.1462 -0.5177
   19CHTO    N6 7965   5.757   6.854   0.032  0.2690 -0.5608 -0.1940
   19CHTO   H45 7966   5.688   6.882  -0.046  1.1035 -0.0085 -0.7463
   19CHTO   H46 7967   5.817   6.769   0.001  0.3112 -0.0944 -1.4092
   19CHTO   C33 7968   5.570   6.757   0.176 -0.1544  0.4822  0.5027
   19CHTO   H61 7969   5.480   6.800   0.130  0.7531  1.5282 -0.2913
   19CHTO   O18 7970   5.546   6.748   0.320 -0.8300  0.5521 -0.8486
   19CHTO   C28 7971   5.485   6.866   0.377  0.3851  0.1733  0.2341
   19CHTO   H56 7972   5.387   6.886   0.335  0.8032  0.4954 -0.6059
   19CHTO   C35 7973   5.447   6.835   0.523 -0.1599 -0.1720  0.2986
   19CHTO   O24 7974   5.558   6.815   0.612  0.5735 -0.2889  0.3287
   19CHTO   H39 7975   5.522   6.767   0.684  1.9670 -0.6870  0.7645
   19CHTO    O9 7976   5.589   6.625   0.119  0.3288 -0.2668 -0.2550
   19CHTO   C13 7977   5.445   6.571   0.082  0.2242 -0.0289  0.3232
   19CHTO   H26 7978   5.399   6.643   0.012  0.7990  0.4021  0.3799
   19CHTO   C11 7979   5.354   6.549   0.215 -0.1133  0.3590  0.7754
   19CHTO   H24 7980   5.333   6.647   0.259  0.1377 -0.6910  3.2925
   19CHTO    O8 7981   5.426   6.479   0.316  0.2288  0.6575 -0.3647
   19CHTO    H3 7982   5.368   6.461   0.388 -0.1398  1.5269 -0.4307
   19CHTO    C9 7983   5.220   6.485   0.175 -0.3708 -0.2299  0.0893
   19CHTO   H22 7984   5.175   6.552   0.101  1.9281  2.0969  0.7107
   19CHTO    N2 7985   5.125   6.469   0.285  0.0725 -0.0293 -0.5977
   19CHTO   H10 7986   5.060   6.383   0.280  0.1668 -0.2539  1.5023
   19CHTO   H11 7987   5.077   6.559   0.319 -0.5845 -0.9039  0.8276
   19CHTO    C7 7988   5.249   6.350   0.101 -0.5364 -0.1735 -0.1278
   19CHTO   H20 7989   5.152   6.311   0.064  0.4513 -1.7040 -1.1729
   19CHTO    O4 7990   5.339   6.362  -0.008  0.7905 -0.4893  0.6004
   19CHTO   C14 7991   5.456   6.445  -0.003  0.7051  0.4601  0.4302
   19CHTO   H27 7992   5.473   6.477  -0.108 -1.7597  1.6848  0.3827
   19CHTO   C18 7993   5.579   6.365   0.045  0.0739 -0.0558  0.5060
   19CHTO   O13 7994   5.601   6.255  -0.049 -0.2401  0.4396  0.3937
   19CHTO    H7 7995   5.599   6.178   0.004  0.7147 -0.9622 -1.5439
   19CHTO    O2 7996   5.329   6.236   0.223 -0.6506  0.1597 -0.3476
   19CHTO    C1 7997   5.367   6.102   0.181  0.5924  0.5180  1.6268
   19CHTO   H14 7998   5.452   6.107   0.110  1.6362  3.3179  2.9841
   19CHTO    C2 7999   5.250   6.027   0.110 -0.2901  0.5452 -0.5789
   19CHTO   H15 8000   5.158   6.047   0.166 -0.0841 -0.0398 -0.0336
   19CHTO    O6 8001   5.251   6.072  -0.031  0.1323 -0.4576 -0.1118
   19CHTO    H1 8002   5.249   6.166  -0.027  1.8297 -0.4710  1.8947
   19CHTO    C3 8003   5.283   5.864   0.111 -0.8660  0.2345 -0.9157
   19CHTO   H16 8004   5.368   5.836   0.048  0.5213  1.4001  0.3836
   19CHTO    N1 8005   5.167   5.786   0.056  0.0089 -0.0321  0.4965
   19CHTO    H8 8006   5.083   5.828   0.110  1.2182  2.5571  0.4263
   19CHTO    H9 8007   5.167   5.680   0.079 -0.2492 -0.0875  0.2343
   19CHTO    C4 8008   5.324   5.815   0.256 -0.6015  0.1172 -0.4342
   19CHTO   H17 8009   5.242   5.830   0.326 -0.0712 -2.2306  0.7323
   19CHTO    O1 8010   5.432   5.892   0.296 -0.5161  0.2388 -0.4138
   19CHTO    C5 8011   5.411   6.032   0.310  0.6722 -0.3320 -0.3821
   19CHTO   H18 8012   5.335   6.041   0.387  0.3061 -1.6499 -0.5828
   19CHTO   C16 8013   5.542   6.095   0.364  0.0629 -0.4534  0.0070
   19CHTO   O11 8014   5.573   6.078   0.500 -0.2561 -0.1441 -0.0593
   19CHTO    H5 8015   5.499   6.090   0.556 -1.0008  0.2503 -1.1056
   19CHTO    O3 8016   5.369   5.674   0.256  0.2023  0.0002  0.6332
   19CHTO    C6 8017   5.382   5.607   0.390 -0.0909 -0.0824 -0.1619
   19CHTO   H19 8018   5.389   5.676   0.474  1.0562  0.7089 -0.8796
   19CHTO    C8 8019   5.262   5.509   0.417  0.7383 -0.4305  0.0843
   19CHTO   H21 8020   5.250   5.446   0.329  0.8701 -0.9691  0.4498
   19CHTO    O7 8021   5.148   5.590   0.433 -0.2117 -0.0120  0.3846
   19CHTO    H2 8022   5.069   5.550   0.403  1.1436 -1.3749 -1.4298
   19CHTO   C12 8023   5.288   5.426   0.552 -0.1482  0.3780 -0.0759
   19CHTO   H25 8024   5.288   5.496   0.638 -1.2537 -1.8911  1.8419
   19CHTO    N3 8025   5.172   5.334   0.583  0.1177 -0.5912 -0.3836
   19CHTO   H12 8026   5.159   5.261   0.505 -1.8451 -1.8611  1.1149
   19CHTO   H13 8027   5.188   5.285   0.678  1.0755  1.7453  0.6989
   19CHTO   C15 8028   5.429   5.358   0.532  0.4413  0.2611  0.4798
   19CHTO   H28 8029   5.407   5.275   0.464  1.4702 -0.6532  1.2478
   19CHTO   O10 8030   5.478   5.281   0.670 -0.0805  0.0211  0.3006
   19CHTO    H4 8031   5.418   5.215   0.698 -1.8991  0.1686 -2.9654
   19CHTO    O5 8032   5.537   5.448   0.502 -0.4997  0.1448  0.4046
   19CHTO   C10 8033   5.518   5.530   0.385  0.7650 -0.0423  0.1266
   19CHTO   H23 8034   5.527   5.467   0.297  1.3784  1.8237 -1.1660
   19CHTO   C17 8035   5.646   5.615   0.377  0.2675  0.0636  0.3046
   19CHTO   O12 8036   5.648   5.707   0.490  0.3440  0.0050 -0.5082
   19CHTO    H6 8037   5.721   5.694   0.548 -1.4920 -1.1396  1.6309
   20CHTO  H203 8038   5.167   0.972   2.171  0.5333 -0.2467 -0.3688
   20CHTO   O82 8039   5.239   1.016   2.130  0.1954  0.5820 -0.1045
   20CHTO  C123 8040   5.208   1.145   2.076  0.3092  0.3643  0.0108
   20CHTO  H227 8041   5.119   1.185   2.126 -0.7185 -1.3095 -0.4250
   20CHTO   O77 8042   5.333   1.216   2.099 -0.0024  0.5587  0.5678
   20CHTO  C118 8043   5.339   1.356   2.066  0.0068 -0.3248  0.8404
   20CHTO  H222 8044   5.254   1.410   2.111 -0.6655 -0.2265 -0.5177
   20CHTO  C125 8045   5.465   1.418   2.108 -0.2891  0.2694 -0.5287
   20CHTO   O84 8046   5.465   1.444   2.248  0.4469  0.6597 -0.0311
   20CHTO  H205 8047   5.538   1.501   2.263  1.1450 -0.4707  0.9726
   20CHTO  C114 8048   5.327   1.356   1.916 -0.0362 -0.0819 -0.4945
   20CHTO  H218 8049   5.412   1.299   1.878  0.9734  0.8710  0.2971
   20CHTO  C116 8050   5.200   1.280   1.865  0.1416 -0.1903 -0.5431
   20CHTO  H220 8051   5.114   1.345   1.889 -0.4244 -0.3410 -2.1123
   20CHTO   O79 8052   5.212   1.282   1.720  0.5741  0.8991  0.0337
   20CHTO  H201 8053   5.263   1.210   1.690 -0.5356  0.8406 -1.7493
   20CHTO  C120 8054   5.190   1.134   1.922  0.0272 -0.1579  0.4101
   20CHTO  H224 8055   5.269   1.079   1.867 -0.1771  0.7823 -0.8519
   20CHTO   N21 8056   5.068   1.067   1.883 -0.1150 -0.6577  0.1517
   20CHTO  H211 8057   5.078   0.960   1.872  0.5165 -0.5345 -0.4869
   20CHTO  H212 8058   4.984   1.102   1.941 -0.2335  0.8721 -0.9286
   20CHTO   O75 8059   5.332   1.494   1.884 -0.2504  0.3465  0.4094
   20CHTO  C112 8060   5.422   1.515   1.749  0.9815  0.1960  0.1538
   20CHTO  H216 8061   5.399   1.436   1.676  2.8220 -0.6746  0.5118
   20CHTO   O73 8062   5.559   1.504   1.786  0.0968 -0.2382 -0.8321
   20CHTO  C113 8063   5.635   1.518   1.672 -0.0178 -0.4160  0.0451
   20CHTO  H217 8064   5.605   1.457   1.585  0.0877 -0.3260 -0.0556
   20CHTO  C124 8065   5.776   1.475   1.714  0.5684 -0.1116 -0.0409
   20CHTO   O83 8066   5.786   1.361   1.802 -0.0376 -0.1160  0.4103
   20CHTO  H204 8067   5.866   1.369   1.851 -0.2655  3.0983  0.3545
   20CHTO  C109 8068   5.639   1.672   1.630  0.6395 -0.0297 -0.4101
   20CHTO  H213 8069   5.677   1.732   1.714 -2.1156 -1.4293  1.9269
   20CHTO  C110 8070   5.495   1.701   1.584  0.2805  0.1814  0.2178
   20CHTO  H214 8071   5.478   1.646   1.492  0.3987  0.4944  0.0098
   20CHTO   O78 8072   5.480   1.841   1.568  0.7571 -0.2380  0.4310
   20CHTO  H200 8073   5.452   1.897   1.638  1.0407  2.6582 -1.6633
   20CHTO  C111 8074   5.382   1.655   1.680 -0.1561 -0.5825 -0.4163
   20CHTO  H215 8075   5.375   1.727   1.763 -0.4680 -0.1100 -0.8441
   20CHTO   N19 8076   5.250   1.657   1.613  0.0907 -0.2567 -0.1064
   20CHTO  H207 8077   5.200   1.749   1.639  0.3255 -0.5270  1.3427
   20CHTO  H208 8078   5.193   1.566   1.624 -1.3068  0.4467 -1.3602
   20CHTO   O74 8079   5.725   1.688   1.505  0.3077  0.3079  0.5038
   20CHTO  C115 8080   5.785   1.827   1.484 -0.5436 -0.1400 -0.6830
   20CHTO  H219 8081   5.736   1.902   1.546 -1.4791 -0.6155 -0.8238
   20CHTO   O76 8082   5.941   1.831   1.515 -0.0724  0.2242  0.0453
   20CHTO  C122 8083   6.016   1.737   1.438 -0.0931 -0.1085 -0.1317
   20CHTO  H226 8084   5.997   1.635   1.473  0.0279 -0.7038 -1.7659
   20CHTO  C126 8085   6.166   1.773   1.482 -0.1578 -0.0636  0.3759
   20CHTO   O85 8086   6.194   1.906   1.445 -0.6093 -0.4131 -0.6881
   20CHTO  H206 8087   6.280   1.931   1.473 -1.0527  0.2781  0.0844
   20CHTO  C121 8088   5.989   1.735   1.282 -1.6771 -0.2642 -0.2520
   20CHTO  H225 8089   6.087   1.754   1.235 -2.1330  0.1021 -1.0685
   20CHTO   O81 8090   5.933   1.606   1.248 -0.3962 -0.0862 -0.3268
   20CHTO  H202 8091   5.923   1.600   1.155 -0.9589 -1.1627 -0.1985
   20CHTO  C119 8092   5.886   1.845   1.239  0.3800 -0.1142 -0.5221
   20CHTO  H223 8093   5.943   1.937   1.248 -1.6331  1.2819 -1.5014
   20CHTO  C117 8094   5.761   1.860   1.330  1.3473  0.1226 -0.5481
   20CHTO  H221 8095   5.677   1.799   1.298  0.7071  0.9227 -0.4233
   20CHTO   N20 8096   5.703   2.003   1.333 -0.4403  0.8063 -0.0843
   20CHTO  H209 8097   5.692   2.041   1.233  0.5670 -0.9972 -0.9055
   20CHTO  H210 8098   5.766   2.072   1.389 -1.5027  0.5382  1.4695
   20CHTO   O80 8099   5.844   1.851   1.084 -0.1238  0.2967  0.3037
   20CHTO  C103 8100   5.951   1.854   0.975 -0.2004  0.4495 -0.5128
   20CHTO  H190 8101   6.049   1.845   1.021  0.4054 -0.0574 -1.8685
   20CHTO  C101 8102   5.943   1.748   0.852  0.3133 -0.2818  0.0524
   20CHTO  H188 8103   5.847   1.747   0.800  0.6243 -2.0425 -0.5082
   20CHTO   O68 8104   5.959   1.612   0.900 -0.0969  0.1127 -0.5916
   20CHTO  H168 8105   5.902   1.592   0.971 -0.0692 -0.0482 -0.6131
   20CHTO   C99 8106   6.036   1.791   0.737  0.7190  0.4961  0.3763
   20CHTO  H186 8107   6.140   1.793   0.778  2.2273  1.2025 -3.2608
   20CHTO   N17 8108   6.028   1.715   0.609 -0.0042  0.3567  0.0328
   20CHTO  H174 8109   5.940   1.741   0.552  0.5960  1.1226 -0.5472
   20CHTO  H175 8110   6.116   1.738   0.552  0.4048  1.1504  0.9668
   20CHTO   C97 8111   6.006   1.942   0.701 -1.0289 -0.0132  0.6869
   20CHTO  H184 8112   5.902   1.952   0.668 -0.7493  0.6112 -0.0391
   20CHTO   O64 8113   6.035   2.025   0.812  0.1521  0.2634 -0.1321
   20CHTO  C104 8114   5.936   2.001   0.915 -0.3084 -0.0579  0.5207
   20CHTO  H191 8115   5.843   2.012   0.859  0.3349 -0.6364 -0.6880
   20CHTO  C108 8116   5.938   2.114   1.021 -0.2412 -0.0781  0.0497
   20CHTO   O71 8117   6.032   2.116   1.125 -0.0964  0.6890  0.0317
   20CHTO  H171 8118   6.116   2.130   1.087 -0.7761  1.5143 -1.2226
   20CHTO   O62 8119   6.104   1.999   0.606  0.1442 -0.5228  0.2668
   20CHTO   C91 8120   6.062   2.126   0.542 -0.1752  0.2502 -0.0609
   20CHTO  H178 8121   6.011   2.181   0.621 -1.0325 -1.4763  0.6234
   20CHTO   C92 8122   5.967   2.102   0.422 -0.6936 -0.9198 -0.3341
   20CHTO  H179 8123   6.016   2.030   0.355 -0.0269 -2.4629  1.7627
   20CHTO   O66 8124   5.843   2.046   0.467 -0.0479  0.2366 -0.3020
   20CHTO  H166 8125   5.824   1.962   0.430  1.3442 -1.0840  1.8807
   20CHTO   C93 8126   5.935   2.236   0.344  0.0789  0.3509 -0.2018
   20CHTO  H180 8127   5.870   2.285   0.418  0.5239 -1.0825  1.1566
   20CHTO   N16 8128   5.856   2.221   0.221 -0.0156 -0.4050 -0.1354
   20CHTO  H172 8129   5.811   2.123   0.231 -3.1648  0.9277 -0.4058
   20CHTO  H173 8130   5.777   2.295   0.216  0.1448 -0.1514  0.8974
   20CHTO   C94 8131   6.066   2.319   0.320  0.3013 -0.5726 -1.1943
   20CHTO  H181 8132   6.123   2.285   0.234  1.1759  2.3933 -1.8687
   20CHTO   O61 8133   6.155   2.328   0.433  0.3825  0.1642  0.4348
   20CHTO   C95 8134   6.184   2.205   0.492  0.0243  0.3489  0.3020
   20CHTO  H182 8135   6.232   2.146   0.414 -2.3478 -3.6579  1.7447
   20CHTO  C106 8136   6.292   2.238   0.597  0.5736 -0.3678  0.6653
   20CHTO   O69 8137   6.410   2.274   0.528  0.1038  0.2098 -0.2081
   20CHTO  H169 8138   6.453   2.328   0.590 -1.2397 -2.7553  3.5558
   20CHTO   O63 8139   6.019   2.493   0.291  0.4611  0.2321 -0.1283
   20CHTO   C96 8140   6.034   2.537   0.151 -0.0675  0.2469  0.6427
   20CHTO  H183 8141   6.005   2.458   0.082  0.8572 -0.3220  0.9052
   20CHTO   C98 8142   6.182   2.574   0.114  0.7778  0.4807 -0.2476
   20CHTO  H185 8143   6.204   2.644   0.196 -0.5508 -0.9354  1.3350
   20CHTO   O67 8144   6.266   2.456   0.131  0.5187 -0.5096 -0.2118
   20CHTO  H167 8145   6.221   2.379   0.103  1.5032 -2.0223  2.1886
   20CHTO  C102 8146   6.209   2.648  -0.029  0.1047  0.5281  0.6687
   20CHTO  H189 8147   6.209   2.565  -0.101 -0.2460  1.1689 -0.0743
   20CHTO   N18 8148   6.345   2.711  -0.042  0.1671 -0.0915  0.0140
   20CHTO  H176 8149   6.346   2.816  -0.067  1.2762  0.4684  2.2295
   20CHTO  H177 8150   6.398   2.702   0.052  0.9178  0.1851 -0.3771
   20CHTO  C105 8151   6.092   2.749  -0.058 -0.1730  0.5677  0.5203
   20CHTO  H192 8152   6.109   2.840   0.000  0.9705  0.7738 -0.1330
   20CHTO   O65 8153   5.963   2.696  -0.021  0.3622 -0.4325  0.4479
   20CHTO  C100 8154   5.947   2.670   0.122 -0.8375 -0.5419  0.1204
   20CHTO  H187 8155   5.993   2.752   0.179  0.2546 -0.0655 -1.3824
   20CHTO  C107 8156   5.797   2.656   0.155  0.1287  0.4756  0.2976
   20CHTO   O70 8157   5.781   2.670   0.296  0.8608 -0.3894  0.0970
   20CHTO  H170 8158   5.688   2.678   0.307  0.7113 -1.1974 -0.5088
   20CHTO   O57 8159   6.078   2.791  -0.211  0.4143 -0.2389 -0.3079
   20CHTO   C85 8160   6.040   2.925  -0.248 -0.6021  0.6499 -0.6552
   20CHTO  H157 8161   6.109   2.994  -0.195 -1.4574  0.7432  0.3648
   20CHTO   C83 8162   5.897   2.956  -0.194  0.7205  0.2311  0.2093
   20CHTO  H155 8163   5.903   2.947  -0.085 -1.7411 -4.1646  0.0663
   20CHTO   O56 8164   5.802   2.856  -0.237 -0.4979 -0.5184 -0.3585
   20CHTO  H135 8165   5.824   2.769  -0.209  0.8937 -0.1273 -0.2067
   20CHTO   C81 8166   5.865   3.103  -0.235  0.7407  0.2036 -0.0273
   20CHTO  H153 8167   5.944   3.159  -0.185  0.0644 -0.3257  1.6871
   20CHTO   N14 8168   5.742   3.151  -0.170 -0.0803 -0.6174 -0.4097
   20CHTO  H141 8169   5.742   3.256  -0.150  1.3192 -0.4861 -1.0309
   20CHTO  H142 8170   5.654   3.121  -0.222  1.0946 -0.1790 -2.7021
   20CHTO   C79 8171   5.865   3.124  -0.395  0.2378 -0.3999  0.0270
   20CHTO  H151 8172   5.864   3.231  -0.413  4.5518  0.1142  2.1915
   20CHTO   O52 8173   5.992   3.078  -0.453 -0.3191  0.0141 -0.0208
   20CHTO   C86 8174   6.042   2.945  -0.405  0.4144  0.0824 -0.5987
   20CHTO  H158 8175   5.984   2.864  -0.454 -0.7159 -0.9806  2.3973
   20CHTO   C90 8176   6.190   2.933  -0.469  0.7521 -0.1635  0.0269
   20CHTO   O60 8177   6.250   2.803  -0.445  0.3485  0.3440 -0.1410
   20CHTO  H138 8178   6.204   2.745  -0.503  1.4002  0.4760 -1.1194
   20CHTO   O50 8179   5.759   3.050  -0.459 -0.0324 -0.2714  0.3945
   20CHTO   C73 8180   5.715   2.982  -0.576  0.0845  0.8973  0.1084
   20CHTO  H145 8181   5.754   2.879  -0.570  3.2998  2.0741  0.2395
   20CHTO   C74 8182   5.785   3.050  -0.694  0.3221  0.4883 -0.3703
   20CHTO  H146 8183   5.894   3.050  -0.683  0.3649 -1.7472 -0.4282
   20CHTO   O54 8184   5.771   2.974  -0.813 -1.2428  0.1698  0.6756
   20CHTO  H133 8185   5.802   2.887  -0.796 -1.2190  0.0206 -0.1508
   20CHTO   C75 8186   5.721   3.202  -0.704 -0.1580  0.0516  0.0979
   20CHTO  H147 8187   5.750   3.260  -0.615 -0.4596  0.4906 -0.0886
   20CHTO   N13 8188   5.787   3.294  -0.801 -0.3615  0.6667 -0.0475
   20CHTO  H139 8189   5.787   3.397  -0.769 -0.9114  1.0263 -1.1546
   20CHTO  H140 8190   5.888   3.259  -0.818 -0.8741 -1.0835  0.4342
   20CHTO   C76 8191   5.565   3.202  -0.720  0.4187  0.6755 -0.4497
   20CHTO  H148 8192   5.548   3.170  -0.823  3.1947 -0.1993 -0.6866
   20CHTO   O49 8193   5.506   3.118  -0.614 -0.8448 -0.1466  0.5702
   20CHTO   C77 8194   5.559   2.988  -0.586  0.0768 -0.1766  0.1274
   20CHTO  H149 8195   5.526   2.917  -0.662 -0.4009 -0.8989  0.9989
   20CHTO   C88 8196   5.492   2.940  -0.458  0.1969 -0.0461  0.1791
   20CHTO   O58 8197   5.499   2.796  -0.443  0.6601 -0.2047  0.6720
   20CHTO  H136 8198   5.470   2.772  -0.357 -1.3019 -0.7359 -0.1162
   20CHTO   O51 8199   5.499   3.364  -0.695  0.0296  0.3823 -0.7813
   20CHTO   C78 8200   5.438   3.417  -0.549  0.1824 -0.4788 -0.2815
   20CHTO  H150 8201   5.471   3.348  -0.469  0.1543 -0.3115 -0.1248
   20CHTO   C80 8202   5.285   3.420  -0.562 -0.0249  0.3452 -0.1210
   20CHTO  H152 8203   5.259   3.495  -0.639  0.7931 -0.0672 -0.8126
   20CHTO   O55 8204   5.247   3.287  -0.597  0.4907  0.4617  0.2695
   20CHTO  H134 8205   5.158   3.293  -0.625  1.1160 -2.6641 -2.7069
   20CHTO   C84 8206   5.227   3.462  -0.421  0.2324 -0.1244  0.3718
   20CHTO  H156 8207   5.269   3.395  -0.347 -1.9071 -0.5061  1.2866
   20CHTO   N15 8208   5.072   3.450  -0.416 -0.0883  0.1218  0.2294
   20CHTO  H143 8209   5.041   3.383  -0.493  0.4315 -0.5938  0.6436
   20CHTO  H144 8210   5.028   3.546  -0.433 -1.0881 -0.4211 -0.3146
   20CHTO   C87 8211   5.281   3.603  -0.390 -0.4976 -0.4122  0.2626
   20CHTO  H159 8212   5.237   3.678  -0.455  1.7778  0.4725 -0.3231
   20CHTO   O53 8213   5.434   3.611  -0.394  0.3539 -0.4178 -0.1501
   20CHTO   C82 8214   5.491   3.563  -0.518 -0.3547  0.2719  0.1269
   20CHTO  H154 8215   5.473   3.628  -0.604  1.3839 -2.2236 -2.2370
   20CHTO   C89 8216   5.639   3.563  -0.505 -0.1397  0.1374 -0.3969
   20CHTO   O59 8217   5.709   3.683  -0.534  0.1066 -0.0741  0.1477
   20CHTO  H137 8218   5.800   3.660  -0.539  0.1586  0.5026 -2.9971
   20CHTO   O45 8219   5.229   3.652  -0.237  0.2611 -0.2572 -0.3680
   20CHTO   C67 8220   5.306   3.604  -0.129 -0.1819  0.2894  0.1486
   20CHTO  H124 8221   5.341   3.505  -0.157 -1.6460  0.0698 -0.9523
   20CHTO   C65 8222   5.432   3.695  -0.109 -0.4962  0.2600 -0.3033
   20CHTO  H122 8223   5.436   3.776  -0.183  3.1822 -1.1470 -1.7521
   20CHTO   O44 8224   5.553   3.623  -0.127 -0.1466  0.0632 -0.2727
   20CHTO  H102 8225   5.618   3.661  -0.071  0.1085  1.0773 -1.2491
   20CHTO   C63 8226   5.424   3.770   0.030  1.1407  0.4115  0.2119
   20CHTO  H120 8227   5.333   3.829   0.029  0.4932 -0.5750  0.4415
   20CHTO   N11 8228   5.518   3.881   0.058 -0.0630 -0.2087  0.0800
   20CHTO  H108 8229   5.613   3.873   0.009 -0.0915  2.6775 -0.5465
   20CHTO  H109 8230   5.513   3.909   0.161 -0.9122 -0.7677  0.1984
   20CHTO   C61 8231   5.405   3.663   0.147 -0.2832 -0.5563 -1.2320
   20CHTO  H118 8232   5.368   3.720   0.234  1.0727 -0.2915 -0.8233
   20CHTO   O40 8233   5.305   3.560   0.114  0.1648 -0.5131 -0.3090
   20CHTO   C68 8234   5.214   3.581  -0.002 -0.3430  0.1483  0.3651
   20CHTO  H125 8235   5.151   3.672   0.008  0.0294  0.6246 -1.3230
   20CHTO   C72 8236   5.118   3.457  -0.009 -0.1607 -0.1804 -0.5765
   20CHTO   O48 8237   5.191   3.333  -0.021 -0.0283  0.1841  0.5058
   20CHTO  H105 8238   5.230   3.323  -0.106 -0.5482  2.0315  0.0210
   20CHTO   O38 8239   5.529   3.600   0.191  0.0307  0.7973  0.2667
   20CHTO   C55 8240   5.519   3.510   0.300 -0.6518  0.0841  0.0433
   20CHTO  H112 8241   5.415   3.476   0.315 -0.8023 -0.5071 -2.2127
   20CHTO   C56 8242   5.577   3.584   0.430 -0.1813 -0.6745 -0.1799
   20CHTO  H113 8243   5.682   3.608   0.410  0.1142 -2.4653 -0.8056
   20CHTO   O42 8244   5.510   3.708   0.458  0.7732 -0.0217  0.2203
   20CHTO  H100 8245   5.536   3.775   0.399 -0.3813  0.9745  0.8152
   20CHTO   C57 8246   5.569   3.491   0.562 -0.1905 -0.3898  0.1710
   20CHTO  H114 8247   5.464   3.484   0.590 -0.2232  2.2394  0.8860
   20CHTO   N10 8248   5.637   3.554   0.680  0.6001  0.1216  0.4178
   20CHTO  H106 8249   5.627   3.661   0.677  0.0101  0.0540 -0.3528
   20CHTO  H107 8250   5.594   3.520   0.773 -0.8405 -0.9310 -0.6063
   20CHTO   C58 8251   5.631   3.355   0.535  0.3065 -0.8991  0.4240
   20CHTO  H115 8252   5.741   3.362   0.520  0.0620  1.4843 -0.4184
   20CHTO   O37 8253   5.583   3.300   0.416  0.0351 -0.2830  0.3623
   20CHTO   C59 8254   5.602   3.377   0.295 -0.3737  0.5313  0.6303
   20CHTO  H116 8255   5.710   3.389   0.283 -0.1875 -1.5738 -0.0451
   20CHTO   C70 8256   5.551   3.296   0.179 -0.5650 -0.0376  0.3176
   20CHTO   O46 8257   5.617   3.170   0.164  0.2375  0.8698  0.0877
   20CHTO  H103 8258   5.627   3.134   0.250  0.0419 -1.3712 -0.7997
   20CHTO   O39 8259   5.597   3.258   0.658  0.3515 -0.1433  0.3812
   20CHTO   C60 8260   5.684   3.139   0.667 -0.5333  0.1151  0.6310
   20CHTO  H117 8261   5.741   3.129   0.574  0.1594  0.7447  0.9910
   20CHTO   C62 8262   5.798   3.153   0.771  0.0422 -0.3490  0.2380
   20CHTO  H119 8263   5.845   3.250   0.742 -0.9605 -0.4951 -1.9995
   20CHTO   O43 8264   5.741   3.166   0.900 -0.4730 -0.5759 -1.2121
   20CHTO  H101 8265   5.691   3.091   0.927 -0.9345 -0.0638 -0.6169
   20CHTO   C66 8266   5.905   3.029   0.758  0.4792  0.8105  0.1244
   20CHTO  H123 8267   5.938   3.014   0.655 -0.9936 -1.3447 -0.0637
   20CHTO   N12 8268   6.023   3.050   0.845  0.3039 -0.1414  0.0384
   20CHTO  H110 8269   6.060   2.957   0.886  0.3727 -0.1785 -0.1085
   20CHTO  H111 8270   6.101   3.092   0.782  0.7437 -1.4545 -0.2936
   20CHTO   C69 8271   5.815   2.902   0.789 -0.1505 -0.3150 -0.2872
   20CHTO  H126 8272   5.792   2.896   0.897  2.2295 -0.5425  0.2254
   20CHTO   O41 8273   5.696   2.888   0.696  0.5066 -0.1345  0.0690
   20CHTO   C64 8274   5.595   3.009   0.683 -0.2165  0.0534  0.1753
   20CHTO  H121 8275   5.533   3.016   0.774 -0.1567 -3.5721  0.5542
   20CHTO   C71 8276   5.506   2.979   0.563 -0.5265 -0.0114  0.0895
   20CHTO   O47 8277   5.428   2.863   0.607  0.1497 -0.6610  0.2538
   20CHTO  H104 8278   5.410   2.795   0.545 -0.7887 -0.5229  0.3681
   20CHTO   O34 8279   5.911   2.771   0.768  0.4644  0.4948 -0.2571
   20CHTO   C49 8280   5.833   2.638   0.817 -1.0588 -0.0392 -0.1684
   20CHTO   H91 8281   5.735   2.633   0.769 -1.2669 -1.7959  0.3934
   20CHTO   C47 8282   5.816   2.624   0.970  0.0303 -0.1049 -0.6819
   20CHTO   H89 8283   5.732   2.691   0.996 -1.2383 -1.6977 -0.6379
   20CHTO   O33 8284   5.937   2.670   1.022  0.3371 -0.4343 -0.4580
   20CHTO   H70 8285   5.931   2.674   1.115 -2.9817  0.1145 -0.6466
   20CHTO   C45 8286   5.787   2.470   1.015 -0.7426  0.0803  0.5376
   20CHTO   H87 8287   5.880   2.415   1.039 -1.6582 -1.4074  0.7436
   20CHTO    N8 8288   5.704   2.478   1.138 -0.2461 -0.4148 -0.4199
   20CHTO   H75 8289   5.614   2.417   1.135 -1.1968  1.0163 -3.7488
   20CHTO   H76 8290   5.761   2.446   1.224  0.8770  3.3346  0.3043
   20CHTO   C43 8291   5.740   2.377   0.892  0.4884  0.6123  0.4875
   20CHTO   H85 8292   5.727   2.276   0.929  1.7371 -0.4210 -1.7938
   20CHTO   O29 8293   5.832   2.391   0.786 -0.5284  0.2260  0.7208
   20CHTO   C50 8294   5.908   2.510   0.759  0.4805 -0.4851 -0.2972
   20CHTO   H92 8295   6.010   2.516   0.799  0.4102 -0.0079 -0.1872
   20CHTO   C54 8296   5.932   2.504   0.606 -0.0641 -0.3719  0.4331
   20CHTO   O36 8297   6.013   2.611   0.568  0.1712 -0.2211 -0.5993
   20CHTO   H72 8298   5.959   2.669   0.518 -3.2312  0.1524  3.2700
   20CHTO   O27 8299   5.611   2.417   0.845  0.4416 -0.0526  0.8156
   20CHTO   C37 8300   5.514   2.359   0.756  0.1286  0.7649 -0.6506
   20CHTO   H79 8301   5.413   2.393   0.783 -0.4020 -0.8720 -0.4904
   20CHTO   C38 8302   5.538   2.413   0.607  0.1537  0.4063 -0.3760
   20CHTO   H80 8303   5.646   2.408   0.588  0.1921 -0.6027  0.0804
   20CHTO   O31 8304   5.494   2.552   0.613 -0.0435  0.7859 -0.0677
   20CHTO   H68 8305   5.426   2.559   0.677 -2.3229 -1.6554 -2.0848
   20CHTO   C39 8306   5.454   2.327   0.503  0.0360 -0.0353 -0.7207
   20CHTO   H81 8307   5.345   2.335   0.508  0.2262  1.3726  2.2947
   20CHTO    N7 8308   5.489   2.369   0.358  0.7013 -0.3412 -0.3683
   20CHTO   H73 8309   5.422   2.323   0.286  2.0367  0.2263 -1.9951
   20CHTO   H74 8310   5.494   2.476   0.351  0.8607 -0.1150  2.5663
   20CHTO   C40 8311   5.472   2.173   0.531 -0.0421  0.5354  0.5454
   20CHTO   H82 8312   5.576   2.142   0.519  0.7724  2.5387  2.1526
   20CHTO   O26 8313   5.424   2.142   0.665  0.4063 -0.3851  0.1357
   20CHTO   C41 8314   5.508   2.200   0.762  0.2254 -0.0373  0.2036
   20CHTO   H83 8315   5.613   2.166   0.757 -0.0660 -0.9777  0.4807
   20CHTO   C52 8316   5.449   2.157   0.897 -0.1857  0.0256 -0.3690
   20CHTO   O35 8317   5.437   2.009   0.908 -0.7017  0.4066 -0.0354
   20CHTO   H71 8318   5.411   1.977   0.824 -1.8624 -1.3092  0.9474
   20CHTO   O28 8319   5.395   2.083   0.449  0.2301  0.0071 -0.2637
   20CHTO   C42 8320   5.440   1.939   0.423 -0.8454 -0.2679 -0.1915
   20CHTO   H84 8321   5.353   1.882   0.389 -1.7576  1.7048 -1.2786
   20CHTO   C44 8322   5.499   1.860   0.547  0.3739 -0.3008 -0.3138
   20CHTO   H86 8323   5.566   1.925   0.604 -0.0499 -1.5578  1.6434
   20CHTO   O32 8324   5.383   1.838   0.625  0.5519  0.0360  0.0753
   20CHTO   H69 8325   5.311   1.898   0.617  1.8657  1.2881 -3.0941
   20CHTO   C48 8326   5.570   1.719   0.513 -0.4494 -0.2546 -0.1521
   20CHTO   H90 8327   5.504   1.645   0.468 -0.2165 -0.5482 -0.0133
   20CHTO    N9 8328   5.624   1.656   0.642 -0.0769 -0.1411  0.1812
   20CHTO   H77 8329   5.731   1.643   0.650  0.0041  0.8240  0.6698
   20CHTO   H78 8330   5.567   1.571   0.676  0.4193 -0.4451  0.2598
   20CHTO   C51 8331   5.671   1.735   0.397  0.1164  0.4265 -0.0185
   20CHTO   H93 8332   5.750   1.799   0.434  0.5180 -0.9480  1.5803
   20CHTO   O30 8333   5.598   1.793   0.287 -0.1859  0.0459  0.0433
   20CHTO   C46 8334   5.553   1.932   0.305  0.7746  0.1807  0.1823
   20CHTO   H88 8335   5.638   1.996   0.328  1.4704 -0.5099 -0.4459
   20CHTO   C53 8336   5.499   1.985   0.164 -0.6298 -0.5984 -0.1851
   20CHTO   O72 8337   5.616   2.005   0.085  0.1410 -0.1671  0.9460
   20CHTO  H199 8338   5.682   1.939   0.079 -0.3258 -0.3677 -3.4648
   20CHTO   O22 8339   5.740   1.615   0.353  0.4443 -0.1713  0.8948
   20CHTO   C31 8340   5.825   1.612   0.236  0.3253  0.4099 -0.0665
   20CHTO   H59 8341   5.761   1.656   0.157 -1.6408  0.3445  1.4588
   20CHTO   C29 8342   5.948   1.705   0.254 -0.0285 -0.8996  0.1439
   20CHTO   H57 8343   5.994   1.672   0.348  0.7058 -0.8449 -0.1920
   20CHTO   O21 8344   5.915   1.848   0.261  0.2345 -0.3165  0.1249
   20CHTO   H37 8345   5.959   1.881   0.337 -0.7245  3.6748 -0.9700
   20CHTO   C27 8346   6.046   1.677   0.129  0.4579  0.5080  0.4591
   20CHTO   H55 8347   5.999   1.714   0.037 -1.4133  0.4557  1.3556
   20CHTO    N5 8348   6.168   1.754   0.150 -0.3355  0.3774  0.1199
   20CHTO   H43 8349   6.217   1.726   0.241 -0.1816 -0.0060 -0.0813
   20CHTO   H44 8350   6.145   1.860   0.146 -0.8789  0.2345 -0.7631
   20CHTO   C25 8351   6.071   1.527   0.094 -0.4312 -0.1391 -0.5421
   20CHTO   H53 8352   6.129   1.481   0.175  0.3925  2.1399  0.2127
   20CHTO   O17 8353   5.942   1.467   0.071  0.5388 -0.2438 -0.2280
   20CHTO   C32 8354   5.861   1.463   0.191 -0.8009  0.3615 -0.2947
   20CHTO   H60 8355   5.925   1.423   0.270  1.8093 -2.4345 -3.6770
   20CHTO   C36 8356   5.728   1.387   0.180 -0.0144  0.3941 -0.5940
   20CHTO   O25 8357   5.660   1.351   0.303  0.0286  0.1120 -0.2240
   20CHTO   H40 8358   5.727   1.364   0.367 -1.8843  2.1921  1.4427
   20CHTO   O15 8359   6.154   1.514  -0.045 -0.3959  0.2130  0.5654
   20CHTO   C19 8360   6.296   1.489  -0.081 -0.0936  0.1426  0.9460
   20CHTO   H47 8361   6.295   1.472  -0.190 -2.4262  0.1328  0.9419
   20CHTO   C20 8362   6.394   1.604  -0.065 -0.6272  0.8188  0.4735
   20CHTO   H48 8363   6.409   1.632   0.040 -0.1518  0.6219  0.4572
   20CHTO   O19 8364   6.332   1.715  -0.130  0.0754 -0.4951 -0.8565
   20CHTO   H35 8365   6.267   1.751  -0.072  1.1384 -0.6335  0.4439
   20CHTO   C21 8366   6.544   1.572  -0.120  0.4572  0.4660  0.2323
   20CHTO   H49 8367   6.531   1.555  -0.227 -1.0551  0.1739  0.4532
   20CHTO    N4 8368   6.637   1.683  -0.095 -0.1694 -0.7146 -0.3150
   20CHTO   H41 8369   6.654   1.712   0.008  1.2770 -0.5176 -0.5949
   20CHTO   H42 8370   6.733   1.668  -0.141  0.5479  2.1419  0.1601
   20CHTO   C22 8371   6.590   1.437  -0.057 -0.0773  0.0736 -0.1129
   20CHTO   H50 8372   6.608   1.446   0.051  0.4657  0.3160 -0.2257
   20CHTO   O14 8373   6.484   1.337  -0.076  0.2281 -0.1994  0.7713
   20CHTO   C23 8374   6.357   1.358  -0.017  0.5166 -0.0056 -0.6332
   20CHTO   H51 8375   6.370   1.368   0.092 -3.6253 -1.9547  0.1221
   20CHTO   C34 8376   6.269   1.232  -0.042 -0.1997 -0.2825 -0.0718
   20CHTO   O23 8377   6.150   1.245   0.040  0.6332 -0.2000  0.3191
   20CHTO   H38 8378   6.090   1.176   0.016 -1.5878  1.3606  1.2043
   20CHTO   O16 8379   6.709   1.393  -0.123 -0.9094  0.4354 -0.0589
   20CHTO   C24 8380   6.799   1.275  -0.051  0.4770 -0.3940 -0.5928
   20CHTO   H52 8381   6.771   1.264   0.054  0.7443 -1.4101 -0.6233
   20CHTO   C26 8382   6.946   1.324  -0.058 -0.6058  0.0183  0.1097
   20CHTO   H54 8383   6.974   1.340  -0.165 -1.9813  0.6993 -0.1593
   20CHTO   O20 8384   6.953   1.458   0.006 -0.7967  0.2370 -0.4668
   20CHTO   H36 8385   7.024   1.509  -0.027  0.1180 -2.1475 -2.3011
   20CHTO   C30 8386   7.037   1.219   0.009 -0.0648 -0.5107  0.1599
   20CHTO   H58 8387   7.030   1.218   0.119 -0.2753  1.3163  0.1753
   20CHTO    N6 8388   7.177   1.259  -0.009  0.4944  0.4300  0.5150
   20CHTO   H45 8389   7.194   1.361   0.022  0.8568  0.8798 -1.1085
   20CHTO   H46 8390   7.215   1.249  -0.109  2.1844  2.1162  0.9570
   20CHTO   C33 8391   7.010   1.076  -0.038  0.3893  0.3437 -0.1288
   20CHTO   H61 8392   7.049   1.059  -0.139  0.5276 -2.0147  0.2844
   20CHTO   O18 8393   6.866   1.046  -0.044 -0.4172  0.0193  0.0276
   20CHTO   C28 8394   6.790   1.135  -0.125 -1.1290  0.3360 -0.4105
   20CHTO   H56 8395   6.826   1.144  -0.227 -1.1589  0.8306 -0.3785
   20CHTO   C35 8396   6.651   1.074  -0.147 -0.1435  0.1091  0.0023
   20CHTO   O24 8397   6.661   0.941  -0.192  0.0058  0.2475 -0.0652
   20CHTO   H39 8398   6.582   0.910  -0.230 -0.3520  0.7254  0.2908
   20CHTO    O9 8399   7.075   0.982   0.041  0.4346  0.3401  0.9400
   20CHTO   C13 8400   7.144   0.826  -0.024 -0.1842  0.5943 -0.4417
   20CHTO   H26 8401   7.255   0.829  -0.022 -0.1963  1.6157 -0.9737
   20CHTO   C11 8402   7.093   0.790  -0.166 -0.4511  0.8795  0.5861
   20CHTO   H24 8403   7.144   0.863  -0.230 -2.3301 -1.1906 -3.5010
   20CHTO    O8 8404   6.949   0.809  -0.179 -0.6085  0.0160 -0.3659
   20CHTO    H3 8405   6.930   0.898  -0.202 -1.3990 -0.0207  0.1372
   20CHTO    C9 8406   7.151   0.645  -0.187  0.0168 -0.3131 -0.3232
   20CHTO   H22 8407   7.256   0.645  -0.153  0.0608 -1.1190 -0.4396
   20CHTO    N2 8408   7.163   0.620  -0.334  0.8942 -0.0068 -0.1459
   20CHTO   H10 8409   7.244   0.661  -0.393  0.1220  1.1997 -0.3914
   20CHTO   H11 8410   7.165   0.514  -0.358  0.9802  0.0584 -0.4386
   20CHTO    C7 8411   7.077   0.544  -0.102 -0.0931 -0.3095  0.0534
   20CHTO   H20 8412   7.144   0.456  -0.104  0.7984  0.3481  0.6812
   20CHTO    O4 8413   7.056   0.583   0.034  0.0707 -0.6738 -0.3894
   20CHTO   C14 8414   7.118   0.703   0.076 -0.4450  0.7178 -0.3265
   20CHTO   H27 8415   7.214   0.667   0.119 -0.3321  0.4155 -0.8343
   20CHTO   C18 8416   7.028   0.750   0.195 -0.0900 -0.5658 -0.2812
   20CHTO   O13 8417   7.029   0.661   0.310 -0.4081 -0.1878  0.3753
   20CHTO    H7 8418   6.947   0.619   0.327  1.3954 -3.4838  1.4204
   20CHTO    O2 8419   6.934   0.518  -0.170  0.1840  0.5969 -0.1310
   20CHTO    C1 8420   6.850   0.419  -0.106  0.2144 -0.7647 -0.6560
   20CHTO   H14 8421   6.864   0.435   0.004 -0.4230  0.9355 -0.8138
   20CHTO    C2 8422   6.869   0.269  -0.138  0.5929  0.2893  0.5705
   20CHTO   H15 8423   6.872   0.262  -0.247 -0.2202 -1.0230  0.6281
   20CHTO    O6 8424   6.998   0.230  -0.089  0.3856 -0.2489 -0.4582
   20CHTO    H1 8425   7.002   0.236   0.005 -0.9773 -0.6988 -0.3722
   20CHTO    C3 8426   6.748   0.169  -0.085  0.6040 -0.4278  0.2670
   20CHTO   H16 8427   6.749   0.166   0.025  1.0213  2.0262  0.3558
   20CHTO    N1 8428   6.758   0.033  -0.146  0.1651  0.1647  0.4654
   20CHTO    H8 8429   6.684  -0.039  -0.115 -0.9594  1.5202  0.9497
   20CHTO    H9 8430   6.859  -0.004  -0.135  2.0165  3.1412 -5.0320
   20CHTO    C4 8431   6.614   0.243  -0.128  0.1836 -0.6378  1.1322
   20CHTO   H17 8432   6.612   0.248  -0.237  1.5647 -0.5432  1.0977
   20CHTO    O1 8433   6.606   0.374  -0.073  0.4510 -0.0898  0.1781
   20CHTO    C5 8434   6.696   0.466  -0.128 -0.5226  0.3207 -0.3742
   20CHTO   H18 8435   6.676   0.468  -0.235  0.6118  1.7053 -0.5630
   20CHTO   C16 8436   6.664   0.599  -0.067  0.1536  1.0969  0.5549
   20CHTO   O11 8437   6.541   0.645  -0.127 -0.2839  0.0364 -0.5594
   20CHTO    H5 8438   6.504   0.697  -0.058  0.7886 -0.4046  0.3680
   20CHTO    O3 8439   6.490   0.174  -0.091 -0.1299 -0.4227 -0.3508
   20CHTO    C6 8440   6.358   0.192  -0.153  0.4499 -0.1892  0.4605
   20CHTO   H19 8441   6.356   0.273  -0.227  1.3153 -0.1350  0.4967
   20CHTO    C8 8442   6.342   0.062  -0.233  0.0810 -0.5599  0.3559
   20CHTO   H21 8443   6.355  -0.022  -0.164  0.1168 -1.6483 -0.9595
   20CHTO    O7 8444   6.449   0.049  -0.330  0.0042 -0.1177 -0.0386
   20CHTO    H2 8445   6.426  -0.011  -0.399 -2.7333 -0.1992  0.9005
   20CHTO   C12 8446   6.194   0.053  -0.305 -0.9036 -0.0594  0.7650
   20CHTO   H25 8447   6.196   0.141  -0.373 -1.5512 -0.2087  0.5534
   20CHTO    N3 8448   6.176  -0.072  -0.383  0.2337  0.0330  0.0534
   20CHTO   H12 8449   6.151  -0.034  -0.482  4.3101  0.1084 -1.0422
   20CHTO   H13 8450   6.264  -0.134  -0.379  0.6770  0.5638 -1.0265
   20CHTO   C15 8451   6.087   0.081  -0.192 -0.0736  0.4095 -1.0386
   20CHTO   H28 8452   6.063  -0.005  -0.129  0.4563  0.2518 -1.0499
   20CHTO   O10 8453   5.951   0.121  -0.251  0.3704  0.1570  0.1081
   20CHTO    H4 8454   5.939   0.061  -0.322  1.6781 -0.0828  0.0764
   20CHTO    O5 8455   6.110   0.203  -0.118  0.0268  0.0796  0.0583
   20CHTO   C10 8456   6.242   0.219  -0.055  0.5684  0.0168 -0.0783
   20CHTO   H23 8457   6.239   0.143   0.024  2.3448  0.5345  0.5067
   20CHTO   C17 8458   6.245   0.359  -0.004  0.4012 -0.3815 -0.4138
   20CHTO   O12 8459   6.154   0.380   0.104  0.1817  0.8884 -0.0504
   20CHTO    H6 8460   6.173   0.463   0.143  2.0676  0.8782 -0.9317
   21GLOH   H03 8461   9.877   5.010   2.499 -0.3436  0.1599  0.1721
   21GLOH    O1 8462   9.800   4.951   2.489 -0.1791 -0.1325  0.5634
   21GLOH    C1 8463   9.702   4.998   2.395  0.2285 -0.0356  0.8131
   21GLOH   H02 8464   9.610   4.945   2.420 -0.3178  0.1154 -0.8377
   21GLOH   H08 8465   9.722   4.966   2.293  2.3843  1.6873  0.6487
   21GLOH    C2 8466   9.672   5.149   2.405  0.3513  0.2695 -0.2346
   21GLOH   H04 8467   9.635   5.164   2.508 -0.0899 -0.4349 -0.2835
   21GLOH    O2 8468   9.791   5.230   2.375 -0.1982  0.0328 -0.2431
   21GLOH   H05 8469   9.867   5.201   2.429  0.2618 -1.8120 -1.8205
   21GLOH    C3 8470   9.561   5.190   2.305 -0.1783 -0.0922  0.2339
   21GLOH   H06 8471   9.600   5.181   2.203 -2.6266 -0.4608 -0.7032
   21GLOH   H07 8472   9.537   5.294   2.323 -0.7125 -0.3663  1.1412
   21GLOH    O3 8473   9.445   5.106   2.313 -0.1667  0.0233  0.3300
   21GLOH   H01 8474   9.470   5.028   2.261  1.1380 -0.0331  1.0060
   22GLOH   H03 8475   2.686   1.337   0.127  0.1001  0.6960  0.4717
   22GLOH    O1 8476   2.627   1.382   0.064 -0.0257  0.4836  0.4375
   22GLOH    C1 8477   2.654   1.320  -0.057 -0.1213  0.2597 -0.2885
   22GLOH   H02 8478   2.582   1.357  -0.130 -0.8232  0.4105  0.4721
   22GLOH   H08 8479   2.643   1.212  -0.048  0.4608  0.2051 -0.2129
   22GLOH    C2 8480   2.798   1.344  -0.112  0.4084 -0.5809  0.1613
   22GLOH   H04 8481   2.866   1.299  -0.038 -0.2986 -0.1408  1.0815
   22GLOH    O2 8482   2.820   1.268  -0.233 -0.6035  0.5267 -0.2989
   22GLOH   H05 8483   2.820   1.175  -0.204  2.2077 -0.5210 -3.2830
   22GLOH    C3 8484   2.834   1.490  -0.132 -0.0253  0.1305  0.4434
   22GLOH   H06 8485   2.765   1.542  -0.198  1.9951  0.3562 -1.5490
   22GLOH   H07 8486   2.929   1.487  -0.186 -0.4093 -0.2035 -0.2165
   22GLOH    O3 8487   2.854   1.566  -0.023  0.4109  0.2650  0.3340
   22GLOH   H01 8488   2.949   1.567  -0.001  0.4868  0.0354  0.0271
   23GLOH   H03 8489   1.107   4.808   0.043 -0.2714 -0.3091  0.7434
   23GLOH    O1 8490   1.125   4.893   0.088  0.2342 -0.0696  0.0991
   23GLOH    C1 8491   1.007   4.916   0.167  0.0870  0.1059  0.0737
   23GLOH   H02 8492   0.928   4.949   0.099 -1.1747 -0.1767  1.3622
   23GLOH   H08 8493   1.028   4.991   0.243  0.3256 -0.3663  0.4785
   23GLOH    C2 8494   0.947   4.809   0.250 -0.2333 -0.9080 -0.3079
   23GLOH   H04 8495   0.863   4.848   0.308  0.5614  1.8863 -0.9358
   23GLOH    O2 8496   0.899   4.707   0.155 -0.8288  0.4934 -0.2219
   23GLOH   H05 8497   0.808   4.689   0.183 -1.1891  0.1378 -1.6054
   23GLOH    C3 8498   1.057   4.755   0.342  0.7786  0.2840 -0.4330
   23GLOH   H06 8499   1.128   4.702   0.279  0.6375  0.5544 -0.8184
   23GLOH   H07 8500   1.003   4.682   0.404  0.6726  0.5182 -0.2475
   23GLOH    O3 8501   1.111   4.858   0.431  0.5901 -0.2550  0.2713
   23GLOH   H01 8502   1.184   4.831   0.490  1.9476  0.0838 -1.2205
   24GLOH   H03 8503   9.486   3.962   0.060 -2.2401  1.2216  0.7571
   24GLOH    O1 8504   9.538   4.027   0.008 -0.1443 -0.6382  0.4275
   24GLOH    C1 8505   9.619   3.965  -0.092 -0.8239  0.2104 -0.3860
   24GLOH   H02 8506   9.617   3.859  -0.067  2.0314  0.1876 -0.0054
   24GLOH   H08 8507   9.725   3.990  -0.082 -0.3706 -2.0670  0.9376
   24GLOH    C2 8508   9.572   3.993  -0.240  0.1487  0.4189  0.1249
   24GLOH   H04 8509   9.490   3.925  -0.268  0.0615 -0.1593  1.7692
   24GLOH    O2 8510   9.533   4.134  -0.262 -0.2297  0.3883 -0.5289
   24GLOH   H05 8511   9.449   4.136  -0.213 -0.1269 -3.0504 -0.0902
   24GLOH    C3 8512   9.674   3.962  -0.353 -0.1303 -0.2107  0.3097
   24GLOH   H06 8513   9.642   4.003  -0.449 -2.5841 -0.0862  1.1453
   24GLOH   H07 8514   9.697   3.856  -0.361  0.0204 -0.2493  1.2208
   24GLOH    O3 8515   9.801   4.030  -0.331 -0.4409  0.5671  0.4430
   24GLOH   H01 8516   9.793   4.123  -0.361  0.1439  0.1131 -1.1868
   25GLOH   H03 8517   3.357   4.578   0.396  0.8870  0.5434 -0.4385
   25GLOH    O1 8518   3.289   4.625   0.345 -0.0393 -0.0635  0.2106
   25GLOH    C1 8519   3.198   4.518   0.313  0.1671  0.7432  0.5933
   25GLOH   H02 8520   3.182   4.453   0.398  0.8522  0.7508  0.7299
   25GLOH   H08 8521   3.246   4.458   0.236 -2.4936 -0.5184 -0.1454
   25GLOH    C2 8522   3.075   4.573   0.245  0.2022 -0.4771  0.1239
   25GLOH   H04 8523   3.053   4.673   0.285  1.0300  0.4385 -1.6081
   25GLOH    O2 8524   3.104   4.596   0.104 -0.2169 -0.1784  0.1223
   25GLOH   H05 8525   3.198   4.616   0.089 -0.8144  2.9894  0.3405
   25GLOH    C3 8526   2.951   4.489   0.272  0.0524  0.2676  0.1006
   25GLOH   H06 8527   2.970   4.385   0.243 -1.7986  0.4136 -1.7813
   25GLOH   H07 8528   2.868   4.512   0.205  1.5670 -2.1938 -2.7605
   25GLOH    O3 8529   2.908   4.503   0.410  0.5390  0.2269 -0.5396
   25GLOH   H01 8530   2.815   4.475   0.408  0.2646  0.8592  1.6886
   26GLOH   H03 8531   0.480   5.720   0.969 -0.1227  3.0541 -2.7946
   26GLOH    O1 8532   0.388   5.726   1.002  0.2515 -0.7722 -0.7552
   26GLOH    C1 8533   0.404   5.704   1.145 -0.1020  0.6003 -0.7348
   26GLOH   H02 8534   0.392   5.795   1.205  1.2225  0.8997 -0.8894
   26GLOH   H08 8535   0.505   5.670   1.168 -0.2525 -0.9146 -2.2682
   26GLOH    C2 8536   0.309   5.589   1.192  0.5121  0.7749 -0.4114
   26GLOH   H04 8537   0.318   5.506   1.120  1.9052  1.6405 -1.2740
   26GLOH    O2 8538   0.341   5.539   1.323 -0.1992 -0.1060  0.3587
   26GLOH   H05 8539   0.421   5.489   1.301 -0.5998 -0.1472 -1.0664
   26GLOH    C3 8540   0.162   5.632   1.171 -0.1395 -0.4412 -0.3136
   26GLOH   H06 8541   0.137   5.707   1.246  1.3145 -1.0090  0.7756
   26GLOH   H07 8542   0.098   5.544   1.182  0.8999 -1.2123 -0.3190
   26GLOH    O3 8543   0.141   5.674   1.040 -0.2360 -0.0878  0.0926
   26GLOH   H01 8544   0.221   5.716   1.005  0.6394 -0.2675  1.8374
   27GLOH   H03 8545   1.604   3.530   2.337  0.6635 -1.9162  0.7786
   27GLOH    O1 8546   1.689   3.535   2.290  0.5070 -0.2963  0.6671
   27GLOH    C1 8547   1.794   3.528   2.387  0.9112  0.9729  0.6134
   27GLOH   H02 8548   1.867   3.450   2.363  0.0628  0.5433 -0.6249
   27GLOH   H08 8549   1.759   3.493   2.484  1.9020  0.3403  0.7537
   27GLOH    C2 8550   1.866   3.663   2.405  0.3556  0.1937 -0.5617
   27GLOH   H04 8551   1.792   3.729   2.453  2.2205  1.5391  0.5087
   27GLOH    O2 8552   1.977   3.668   2.501  0.1804 -0.0598  0.0920
   27GLOH   H05 8553   1.932   3.694   2.584 -2.8327 -2.0875 -0.8274
   27GLOH    C3 8554   1.895   3.719   2.262 -0.2380 -0.3807 -0.0753
   27GLOH   H06 8555   1.947   3.814   2.275 -1.2409  0.0603  0.7414
   27GLOH   H07 8556   1.808   3.748   2.204 -0.1311  0.7358  0.3012
   27GLOH    O3 8557   1.990   3.638   2.187  1.0051 -0.1771  0.1423
   27GLOH   H01 8558   2.007   3.671   2.097 -1.0863  1.8514  0.4292
   28GLOH   H03 8559   1.141   3.714   0.051 -0.4201 -1.4176 -1.9912
   28GLOH    O1 8560   1.237   3.698   0.057 -0.2623 -0.1054 -0.7702
   28GLOH    C1 8561   1.260   3.561   0.027 -0.4455  0.5181  0.3499
   28GLOH   H02 8562   1.251   3.543  -0.080  0.4765 -3.0921  0.8243
   28GLOH   H08 8563   1.200   3.486   0.079  1.9705 -0.4223  1.8145
   28GLOH    C2 8564   1.408   3.525   0.054 -0.1661  0.2090  0.3126
   28GLOH   H04 8565   1.434   3.551   0.157  2.6395  0.1094 -0.3155
   28GLOH    O2 8566   1.434   3.384   0.031 -0.2277 -0.6018  0.3155
   28GLOH   H05 8567   1.444   3.354  -0.061 -1.0233 -2.8564  0.9089
   28GLOH    C3 8568   1.510   3.618  -0.030  0.4512  0.1927  0.2848
   28GLOH   H06 8569   1.481   3.608  -0.135  2.9069  1.1601 -0.5057
   28GLOH   H07 8570   1.611   3.579  -0.024 -0.1044 -1.5154 -0.8441
   28GLOH    O3 8571   1.500   3.753   0.012 -0.0189  0.1294  1.0475
   28GLOH   H01 8572   1.408   3.770   0.040 -1.6369 -2.7826 -2.1517
   29GLOH   H03 8573   3.479   3.274   0.671  3.4791 -0.4699 -0.5609
   29GLOH    O1 8574   3.453   3.198   0.727 -0.0421  0.3784 -0.8888
   29GLOH    C1 8575   3.480   3.079   0.656  0.1996 -0.3034 -0.1446
   29GLOH   H02 8576   3.441   2.992   0.708  0.9235 -1.1400 -0.9814
   29GLOH   H08 8577   3.588   3.069   0.659  0.2520 -1.8451 -3.7793
   29GLOH    C2 8578   3.444   3.077   0.508  0.6568 -0.4446  0.2085
   29GLOH   H04 8579   3.504   3.160   0.467  1.4917 -0.4867  1.3311
   29GLOH    O2 8580   3.474   2.958   0.437 -0.3796 -0.2505  0.3735
   29GLOH   H05 8581   3.419   2.881   0.460 -0.6151  0.4457  2.2577
   29GLOH    C3 8582   3.298   3.115   0.494  0.4514 -0.5299  0.3616
   29GLOH   H06 8583   3.286   3.203   0.556 -0.8978 -0.5921  0.2102
   29GLOH   H07 8584   3.250   3.030   0.541  0.8889  0.4665  2.6431
   29GLOH    O3 8585   3.261   3.142   0.357  0.3500 -0.0767 -0.5425
   29GLOH   H01 8586   3.240   3.059   0.309  0.0826 -0.1484 -0.3071
   30GLOH   H03 8587   3.574   7.964   0.554  0.5626 -0.4051 -0.0168
   30GLOH    O1 8588   3.594   8.059   0.557  0.1921 -0.3312  0.1991
   30GLOH    C1 8589   3.655   8.095   0.684  0.3604  0.1759  0.0842
   30GLOH   H02 8590   3.572   8.092   0.755  0.0367  0.3919 -0.2855
   30GLOH   H08 8591   3.707   8.191   0.689 -0.5567  0.7280 -0.8724
   30GLOH    C2 8592   3.750   7.985   0.736  0.1235 -0.1005  0.5643
   30GLOH   H04 8593   3.824   7.973   0.655 -0.4728  1.2981 -0.2066
   30GLOH    O2 8594   3.824   8.023   0.855 -0.1214 -0.1631  0.5863
   30GLOH   H05 8595   3.912   7.982   0.856 -1.3683 -3.0060  1.3599
   30GLOH    C3 8596   3.680   7.856   0.750  0.1788 -0.0863 -0.2699
   30GLOH   H06 8597   3.598   7.869   0.820 -1.0485  0.3768 -1.7725
   30GLOH   H07 8598   3.745   7.777   0.788  0.8230  0.0100 -1.1506
   30GLOH    O3 8599   3.630   7.819   0.625  0.5653  0.0386 -0.0441
   30GLOH   H01 8600   3.614   7.723   0.624  0.2945  0.0871 -0.5758
   31GLOH   H03 8601   4.167   9.657   1.702  0.4928  0.3270  0.4214
   31GLOH    O1 8602   4.126   9.650   1.790 -0.3482  0.7944  0.0692
   31GLOH    C1 8603   4.204   9.709   1.892 -0.9311  0.2657  0.5682
   31GLOH   H02 8604   4.308   9.676   1.887 -1.0460  0.0237 -0.2904
   31GLOH   H08 8605   4.170   9.675   1.990 -1.8259 -2.6742 -0.7064
   31GLOH    C2 8606   4.212   9.862   1.893  0.3006 -0.0294 -0.2723
   31GLOH   H04 8607   4.252   9.885   1.793 -0.2403 -0.1405 -0.5180
   31GLOH    O2 8608   4.081   9.927   1.908 -0.1751 -0.1316  0.2171
   31GLOH   H05 8609   4.022   9.894   1.838  0.6928 -0.5813 -0.3088
   31GLOH    C3 8610   4.306   9.907   2.004 -0.8114  0.0251  0.2558
   31GLOH   H06 8611   4.304  10.016   2.000 -0.0834  0.0438  0.2737
   31GLOH   H07 8612   4.409   9.873   1.994 -0.8508 -0.2893  0.8885
   31GLOH    O3 8613   4.251   9.880   2.139 -0.3994 -0.3787  0.3052
   31GLOH   H01 8614   4.196   9.951   2.176  1.0964  1.2042 -0.3970
   32GLOH   H03 8615   2.458   2.252   2.632  0.6454 -0.5520  0.1828
   32GLOH    O1 8616   2.407   2.246   2.549  0.2038 -0.4473  0.4482
   32GLOH    C1 8617   2.337   2.118   2.543  0.5007  0.0882 -0.5417
   32GLOH   H02 8618   2.239   2.129   2.495 -1.7226 -1.0168  3.4673
   32GLOH   H08 8619   2.321   2.076   2.643 -1.1792  2.5513  0.2638
   32GLOH    C2 8620   2.411   2.005   2.471  0.5138  0.1771 -0.7861
   32GLOH   H04 8621   2.394   2.010   2.362  1.1078 -1.3764 -0.9532
   32GLOH    O2 8622   2.553   1.980   2.503 -0.4548  0.2048  0.4597
   32GLOH   H05 8623   2.600   1.966   2.419 -1.5088 -0.7541  0.0042
   32GLOH    C3 8624   2.331   1.876   2.495 -0.0536  0.4638  0.7368
   32GLOH   H06 8625   2.390   1.799   2.446 -0.7204 -2.3656  4.1288
   32GLOH   H07 8626   2.237   1.895   2.443  0.2269  1.6625  0.6546
   32GLOH    O3 8627   2.304   1.843   2.634  0.1331  0.4063 -0.0789
   32GLOH   H01 8628   2.385   1.805   2.673 -1.3041 -0.4763  2.1395
   33GLOH   H03 8629   2.037   3.430   0.255 -0.6182  0.0563 -0.9283
   33GLOH    O1 8630   1.953   3.385   0.236 -0.9122  0.3320 -0.2803
   33GLOH    C1 8631   1.980   3.274   0.151  0.8487 -0.0792 -0.1375
   33GLOH   H02 8632   2.061   3.219   0.199 -0.5643 -1.9704  0.1793
   33GLOH   H08 8633   2.000   3.300   0.047  1.1449  0.4872  0.0663
   33GLOH    C2 8634   1.864   3.172   0.144  0.2954 -0.4354 -0.0780
   33GLOH   H04 8635   1.777   3.224   0.102 -0.3162  0.7938  2.5749
   33GLOH    O2 8636   1.901   3.064   0.062 -0.5307  0.3921  0.9351
   33GLOH   H05 8637   1.874   3.090  -0.027 -0.0603  1.4064  1.0857
   33GLOH    C3 8638   1.820   3.134   0.288 -0.1111 -0.0290 -0.5071
   33GLOH   H06 8639   1.909   3.119   0.349 -0.1217 -4.7472 -1.5249
   33GLOH   H07 8640   1.765   3.040   0.292 -2.4187  1.3045 -0.1088
   33GLOH    O3 8641   1.745   3.237   0.346  0.9303  0.1956  0.2831
   33GLOH   H01 8642   1.807   3.312   0.352  0.1438  0.8523  0.3468
   34GLOH   H03 8643   3.855   3.380   1.259 -0.4970  1.0196  1.7819
   34GLOH    O1 8644   3.799   3.303   1.280 -0.4520  0.3703 -0.3362
   34GLOH    C1 8645   3.697   3.277   1.182 -0.2784 -0.8559  0.0261
   34GLOH   H02 8646   3.741   3.254   1.085  0.1096  2.4243 -0.6396
   34GLOH   H08 8647   3.639   3.369   1.180 -0.5047 -1.0126 -0.8495
   34GLOH    C2 8648   3.604   3.163   1.228 -0.8482 -0.6629  0.1323
   34GLOH   H04 8649   3.561   3.196   1.323 -1.0319 -0.5371  0.0062
   34GLOH    O2 8650   3.511   3.133   1.134 -0.0165 -0.6006  0.5576
   34GLOH   H05 8651   3.503   3.207   1.070  3.4203 -1.7027 -1.3059
   34GLOH    C3 8652   3.689   3.041   1.252  0.4861  0.0778  0.2744
   34GLOH   H06 8653   3.744   3.022   1.160 -2.2916  0.8967 -1.6166
   34GLOH   H07 8654   3.615   2.960   1.255  1.4969 -0.8513  0.5073
   34GLOH    O3 8655   3.775   3.056   1.365  0.3237  0.0027  0.3396
   34GLOH   H01 8656   3.803   3.149   1.362  1.9586 -0.4254  1.3528
   35GLOH   H03 8657   3.211   5.940   0.059 -1.5112 -0.0855 -1.8337
   35GLOH    O1 8658   3.155   5.881   0.113 -0.2920  0.0759 -0.3520
   35GLOH    C1 8659   3.222   5.850   0.238  0.6825 -0.4625  0.0641
   35GLOH   H02 8660   3.225   5.741   0.247 -2.0452 -0.7800 -2.1176
   35GLOH   H08 8661   3.149   5.872   0.316 -0.1108 -3.8489  0.3677
   35GLOH    C2 8662   3.354   5.927   0.271  0.6587  0.0386  0.1689
   35GLOH   H04 8663   3.427   5.858   0.226 -1.7692 -3.3076  1.1623
   35GLOH    O2 8664   3.364   6.059   0.222  0.4274 -0.4420  0.0277
   35GLOH   H05 8665   3.361   6.055   0.125 -1.4123  1.0606 -0.0104
   35GLOH    C3 8666   3.379   5.923   0.423 -0.1825  0.4209 -0.0244
   35GLOH   H06 8667   3.298   5.978   0.472  0.4929  0.8443  0.6274
   35GLOH   H07 8668   3.480   5.959   0.439 -0.6847  1.9607 -0.2152
   35GLOH    O3 8669   3.378   5.788   0.473 -0.3178 -0.2078 -0.0361
   35GLOH   H01 8670   3.403   5.795   0.567 -2.1837 -0.5131  0.5058
   36GLOH   H03 8671   9.221   4.395   1.008  1.1243  1.5149  2.1958
   36GLOH    O1 8672   9.314   4.367   0.995  0.1892 -0.3449 -1.0385
   36GLOH    C1 8673   9.366   4.311   1.117 -0.2214 -0.4971  0.3554
   36GLOH   H02 8674   9.288   4.314   1.193 -0.2284 -2.8911  0.4788
   36GLOH   H08 8675   9.449   4.369   1.158 -0.5417  0.3413 -0.1987
   36GLOH    C2 8676   9.410   4.167   1.108  0.1153  0.1449 -0.3220
   36GLOH   H04 8677   9.318   4.105   1.106  1.5372 -2.0314 -0.1623
   36GLOH    O2 8678   9.493   4.129   1.000  0.4544 -0.0311  0.4515
   36GLOH   H05 8679   9.453   4.151   0.914  2.0441  0.7631 -0.1273
   36GLOH    C3 8680   9.483   4.119   1.239  0.1142 -0.3848  0.4888
   36GLOH   H06 8681   9.580   4.165   1.253  0.1952  0.2872 -2.0552
   36GLOH   H07 8682   9.502   4.012   1.235 -0.8443 -0.6422  2.5099
   36GLOH    O3 8683   9.401   4.156   1.351 -0.1792 -0.5926  0.1013
   36GLOH   H01 8684   9.443   4.120   1.431 -0.5385 -0.1836  0.4740
   37GLOH   H03 8685   3.651   4.881   2.705  1.2845 -0.4456 -0.0666
   37GLOH    O1 8686   3.657   4.886   2.608 -0.1797 -0.2411 -0.1531
   37GLOH    C1 8687   3.690   5.016   2.566  0.3044 -0.2127 -0.3795
   37GLOH   H02 8688   3.791   5.036   2.604 -0.3603  3.3609 -0.3306
   37GLOH   H08 8689   3.633   5.092   2.618 -0.0609 -0.5528 -0.2823
   37GLOH    C2 8690   3.692   5.024   2.411  0.8785  0.3980 -0.1710
   37GLOH   H04 8691   3.605   4.973   2.369  0.9358  1.5190 -1.6774
   37GLOH    O2 8692   3.696   5.161   2.378 -0.2527  0.2631 -0.4595
   37GLOH   H05 8693   3.607   5.184   2.346 -1.3721 -1.1496  1.5454
   37GLOH    C3 8694   3.818   4.951   2.374 -0.3543 -0.6630  0.6564
   37GLOH   H06 8695   3.813   4.853   2.422 -3.0800 -0.6117  0.5198
   37GLOH   H07 8696   3.907   5.002   2.414 -1.5038  1.3296  0.7398
   37GLOH    O3 8697   3.818   4.931   2.235 -0.6168 -0.1894  0.1913
   37GLOH   H01 8698   3.793   5.012   2.187 -2.2391 -0.2792  0.8483
   38GLOH   H03 8699   0.840   5.304   0.949  1.5137 -0.3635 -0.7533
   38GLOH    O1 8700   0.796   5.220   0.970  0.0160  0.5011 -0.2731
   38GLOH    C1 8701   0.774   5.204   1.113  0.0241 -0.1017 -0.2044
   38GLOH   H02 8702   0.739   5.299   1.151 -0.1305 -0.3822  0.3568
   38GLOH   H08 8703   0.866   5.182   1.167 -1.9518 -0.3367  3.1827
   38GLOH    C2 8704   0.673   5.096   1.149 -0.0528  0.7324  0.3569
   38GLOH   H04 8705   0.702   5.066   1.251 -0.0457  0.0733  0.1636
   38GLOH    O2 8706   0.534   5.135   1.143  0.3654 -0.3143  0.2969
   38GLOH   H05 8707   0.481   5.059   1.112 -1.0670  0.6590  0.2937
   38GLOH    C3 8708   0.708   4.971   1.060 -0.0247 -0.1187  0.8239
   38GLOH   H06 8709   0.653   4.889   1.107  2.4427 -2.0434  0.4293
   38GLOH   H07 8710   0.813   4.945   1.070 -0.1759 -0.6468  1.0698
   38GLOH    O3 8711   0.681   4.990   0.919  0.9189  0.3093  0.2004
   38GLOH   H01 8712   0.713   5.081   0.901 -0.2895  1.0077  1.5136
   39GLOH   H03 8713   8.992   4.427   1.064  2.8448  2.4585  0.4090
   39GLOH    O1 8714   9.060   4.363   1.036  0.2176 -0.2092 -0.1940
   39GLOH    C1 8715   9.016   4.231   1.001 -0.1617  0.4166 -0.1089
   39GLOH   H02 8716   8.962   4.190   1.086 -0.5301 -3.4977 -2.1005
   39GLOH   H08 8717   9.103   4.168   0.981  0.3669  0.6694  1.3807
   39GLOH    C2 8718   8.915   4.242   0.885 -0.1346 -0.2125 -0.0722
   39GLOH   H04 8719   8.877   4.345   0.884  2.2369  0.6920 -1.3116
   39GLOH    O2 8720   8.972   4.230   0.755 -0.1694  0.3054  0.7483
   39GLOH   H05 8721   9.035   4.303   0.740  1.2360 -0.8776  0.8339
   39GLOH    C3 8722   8.798   4.151   0.892 -0.1833  0.1502  0.2409
   39GLOH   H06 8723   8.838   4.055   0.925  1.2507  0.6874  0.0634
   39GLOH   H07 8724   8.747   4.133   0.797  0.2761  0.4718 -0.0651
   39GLOH    O3 8725   8.702   4.190   0.990 -0.3428  0.2590  0.5619
   39GLOH   H01 8726   8.731   4.160   1.078  1.6462  1.0765  0.2133
   40GLOH   H03 8727   4.964   2.629   1.168  0.7511 -1.8863  0.7822
   40GLOH    O1 8728   4.966   2.582   1.083 -0.3081  0.3116 -0.5013
   40GLOH    C1 8729   4.941   2.437   1.103 -0.4622  0.2328  0.1449
   40GLOH   H02 8730   4.891   2.398   1.015  1.9228 -1.2979 -0.5631
   40GLOH   H08 8731   4.873   2.432   1.189  1.2751 -2.7733  1.4294
   40GLOH    C2 8732   5.071   2.352   1.121  0.1330  0.2669 -0.1567
   40GLOH   H04 8733   5.117   2.400   1.208 -0.0081  0.0193  0.0533
   40GLOH    O2 8734   5.031   2.216   1.149  0.6173 -0.2275  0.3674
   40GLOH   H05 8735   4.937   2.217   1.173  0.4446  0.2519 -0.2947
   40GLOH    C3 8736   5.160   2.357   1.001  0.2527  0.1260  0.3691
   40GLOH   H06 8737   5.233   2.277   1.007 -1.3957 -1.8495 -3.7306
   40GLOH   H07 8738   5.213   2.452   1.004  0.2861  0.1426 -0.7703
   40GLOH    O3 8739   5.094   2.339   0.869  0.3891 -0.4216  0.3265
   40GLOH   H01 8740   5.110   2.423   0.823 -1.7182  0.9633  2.0187
   41GLOH   H03 8741   3.055   7.452   0.583 -2.1513  1.6962  0.5988
   41GLOH    O1 8742   3.021   7.485   0.498 -0.3720  1.1322 -0.3508
   41GLOH    C1 8743   2.878   7.521   0.505  0.3926  0.1444 -0.3922
   41GLOH   H02 8744   2.874   7.615   0.562 -0.5562 -0.1643  0.0646
   41GLOH   H08 8745   2.818   7.453   0.565  2.1486 -1.7749 -0.7668
   41GLOH    C2 8746   2.799   7.542   0.372 -0.1500  0.3174 -0.3177
   41GLOH   H04 8747   2.859   7.603   0.303 -2.3334  2.5647 -0.2766
   41GLOH    O2 8748   2.781   7.419   0.307 -0.1101 -0.6069 -0.0096
   41GLOH   H05 8749   2.850   7.358   0.338 -0.2305 -0.3719  0.7241
   41GLOH    C3 8750   2.675   7.621   0.388  0.6835  0.3772  0.3931
   41GLOH   H06 8751   2.613   7.613   0.298  0.8105 -0.6439  0.3908
   41GLOH   H07 8752   2.692   7.728   0.401 -2.4851  1.6886 -4.7625
   41GLOH    O3 8753   2.588   7.573   0.493 -0.3661 -0.0583  0.4925
   41GLOH   H01 8754   2.554   7.485   0.466  0.6363 -0.4414  0.4405
   42GLOH   H03 8755   3.231   9.188   0.444 -0.7607  2.5378 -2.5206
   42GLOH    O1 8756   3.251   9.247   0.518 -0.4640 -0.3537 -0.1968
   42GLOH    C1 8757   3.391   9.240   0.558  0.2310 -0.5807  0.1822
   42GLOH   H02 8758   3.413   9.173   0.641 -2.2944 -2.4984 -0.6528
   42GLOH   H08 8759   3.414   9.340   0.595 -4.8411  0.9936 -0.5051
   42GLOH    C2 8760   3.492   9.213   0.440 -0.1677  0.9788 -0.7400
   42GLOH   H04 8761   3.598   9.223   0.466  0.2460 -0.8500 -1.6655
   42GLOH    O2 8762   3.456   9.085   0.389  0.6686  0.3732 -0.3407
   42GLOH   H05 8763   3.512   9.011   0.416 -1.4395 -1.4967 -0.9296
   42GLOH    C3 8764   3.454   9.304   0.322 -0.3091 -0.6834  0.3262
   42GLOH   H06 8765   3.355   9.282   0.283 -1.9908  1.5254  3.1024
   42GLOH   H07 8766   3.524   9.293   0.239  1.2300  2.4622  1.0936
   42GLOH    O3 8767   3.446   9.445   0.355 -0.7399  0.2106  1.1803
   42GLOH   H01 8768   3.353   9.454   0.385 -1.9658 -0.7566 -2.0644
   43GLOH   H03 8769   4.696   3.726   0.357 -1.0160 -0.2994  0.6883
   43GLOH    O1 8770   4.676   3.816   0.388 -0.1114  0.0059  0.3874
   43GLOH    C1 8771   4.668   3.816   0.532 -0.7108  0.4045 -0.4635
   43GLOH   H02 8772   4.651   3.715   0.569 -0.6666  0.7451  0.4961
   43GLOH   H08 8773   4.586   3.880   0.564 -1.0666  1.2660 -2.9885
   43GLOH    C2 8774   4.793   3.853   0.611 -0.3577 -0.6237 -0.0505
   43GLOH   H04 8775   4.826   3.957   0.598 -0.5656 -0.5445  0.0455
   43GLOH    O2 8776   4.771   3.823   0.751 -0.0756  0.5595  0.2979
   43GLOH   H05 8777   4.814   3.898   0.796  1.0097  1.3153 -1.9235
   43GLOH    C3 8778   4.918   3.768   0.561  0.2808 -0.1943  0.5373
   43GLOH   H06 8779   4.926   3.784   0.453 -0.2077 -0.0013  0.5260
   43GLOH   H07 8780   4.897   3.662   0.575  1.3686 -0.4308  0.4401
   43GLOH    O3 8781   5.038   3.799   0.638  0.1490 -0.2563  0.3836
   43GLOH   H01 8782   5.048   3.895   0.623 -2.1545 -0.1590 -0.6557
   44GLOH   H03 8783   4.264   4.821   0.889  1.7831  1.4731  3.4364
   44GLOH    O1 8784   4.180   4.862   0.918 -0.2112  0.3597 -0.4355
   44GLOH    C1 8785   4.179   5.002   0.884 -0.0768  0.1279  0.3919
   44GLOH   H02 8786   4.218   5.056   0.969  0.8377  0.0798  0.0044
   44GLOH   H08 8787   4.079   5.028   0.848  0.0078 -0.3001 -0.1639
   44GLOH    C2 8788   4.274   5.033   0.767  0.1161  0.0504  0.1046
   44GLOH   H04 8789   4.235   4.980   0.678 -2.6062  1.3122  0.4754
   44GLOH    O2 8790   4.282   5.172   0.755 -0.1515 -0.3692 -0.6850
   44GLOH   H05 8791   4.330   5.194   0.674  0.1438  1.5787 -0.0292
   44GLOH    C3 8792   4.411   4.980   0.801  0.5870  0.2523 -0.0986
   44GLOH   H06 8793   4.421   5.040   0.891 -2.3149  2.6483 -1.2877
   44GLOH   H07 8794   4.477   5.011   0.720 -0.8983  2.3163 -0.5829
   44GLOH    O3 8795   4.409   4.841   0.832 -0.1733  0.2189  0.1712
   44GLOH   H01 8796   4.475   4.797   0.775 -1.7287 -0.3498 -1.2435
   45GLOH   H03 8797   2.863   5.352   0.001 -0.1512 -0.4507  0.8089
   45GLOH    O1 8798   2.915   5.273  -0.025  0.4816  0.1823  0.1171
   45GLOH    C1 8799   2.966   5.192   0.090 -0.8766  0.0200  0.6636
   45GLOH   H02 8800   3.044   5.245   0.145  0.9279 -0.1744 -1.6505
   45GLOH   H08 8801   2.984   5.089   0.058  1.5940  0.0436  1.8339
   45GLOH    C2 8802   2.845   5.193   0.187  0.2635  0.5352 -0.5290
   45GLOH   H04 8803   2.765   5.147   0.128 -1.0716  0.5262  1.2484
   45GLOH    O2 8804   2.865   5.113   0.308  1.0037 -0.0334 -0.2192
   45GLOH   H05 8805   2.780   5.076   0.339  0.6945  1.7595  1.1438
   45GLOH    C3 8806   2.807   5.342   0.226  0.5349 -0.9335  0.0511
   45GLOH   H06 8807   2.892   5.398   0.265 -1.2368  0.5510  1.9091
   45GLOH   H07 8808   2.731   5.342   0.305 -0.0727 -1.5058 -0.5228
   45GLOH    O3 8809   2.770   5.426   0.111 -0.4945  0.1580 -0.2686
   45GLOH   H01 8810   2.684   5.469   0.125 -0.7286 -0.8287  1.3901
   46GLOH   H03 8811   4.234   9.861   0.354  0.3632  0.9986 -0.8064
   46GLOH    O1 8812   4.293   9.795   0.314 -0.2130  0.1919 -0.3349
   46GLOH    C1 8813   4.205   9.691   0.264  0.9084  0.5109 -0.4571
   46GLOH   H02 8814   4.249   9.634   0.183  0.8196 -2.1970  1.3146
   46GLOH   H08 8815   4.110   9.733   0.230 -0.5996 -0.8397  1.9379
   46GLOH    C2 8816   4.161   9.593   0.377  0.2102 -0.2384  0.3786
   46GLOH   H04 8817   4.138   9.649   0.470 -0.6793  1.5668 -0.8914
   46GLOH    O2 8818   4.044   9.510   0.339  0.3179  0.0024  0.2695
   46GLOH   H05 8819   4.074   9.418   0.327 -1.0018 -0.2931 -0.8154
   46GLOH    C3 8820   4.280   9.502   0.416  0.2050 -0.2281 -0.2543
   46GLOH   H06 8821   4.296   9.441   0.327  0.8461 -1.0509  0.4080
   46GLOH   H07 8822   4.252   9.432   0.495 -0.0083 -1.1151 -1.1112
   46GLOH    O3 8823   4.400   9.568   0.460  0.5960 -0.2221  0.2491
   46GLOH   H01 8824   4.425   9.643   0.404  0.0459  0.4009  0.8180
   47GLOH   H03 8825   3.931   8.309   1.629 -0.4481  3.4717 -2.6258
   47GLOH    O1 8826   4.002   8.272   1.572  0.1691 -0.1419  0.2899
   47GLOH    C1 8827   4.120   8.234   1.645 -0.2047 -0.8828 -0.0635
   47GLOH   H02 8828   4.189   8.186   1.575  1.1435  0.8355  0.0309
   47GLOH   H08 8829   4.105   8.162   1.725 -3.9237  0.7690  0.8266
   47GLOH    C2 8830   4.195   8.363   1.691 -0.3938 -0.0002  0.2801
   47GLOH   H04 8831   4.156   8.445   1.630 -0.3671  0.0377  0.3146
   47GLOH    O2 8832   4.150   8.409   1.825  0.5455 -0.4061  0.1341
   47GLOH   H05 8833   4.053   8.404   1.824  0.4682  0.8666  0.2782
   47GLOH    C3 8834   4.344   8.363   1.676  0.1918 -0.1487 -0.5603
   47GLOH   H06 8835   4.377   8.265   1.711  0.3472  0.4866  1.1224
   47GLOH   H07 8836   4.396   8.438   1.735 -0.4985  0.6139 -0.9140
   47GLOH    O3 8837   4.388   8.375   1.540  0.1721  0.2135  0.4171
   47GLOH   H01 8838   4.347   8.458   1.509  0.5592  0.6961  1.1725
   48GLOH   H03 8839   1.791   2.091   0.021  1.2758 -2.1043  2.0390
   48GLOH    O1 8840   1.878   2.072  -0.018  0.8036 -0.6713  0.2247
   48GLOH    C1 8841   1.863   1.973  -0.123  0.1908 -0.1935 -0.5427
   48GLOH   H02 8842   1.785   2.009  -0.190 -0.0686  3.8442  1.7787
   48GLOH   H08 8843   1.816   1.882  -0.084 -1.7906  1.1004  0.1327
   48GLOH    C2 8844   1.987   1.919  -0.195 -0.8660 -0.5255  0.1505
   48GLOH   H04 8845   2.060   1.997  -0.219 -0.5978 -1.0311 -0.6883
   48GLOH    O2 8846   2.051   1.827  -0.109  0.2472  1.0956 -0.0735
   48GLOH   H05 8847   2.139   1.799  -0.141 -0.1732 -1.1407  0.6198
   48GLOH    C3 8848   1.954   1.851  -0.333 -0.4089  0.1435 -0.2876
   48GLOH   H06 8849   1.859   1.798  -0.325  0.7782 -1.9908  0.0996
   48GLOH   H07 8850   2.032   1.777  -0.353 -1.1076 -0.8486  0.5968
   48GLOH    O3 8851   1.938   1.945  -0.440  0.2793  0.5534 -0.5320
   48GLOH   H01 8852   1.925   1.906  -0.528 -2.8968 -0.0394  0.1413
   49GLOH   H03 8853   4.357   3.054   1.890 -0.3229  0.8377 -0.3074
   49GLOH    O1 8854   4.305   2.972   1.892  0.8759  0.0690  0.4646
   49GLOH    C1 8855   4.273   2.930   1.756 -0.3382  0.1054  0.4934
   49GLOH   H02 8856   4.212   3.008   1.712 -1.6171 -0.2311  1.6307
   49GLOH   H08 8857   4.220   2.834   1.757  1.2855 -0.8202 -0.0799
   49GLOH    C2 8858   4.395   2.926   1.665 -0.0027 -0.7530 -0.7657
   49GLOH   H04 8859   4.462   2.850   1.709 -1.2166 -2.1201 -1.2342
   49GLOH    O2 8860   4.351   2.893   1.530  0.2684 -0.0976  0.2799
   49GLOH   H05 8861   4.422   2.909   1.465  0.9269 -1.9953  0.5094
   49GLOH    C3 8862   4.480   3.053   1.673  0.4305  0.3333  0.3647
   49GLOH   H06 8863   4.425   3.134   1.626  0.3873 -2.0600 -3.9811
   49GLOH   H07 8864   4.571   3.041   1.614 -0.4615  0.0804 -0.9807
   49GLOH    O3 8865   4.513   3.092   1.804  0.7842  0.0412 -0.6379
   49GLOH   H01 8866   4.600   3.067   1.839  1.4745  2.6394 -0.3843
   50GLOH   H03 8867   3.582   9.932   0.714  1.3736  1.1992 -0.2767
   50GLOH    O1 8868   3.564   9.962   0.805  0.1275  0.1956 -0.1811
   50GLOH    C1 8869   3.427   9.996   0.813 -0.6682 -0.1155  0.0599
   50GLOH   H02 8870   3.373   9.902   0.800 -0.7294 -0.3516  1.8852
   50GLOH   H08 8871   3.392  10.067   0.737 -0.6174 -0.5199 -0.3434
   50GLOH    C2 8872   3.384  10.050   0.954  0.5145  0.1074  0.8178
   50GLOH   H04 8873   3.451  10.132   0.983 -1.2895  1.7756  0.3696
   50GLOH    O2 8874   3.253  10.106   0.938  0.5731  0.2484  0.5972
   50GLOH   H05 8875   3.236  10.161   1.016 -0.6127 -2.0375  2.0307
   50GLOH    C3 8876   3.385   9.938   1.061  0.5682  0.2581 -0.5421
   50GLOH   H06 8877   3.327   9.852   1.029 -1.0123  1.1525 -0.1108
   50GLOH   H07 8878   3.340   9.968   1.156  1.3988 -1.6303  0.4828
   50GLOH    O3 8879   3.511   9.874   1.088 -0.4430  0.0492  0.0467
   50GLOH   H01 8880   3.560   9.948   1.129 -1.7996  1.8548 -1.5435
   51GLOH   H03 8881   4.131   0.248   0.628 -0.9804 -0.0490 -1.0766
   51GLOH    O1 8882   4.190   0.186   0.582  0.6500  0.7047 -0.0536
   51GLOH    C1 8883   4.275   0.138   0.687 -0.1409  0.1377 -0.3333
   51GLOH   H02 8884   4.310   0.222   0.747 -0.1353  0.4158 -0.7238
   51GLOH   H08 8885   4.366   0.099   0.643  0.2306  0.6382 -0.0098
   51GLOH    C2 8886   4.201   0.047   0.792 -0.1251 -0.0049  0.4376
   51GLOH   H04 8887   4.142  -0.024   0.732  1.0819 -1.3598  0.8050
   51GLOH    O2 8888   4.297  -0.021   0.877  0.1149  0.0502 -0.6633
   51GLOH   H05 8889   4.337   0.037   0.944 -0.2167  0.4437 -0.7988
   51GLOH    C3 8890   4.107   0.140   0.880  0.0308  0.1847  0.3224
   51GLOH   H06 8891   4.171   0.208   0.936  0.0113 -1.0050  1.8213
   51GLOH   H07 8892   4.062   0.074   0.954 -0.7752 -1.5087 -1.6257
   51GLOH    O3 8893   4.008   0.209   0.805  0.3040  0.6140 -0.0834
   51GLOH   H01 8894   3.917   0.176   0.819  0.1024  1.5020  0.6944
   52GLOH   H03 8895   3.393   4.804   2.080 -1.6417  0.3012 -0.4923
   52GLOH    O1 8896   3.406   4.875   2.014 -0.2732  0.3287 -0.2072
   52GLOH    C1 8897   3.525   4.865   1.933 -0.5529 -0.5419  0.5255
   52GLOH   H02 8898   3.569   4.766   1.937  0.3108 -0.1746  0.3250
   52GLOH   H08 8899   3.597   4.931   1.983  2.3025 -1.2933 -2.3907
   52GLOH    C2 8900   3.511   4.924   1.795  0.3820 -0.4190  0.2031
   52GLOH   H04 8901   3.467   5.024   1.807 -1.8115 -1.4528  0.9775
   52GLOH    O2 8902   3.642   4.940   1.737 -0.2593  0.0150  0.5151
   52GLOH   H05 8903   3.697   4.861   1.753  0.8180  0.6963  0.2815
   52GLOH    C3 8904   3.426   4.834   1.697  0.0865  0.0627 -0.1324
   52GLOH   H06 8905   3.475   4.737   1.683  0.1153 -0.1824  1.5284
   52GLOH   H07 8906   3.423   4.880   1.599 -0.1850  0.6793  0.1600
   52GLOH    O3 8907   3.299   4.809   1.761 -0.1013 -0.5082 -0.4003
   52GLOH   H01 8908   3.304   4.723   1.807  0.6798 -1.3413 -1.9856
   53GLOH   H03 8909   9.899   4.371   0.370 -1.4279 -0.5208 -1.6532
   53GLOH    O1 8910   9.974   4.337   0.319 -0.1712  0.0676 -0.2419
   53GLOH    C1 8911  10.021   4.449   0.244 -0.4452 -0.3760  0.6848
   53GLOH   H02 8912   9.934   4.470   0.181  0.7905 -1.6836 -1.5204
   53GLOH   H08 8913  10.102   4.425   0.176 -0.4751  0.6704  0.2710
   53GLOH    C2 8914  10.062   4.582   0.311 -0.4811 -0.0281 -0.9024
   53GLOH   H04 8915   9.985   4.608   0.385 -1.4361 -1.5999 -1.3268
   53GLOH    O2 8916  10.191   4.578   0.373 -0.2422 -0.2037  0.3950
   53GLOH   H05 8917  10.183   4.563   0.469 -1.2591 -3.1341 -0.1045
   53GLOH    C3 8918  10.061   4.687   0.199 -0.2817  0.2266 -0.9976
   53GLOH   H06 8919  10.121   4.653   0.115  0.4701  0.3807 -0.5301
   53GLOH   H07 8920  10.104   4.779   0.238  1.4753  0.3542 -3.1568
   53GLOH    O3 8921   9.933   4.717   0.154  0.0236 -0.0820  0.0986
   53GLOH   H01 8922   9.933   4.717   0.057 -1.8768  1.0622  0.0714
   54GLOH   H03 8923   4.846   4.070   0.057 -0.4044  0.4286 -0.4517
   54GLOH    O1 8924   4.884   3.990   0.017  0.0942  0.5301 -0.1839
   54GLOH    C1 8925   4.788   3.883   0.013 -0.1401 -0.4193 -0.1215
   54GLOH   H02 8926   4.709   3.901  -0.059 -1.7301 -1.8843  1.2154
   54GLOH   H08 8927   4.739   3.872   0.110 -1.3159  0.3932 -0.6139
   54GLOH    C2 8928   4.853   3.747  -0.024 -0.1917 -0.5028 -0.0041
   54GLOH   H04 8929   4.943   3.739   0.039  0.8644  1.4564 -1.2120
   54GLOH    O2 8930   4.755   3.638  -0.017 -0.2742  0.3580 -0.2898
   54GLOH   H05 8931   4.692   3.675   0.047 -2.5182 -0.4877 -1.9421
   54GLOH    C3 8932   4.912   3.737  -0.168  0.1058  0.3017 -1.1503
   54GLOH   H06 8933   4.954   3.637  -0.177  1.8813  0.6644  2.1283
   54GLOH   H07 8934   4.998   3.804  -0.161 -0.0511  0.4520 -0.5689
   54GLOH    O3 8935   4.811   3.764  -0.264 -0.7757 -0.3429  0.6019
   54GLOH   H01 8936   4.726   3.720  -0.245 -0.7212 -1.1773 -0.9706
   55GLOH   H03 8937   4.378   8.163   0.328 -0.7824  0.2753 -0.3057
   55GLOH    O1 8938   4.439   8.236   0.306 -0.2065 -0.1849 -0.2508
   55GLOH    C1 8939   4.514   8.225   0.182  0.0589  0.2569  0.5169
   55GLOH   H02 8940   4.613   8.193   0.214  0.2334 -1.1967 -1.4395
   55GLOH   H08 8941   4.541   8.319   0.134  1.9569 -0.8536 -0.6623
   55GLOH    C2 8942   4.464   8.125   0.079 -0.2400  0.1217  0.1543
   55GLOH   H04 8943   4.360   8.156   0.060  0.4638  2.5833  0.2194
   55GLOH    O2 8944   4.553   8.122  -0.038 -0.3351  0.2427  0.3173
   55GLOH   H05 8945   4.593   8.205  -0.068 -0.0491 -0.0824 -0.2069
   55GLOH    C3 8946   4.459   7.988   0.143 -0.7798  0.4149  0.3756
   55GLOH   H06 8947   4.550   7.969   0.200  0.4216 -2.5633 -2.3930
   55GLOH   H07 8948   4.453   7.902   0.076 -1.5731  2.1234 -1.7912
   55GLOH    O3 8949   4.346   7.991   0.239 -0.2510  0.0918 -0.2365
   55GLOH   H01 8950   4.260   7.992   0.192  0.1309  1.1156 -0.9080
   56GLOH   H03 8951   9.210   4.984   1.117  2.7510  1.0698 -2.3037
   56GLOH    O1 8952   9.142   5.038   1.073  0.4226  0.0796 -0.1029
   56GLOH    C1 8953   9.057   4.963   0.986  0.4844  0.1660 -0.3165
   56GLOH   H02 8954   9.088   4.975   0.882  1.4434  2.1655  0.1915
   56GLOH   H08 8955   8.954   4.995   1.002  0.1687 -1.1599  0.4098
   56GLOH    C2 8956   9.046   4.809   1.021  0.2865 -0.4694 -0.2914
   56GLOH   H04 8957   8.975   4.806   1.104  0.1416  0.1395 -0.3936
   56GLOH    O2 8958   8.997   4.723   0.921  0.1018  0.6234  0.4139
   56GLOH   H05 8959   9.025   4.747   0.830 -0.7581  0.6398  0.1497
   56GLOH    C3 8960   9.184   4.751   1.054 -0.9493  0.2192  0.0003
   56GLOH   H06 8961   9.248   4.758   0.967 -0.6885  3.8144  0.4077
   56GLOH   H07 8962   9.173   4.645   1.079  0.2116  0.0815 -0.0553
   56GLOH    O3 8963   9.242   4.811   1.171 -1.0877 -0.3974  0.7684
   56GLOH   H01 8964   9.324   4.760   1.182 -1.0013 -0.5088 -0.3418
   57GLOH   H03 8965   3.038   7.465   0.329  3.0328  1.0787  2.6332
   57GLOH    O1 8966   3.101   7.466   0.255  0.2099  0.0752  0.1150
   57GLOH    C1 8967   3.107   7.334   0.200 -0.2396  0.2273  0.6871
   57GLOH   H02 8968   3.162   7.332   0.106 -1.6612 -3.6520 -0.1635
   57GLOH   H08 8969   3.008   7.301   0.169  0.3302 -1.5568  0.6949
   57GLOH    C2 8970   3.147   7.220   0.294 -0.3889  0.1153 -0.0615
   57GLOH   H04 8971   3.125   7.228   0.402  0.7654 -1.4522  0.3067
   57GLOH    O2 8972   3.077   7.099   0.250 -0.5640  0.4997 -0.0086
   57GLOH   H05 8973   3.095   7.026   0.310 -1.6204  0.7949  0.6762
   57GLOH    C3 8974   3.298   7.185   0.282 -0.0910  0.0886  0.3157
   57GLOH   H06 8975   3.321   7.158   0.179  0.5946 -1.8398  0.9379
   57GLOH   H07 8976   3.324   7.099   0.344 -1.5555 -0.3847  0.2970
   57GLOH    O3 8977   3.377   7.302   0.302 -0.1658  0.4938 -0.1584
   57GLOH   H01 8978   3.368   7.329   0.395  1.0398  0.0659  0.0894
   58GLOH   H03 8979   4.202   4.405   2.447 -1.0302 -1.1292  2.5216
   58GLOH    O1 8980   4.127   4.465   2.462 -0.3836  0.2402  0.4979
   58GLOH    C1 8981   4.110   4.552   2.348  0.2983 -0.6983  0.2175
   58GLOH   H02 8982   4.055   4.644   2.367 -1.2807 -1.4252 -0.7857
   58GLOH   H08 8983   4.039   4.501   2.283 -1.3384  0.0327  1.4036
   58GLOH    C2 8984   4.232   4.588   2.264  0.2450  0.4641 -0.1047
   58GLOH   H04 8985   4.278   4.494   2.229 -3.0113 -0.6071 -1.7933
   58GLOH    O2 8986   4.210   4.655   2.140 -0.0520  0.7205 -0.3415
   58GLOH   H05 8987   4.131   4.712   2.134  0.7266  2.2287  2.6418
   58GLOH    C3 8988   4.341   4.660   2.341 -0.0978  0.2253 -0.2871
   58GLOH   H06 8989   4.428   4.679   2.280 -1.5440 -1.8426 -3.1535
   58GLOH   H07 8990   4.389   4.593   2.412  2.1174  0.4471 -1.5377
   58GLOH    O3 8991   4.291   4.784   2.391  0.3019 -0.2147  0.0963
   58GLOH   H01 8992   4.284   4.842   2.312  0.1537 -1.6943 -0.9959
   59GLOH   H03 8993   3.719   5.681   0.324  0.2760  0.5821  0.3230
   59GLOH    O1 8994   3.807   5.685   0.281  0.2946  0.0777  0.3130
   59GLOH    C1 8995   3.790   5.664   0.136  0.4194  0.9517  0.2794
   59GLOH   H02 8996   3.859   5.721   0.075  0.1969  0.0848 -0.8043
   59GLOH   H08 8997   3.698   5.718   0.113  0.6101  1.3764  0.5167
   59GLOH    C2 8998   3.795   5.516   0.095 -0.4960 -0.3645 -0.3350
   59GLOH   H04 8999   3.893   5.476   0.125  0.5277  2.6333  0.5345
   59GLOH    O2 9000   3.688   5.443   0.143 -0.3553  0.8263  0.4948
   59GLOH   H05 9001   3.676   5.356   0.101  0.1502  1.3301 -0.7088
   59GLOH    C3 9002   3.806   5.514  -0.060  0.3217  0.8006  0.8588
   59GLOH   H06 9003   3.775   5.415  -0.092  0.0586  1.6951 -1.7793
   59GLOH   H07 9004   3.914   5.522  -0.077  0.6233 -2.0174  1.2777
   59GLOH    O3 9005   3.730   5.613  -0.135 -0.1598  0.0290  0.2430
   59GLOH   H01 9006   3.728   5.589  -0.229  1.9070  0.7142 -0.0029
   60GLOH   H03 9007   4.100   5.490   0.349 -2.2616 -0.6428 -0.3003
   60GLOH    O1 9008   4.126   5.397   0.331 -0.3502 -0.1203 -0.3761
   60GLOH    C1 9009   3.993   5.338   0.338  0.0206 -0.1613 -0.6511
   60GLOH   H02 9010   3.989   5.257   0.265  0.4744 -0.6524 -0.1361
   60GLOH   H08 9011   3.917   5.410   0.308 -0.8492  0.2732  2.4340
   60GLOH    C2 9012   3.962   5.279   0.483  1.0250  0.2077  0.2098
   60GLOH   H04 9013   3.973   5.355   0.562  0.1241 -0.9339  1.4517
   60GLOH    O2 9014   3.836   5.211   0.468 -0.2153 -0.1233 -0.3259
   60GLOH   H05 9015   3.860   5.121   0.442 -0.1913 -0.7239  1.6846
   60GLOH    C3 9016   4.067   5.172   0.527  0.0962 -0.6593  0.0594
   60GLOH   H06 9017   4.061   5.144   0.632  0.2207  0.7506  0.4490
   60GLOH   H07 9018   4.169   5.208   0.517 -0.4044  0.2774 -1.8746
   60GLOH    O3 9019   4.051   5.050   0.445 -0.5338 -0.0736 -0.3381
   60GLOH   H01 9020   4.132   5.033   0.393 -0.8074  0.1348 -0.8312
   61GLOH   H03 9021   4.074   5.242   2.028 -0.3098 -0.2035 -1.0429
   61GLOH    O1 9022   4.110   5.152   2.021 -0.5531 -0.3974  0.2427
   61GLOH    C1 9023   4.211   5.128   1.919  0.0234 -0.5054 -0.1741
   61GLOH   H02 9024   4.276   5.214   1.908 -1.1027  0.4110  0.1976
   61GLOH   H08 9025   4.160   5.115   1.823 -1.3430  1.1880  0.2903
   61GLOH    C2 9026   4.278   4.997   1.956  0.6314  0.1167  0.5138
   61GLOH   H04 9027   4.199   4.922   1.944  1.3896 -1.1147  3.0033
   61GLOH    O2 9028   4.386   4.960   1.867 -0.3345 -0.2054  0.2644
   61GLOH   H05 9029   4.427   4.882   1.907  2.3940  1.4027  0.7503
   61GLOH    C3 9030   4.333   5.005   2.103 -0.2951  0.7107 -0.8270
   61GLOH   H06 9031   4.379   5.103   2.111  2.1332 -0.3237 -1.5066
   61GLOH   H07 9032   4.415   4.938   2.130  1.7688  2.3476 -2.8613
   61GLOH    O3 9033   4.227   5.005   2.203 -0.0191  0.3308 -0.6033
   61GLOH   H01 9034   4.152   5.048   2.159 -0.2782  0.0386 -0.4544
   62GLOH   H03 9035   4.865   1.371   0.652  0.2682  0.9068 -2.4910
   62GLOH    O1 9036   4.906   1.449   0.694 -0.2042 -0.1759  0.0959
   62GLOH    C1 9037   4.907   1.563   0.599 -0.1336  0.2670 -0.2229
   62GLOH   H02 9038   4.807   1.604   0.588 -0.8313 -1.7452 -1.5871
   62GLOH   H08 9039   4.939   1.533   0.499 -1.2415 -0.5504 -0.3447
   62GLOH    C2 9040   4.991   1.677   0.660  0.6284  0.4014 -0.3913
   62GLOH   H04 9041   5.085   1.627   0.686 -0.1481 -2.3345 -2.6326
   62GLOH    O2 9042   5.029   1.774   0.563  1.0811 -0.4061 -0.1945
   62GLOH   H05 9043   5.038   1.859   0.610  0.1154 -1.9194  2.8658
   62GLOH    C3 9044   4.914   1.733   0.777  0.3010 -0.5775  0.2174
   62GLOH   H06 9045   4.831   1.787   0.731 -0.3857 -2.5076 -0.8581
   62GLOH   H07 9046   4.957   1.819   0.829 -0.0911 -0.9613  1.1955
   62GLOH    O3 9047   4.868   1.626   0.860 -0.4546  0.3498 -0.0560
   62GLOH   H01 9048   4.898   1.546   0.812  1.7704 -0.0737  1.9228
   63GLOH   H03 9049   1.556   4.146   0.554  0.4171  0.7229  0.0694
   63GLOH    O1 9050   1.604   4.126   0.472  0.2218 -0.1431  0.1686
   63GLOH    C1 9051   1.527   4.043   0.388 -0.1235  0.6218 -0.6508
   63GLOH   H02 9052   1.421   4.066   0.397 -0.2231  0.2121 -0.7429
   63GLOH   H08 9053   1.536   3.934   0.397  1.5136  0.8709  1.0468
   63GLOH    C2 9054   1.558   4.073   0.240 -0.1239 -0.3060  0.2742
   63GLOH   H04 9055   1.658   4.032   0.219 -0.1980 -0.2808 -0.1232
   63GLOH    O2 9056   1.464   3.986   0.163 -0.5567 -0.0721 -0.6125
   63GLOH   H05 9057   1.392   3.965   0.225  0.6919  1.7016  1.5060
   63GLOH    C3 9058   1.549   4.224   0.193  0.6780 -0.4351  0.5765
   63GLOH   H06 9059   1.542   4.232   0.084  1.8146 -1.8391  0.3839
   63GLOH   H07 9060   1.646   4.261   0.226  0.8806  0.5284 -1.0286
   63GLOH    O3 9061   1.435   4.301   0.234 -0.7142  0.0603  0.5564
   63GLOH   H01 9062   1.358   4.242   0.247 -0.9955  0.4058  0.4442
   64GLOH   H03 9063   0.949   4.376   0.691  0.3168  0.3181  0.7040
   64GLOH    O1 9064   0.864   4.424   0.698  0.4930  0.7406 -0.0050
   64GLOH    C1 9065   0.838   4.501   0.583 -0.0187  0.2366 -0.4107
   64GLOH   H02 9066   0.810   4.447   0.493 -3.0431  1.5240 -0.3118
   64GLOH   H08 9067   0.926   4.560   0.557 -0.3560 -0.1093 -2.4218
   64GLOH    C2 9068   0.720   4.592   0.625  0.9879 -0.2333  0.5924
   64GLOH   H04 9069   0.733   4.644   0.721 -0.3114  3.1203 -0.9500
   64GLOH    O2 9070   0.697   4.695   0.526  0.6605 -0.2056  0.3577
   64GLOH   H05 9071   0.709   4.784   0.563 -2.2215  0.7019 -0.8056
   64GLOH    C3 9072   0.593   4.505   0.639 -0.3199 -0.2514  0.1055
   64GLOH   H06 9073   0.616   4.432   0.717 -2.1078 -0.1603  0.7171
   64GLOH   H07 9074   0.577   4.470   0.537 -1.4632  1.5365 -0.3542
   64GLOH    O3 9075   0.474   4.588   0.672  0.1067  0.3261 -0.3778
   64GLOH   H01 9076   0.499   4.683   0.666  1.2538  0.1075  0.6279
   65GLOH   H03 9077   2.958   5.771   0.350 -0.4042  0.5618  0.7042
   65GLOH    O1 9078   2.901   5.818   0.286  0.0093  0.3317  0.1621
   65GLOH    C1 9079   2.862   5.945   0.351  0.3351  0.0764 -0.2727
   65GLOH   H02 9080   2.787   5.995   0.289 -0.3070  3.0761  2.7596
   65GLOH   H08 9081   2.945   6.007   0.385  1.9499 -2.6103  0.7622
   65GLOH    C2 9082   2.783   5.915   0.481  0.2702 -0.3153 -0.1369
   65GLOH   H04 9083   2.854   5.858   0.541  1.2728 -0.6447 -1.6144
   65GLOH    O2 9084   2.751   6.044   0.547 -0.0513  0.2201  0.0326
   65GLOH   H05 9085   2.838   6.084   0.557 -0.9514  1.4068  4.1506
   65GLOH    C3 9086   2.647   5.841   0.459  0.1455 -0.0404  0.0319
   65GLOH   H06 9087   2.579   5.909   0.408 -1.4342 -2.4356 -1.1526
   65GLOH   H07 9088   2.597   5.820   0.553 -3.2644  0.8848 -1.4718
   65GLOH    O3 9089   2.665   5.716   0.398  0.7310 -0.7643 -0.0373
   65GLOH   H01 9090   2.700   5.722   0.307  0.9513  0.4682  0.1109
   66GLOH   H03 9091   4.506   8.209   2.433 -0.4018 -1.7550 -1.7103
   66GLOH    O1 9092   4.512   8.282   2.369 -0.1780 -0.2221  0.0163
   66GLOH    C1 9093   4.482   8.407   2.431  0.1751 -0.2596  0.1869
   66GLOH   H02 9094   4.415   8.388   2.515  1.8316 -0.3015  1.5214
   66GLOH   H08 9095   4.431   8.472   2.360  0.5909  2.2759  2.1212
   66GLOH    C2 9096   4.617   8.477   2.475 -0.1926  0.2474 -0.5254
   66GLOH   H04 9097   4.681   8.481   2.386  2.2271 -1.2576  1.0983
   66GLOH    O2 9098   4.583   8.607   2.524 -0.7784  0.1258 -0.4266
   66GLOH   H05 9099   4.531   8.658   2.459  0.2859  0.1876 -1.2404
   66GLOH    C3 9100   4.689   8.384   2.573 -1.0281 -0.0585  0.4554
   66GLOH   H06 9101   4.766   8.445   2.620  1.9473 -0.8609 -3.1814
   66GLOH   H07 9102   4.744   8.311   2.513 -3.6548 -0.9756 -0.9115
   66GLOH    O3 9103   4.605   8.316   2.662  0.0907 -0.0596 -0.3563
   66GLOH   H01 9104   4.561   8.385   2.715 -1.0153 -2.5868  2.1435
   67GLOH   H03 9105   3.183   6.145   1.402 -0.0259  1.1378 -0.9392
   67GLOH    O1 9106   3.270   6.163   1.443 -0.1694  0.2237 -0.2318
   67GLOH    C1 9107   3.311   6.030   1.490  0.5623  0.2033 -0.4456
   67GLOH   H02 9108   3.272   6.007   1.589 -2.2376 -3.3765 -2.2514
   67GLOH   H08 9109   3.420   6.032   1.494  0.6270 -0.2577 -1.8597
   67GLOH    C2 9110   3.264   5.921   1.391  0.0386  0.3743  0.4719
   67GLOH   H04 9111   3.315   5.943   1.296  0.3987  3.7582  1.3781
   67GLOH    O2 9112   3.314   5.789   1.438  0.1102 -0.1301 -0.2417
   67GLOH   H05 9113   3.259   5.753   1.510  1.1043  3.1831  2.3238
   67GLOH    C3 9114   3.111   5.921   1.393 -0.0770 -0.1537  0.2950
   67GLOH   H06 9115   3.068   5.888   1.487 -1.5586  1.7954  0.3120
   67GLOH   H07 9116   3.087   5.846   1.317  1.3497  0.4838 -0.8114
   67GLOH    O3 9117   3.061   6.049   1.361 -0.2050  0.0688 -0.5205
   67GLOH   H01 9118   3.061   6.052   1.264  0.4726  1.9296 -0.4726
   68GLOH   H03 9119   1.519   5.761   2.129 -2.4112  0.3705  1.9504
   68GLOH    O1 9120   1.485   5.843   2.086  0.3732  0.6048  0.1038
   68GLOH    C1 9121   1.482   5.832   1.945  0.0068  0.3493  0.2797
   68GLOH   H02 9122   1.584   5.826   1.907  0.4930  1.6831  1.3509
   68GLOH   H08 9123   1.442   5.920   1.895  1.3147 -0.4178 -2.2293
   68GLOH    C2 9124   1.415   5.703   1.903 -0.4547 -0.4149  0.2769
   68GLOH   H04 9125   1.316   5.690   1.950  1.1296  0.7328  4.1316
   68GLOH    O2 9126   1.387   5.717   1.765 -0.1433 -0.4264  0.1729
   68GLOH   H05 9127   1.293   5.692   1.752  0.7976 -2.4379 -3.7128
   68GLOH    C3 9128   1.511   5.585   1.919 -0.1420  0.0646 -0.1448
   68GLOH   H06 9129   1.595   5.599   1.851  0.1299 -1.1263 -0.0604
   68GLOH   H07 9130   1.461   5.494   1.887  0.2849  0.1625 -1.1169
   68GLOH    O3 9131   1.565   5.585   2.049  0.4668  0.3023 -0.1499
   68GLOH   H01 9132   1.548   5.503   2.098  2.8342  0.0712  0.3523
   69GLOH   H03 9133   4.034   5.266   1.034 -2.8737  0.6216 -1.1362
   69GLOH    O1 9134   3.991   5.262   1.121 -0.0436 -0.6149  0.2699
   69GLOH    C1 9135   3.960   5.123   1.157 -0.3074 -1.0592  0.3349
   69GLOH   H02 9136   4.038   5.052   1.130 -0.8128 -1.0721 -1.1142
   69GLOH   H08 9137   3.880   5.089   1.092 -0.8496 -0.0701  0.4727
   69GLOH    C2 9138   3.919   5.111   1.301  0.1987  0.5747  0.1159
   69GLOH   H04 9139   3.835   5.180   1.318  0.3759  1.2042 -1.4198
   69GLOH    O2 9140   3.893   4.976   1.346 -0.4008 -0.6331  0.0756
   69GLOH   H05 9141   3.825   4.974   1.416  0.9169 -1.3278  1.3559
   69GLOH    C3 9142   4.026   5.163   1.398 -0.5020 -0.2589  1.0220
   69GLOH   H06 9143   4.104   5.088   1.405 -1.4465 -1.4412 -0.6396
   69GLOH   H07 9144   3.964   5.167   1.488  0.6796 -3.5743  2.0109
   69GLOH    O3 9145   4.082   5.292   1.364  0.2098  0.3081 -0.3536
   69GLOH   H01 9146   4.072   5.301   1.268 -0.1700 -1.5976 -0.5054
   70GLOH   H03 9147   4.819   4.562   0.740 -1.7378  0.2774 -1.1213
   70GLOH    O1 9148   4.857   4.636   0.689  0.0222  0.1639 -0.0248
   70GLOH    C1 9149   4.984   4.605   0.627  0.2089 -0.3551  0.2037
   70GLOH   H02 9150   5.068   4.621   0.694 -0.6592  1.2287  0.9457
   70GLOH   H08 9151   4.988   4.676   0.544  0.1311 -1.3429 -0.6580
   70GLOH    C2 9152   5.000   4.462   0.563  0.0293 -0.0288 -0.3607
   70GLOH   H04 9153   5.107   4.455   0.543  0.3392 -0.8421  1.5072
   70GLOH    O2 9154   4.966   4.354   0.657  0.2338  0.0948 -0.0669
   70GLOH   H05 9155   5.028   4.368   0.731 -0.0375  4.3227 -0.5366
   70GLOH    C3 9156   4.920   4.451   0.432  0.1133 -0.2295 -0.6910
   70GLOH   H06 9157   4.816   4.476   0.456  0.2644 -1.5317  1.4799
   70GLOH   H07 9158   4.923   4.346   0.404  2.4246 -1.1044  2.4791
   70GLOH    O3 9159   4.977   4.537   0.341  0.3905 -0.0207  0.1164
   70GLOH   H01 9160   5.041   4.479   0.297 -2.2360 -2.2878 -0.8669
   71GLOH   H03 9161   0.483   4.183   0.260 -1.4982  2.0917 -0.3396
   71GLOH    O1 9162   0.521   4.187   0.170 -0.5036 -0.1896 -0.0489
   71GLOH    C1 9163   0.669   4.185   0.180 -0.1553  0.1495 -0.3619
   71GLOH   H02 9164   0.701   4.239   0.091 -0.3601  3.5085  1.4899
   71GLOH   H08 9165   0.709   4.084   0.173  2.6168  1.1189  0.5829
   71GLOH    C2 9166   0.732   4.247   0.307 -0.7469  0.7869 -0.0041
   71GLOH   H04 9167   0.673   4.333   0.341 -1.6735  0.1859 -0.0795
   71GLOH    O2 9168   0.720   4.151   0.417  0.0036  0.8111  0.0087
   71GLOH   H05 9169   0.625   4.132   0.420 -0.2718  2.2408  1.0232
   71GLOH    C3 9170   0.880   4.288   0.278 -0.1571  0.5279  0.6265
   71GLOH   H06 9171   0.946   4.211   0.239 -1.1576 -1.5882  3.0090
   71GLOH   H07 9172   0.907   4.330   0.375 -1.5980 -1.2733  1.8423
   71GLOH    O3 9173   0.874   4.391   0.186  0.3927 -0.1409 -0.6677
   71GLOH   H01 9174   0.966   4.416   0.165  0.6657 -1.4934 -1.1055
   72GLOH   H03 9175   2.596   2.565   2.005  0.5517 -0.0840  1.0852
   72GLOH    O1 9176   2.673   2.530   1.956 -0.1089  0.2625 -0.1935
   72GLOH    C1 9177   2.636   2.527   1.819  0.3140 -0.7806  0.5452
   72GLOH   H02 9178   2.649   2.627   1.779 -0.8083 -0.4383  1.0174
   72GLOH   H08 9179   2.531   2.504   1.802  1.2113 -3.5503 -1.8037
   72GLOH    C2 9180   2.717   2.434   1.729  0.3566 -0.6099 -0.0276
   72GLOH   H04 9181   2.685   2.333   1.756 -0.6946 -0.0969  0.6954
   72GLOH    O2 9182   2.667   2.446   1.589  0.5971  0.2678 -0.3664
   72GLOH   H05 9183   2.735   2.424   1.523  2.0457 -1.4076  1.6211
   72GLOH    C3 9184   2.868   2.440   1.746  0.7244  0.1284 -0.6984
   72GLOH   H06 9185   2.918   2.523   1.698 -0.1932  0.5727 -0.9092
   72GLOH   H07 9186   2.911   2.349   1.703 -2.2844 -1.9151  0.4572
   72GLOH    O3 9187   2.893   2.438   1.893 -0.2944 -1.1200 -0.1481
   72GLOH   H01 9188   2.812   2.458   1.943  1.3665  1.2311  1.6713
   73GLOH   H03 9189   4.451   2.391   2.154  2.0888  1.5294 -1.1431
   73GLOH    O1 9190   4.508   2.316   2.179  0.0394  0.2212 -0.2143
   73GLOH    C1 9191   4.634   2.333   2.104  0.2384  0.5066  0.4720
   73GLOH   H02 9192   4.637   2.437   2.072  1.1596  0.3812  0.1252
   73GLOH   H08 9193   4.636   2.277   2.011 -1.3330  0.4506  0.4642
   73GLOH    C2 9194   4.771   2.307   2.176  0.0365  0.0815 -0.4733
   73GLOH   H04 9195   4.775   2.386   2.253 -1.0803  1.6138 -1.9393
   73GLOH    O2 9196   4.774   2.177   2.238  0.7196  0.0158 -0.7960
   73GLOH   H05 9197   4.857   2.147   2.278 -0.0807 -0.3919  0.6286
   73GLOH    C3 9198   4.887   2.343   2.081  0.6919 -0.1729 -0.4092
   73GLOH   H06 9199   4.889   2.282   1.991 -1.0004  0.3363 -0.8218
   73GLOH   H07 9200   4.980   2.315   2.130  0.8144 -1.9288 -1.6243
   73GLOH    O3 9201   4.885   2.486   2.050  0.5857  0.5885 -0.0549
   73GLOH   H01 9202   4.884   2.527   2.138  0.7976 -2.2544  1.3006
   74GLOH   H03 9203   9.308   5.095   0.100  2.6274 -1.6189 -0.7071
   74GLOH    O1 9204   9.350   5.171   0.144  0.1168 -0.6045  0.0432
   74GLOH    C1 9205   9.270   5.290   0.177 -0.8914 -1.0631 -0.1795
   74GLOH   H02 9206   9.165   5.263   0.177 -1.3410  0.6240 -1.5887
   74GLOH   H08 9207   9.289   5.359   0.096 -2.2415  0.6720  0.9569
   74GLOH    C2 9208   9.310   5.360   0.313 -0.6344  0.1984 -1.2718
   74GLOH   H04 9209   9.420   5.367   0.319 -0.5782 -1.1427 -0.5452
   74GLOH    O2 9210   9.253   5.492   0.324  0.2081 -0.2056 -0.7428
   74GLOH   H05 9211   9.291   5.548   0.393 -1.4996  0.9257 -0.6972
   74GLOH    C3 9212   9.264   5.280   0.435  0.0466  0.5179 -0.1309
   74GLOH   H06 9213   9.158   5.296   0.455  0.2844  0.7024  1.0375
   74GLOH   H07 9214   9.308   5.338   0.516  0.4448  1.3717 -0.9471
   74GLOH    O3 9215   9.309   5.148   0.427  0.0326  0.0855 -0.1645
   74GLOH   H01 9216   9.279   5.108   0.343 -1.2520  2.3415 -0.8376
   75GLOH   H03 9217   0.976   5.222   1.478 -0.0459  0.5529  3.1200
   75GLOH    O1 9218   0.980   5.311   1.439 -0.4331 -0.5793  0.3898
   75GLOH    C1 9219   1.097   5.391   1.454 -0.6948  0.1522 -0.1287
   75GLOH   H02 9220   1.175   5.352   1.388 -0.4633  3.1043 -1.6856
   75GLOH   H08 9221   1.126   5.371   1.557 -0.8098  1.0043  0.0656
   75GLOH    C2 9222   1.072   5.540   1.438  0.5059 -0.4005  0.1674
   75GLOH   H04 9223   0.980   5.558   1.495 -0.2083 -4.4042  0.3799
   75GLOH    O2 9224   1.173   5.620   1.496  0.2335 -0.4957 -0.7172
   75GLOH   H05 9225   1.160   5.624   1.592  2.1803 -0.9668 -0.4094
   75GLOH    C3 9226   1.030   5.569   1.294 -0.1983  0.2256 -0.7110
   75GLOH   H06 9227   1.115   5.561   1.226  0.1110  0.0502 -0.3086
   75GLOH   H07 9228   1.017   5.676   1.283 -0.8734  0.1590 -0.5711
   75GLOH    O3 9229   0.911   5.492   1.255  0.2283 -0.1901 -0.2798
   75GLOH   H01 9230   0.896   5.414   1.312 -2.6644  0.5536  0.0477
   76GLOH   H03 9231   3.665   4.005   1.873 -1.4086 -0.0683  0.6082
   76GLOH    O1 9232   3.609   3.985   1.796 -0.7794 -0.2385  0.1918
   76GLOH    C1 9233   3.689   3.927   1.691  0.2300 -0.5310 -0.0940
   76GLOH   H02 9234   3.626   3.865   1.628  1.2049 -0.4488 -1.1646
   76GLOH   H08 9235   3.771   3.868   1.732  0.9550 -0.0820 -0.8906
   76GLOH    C2 9236   3.763   4.042   1.616  0.4505  0.3404 -0.0905
   76GLOH   H04 9237   3.689   4.107   1.568 -0.6718  0.3014  1.5489
   76GLOH    O2 9238   3.845   4.112   1.709 -0.8284  0.1177 -0.1718
   76GLOH   H05 9239   3.894   4.179   1.659 -1.6785  2.7264  2.3267
   76GLOH    C3 9240   3.871   3.982   1.510 -0.2243  0.1850 -0.1020
   76GLOH   H06 9241   3.938   3.915   1.563  0.7439  1.4774  0.3324
   76GLOH   H07 9242   3.925   4.063   1.460  1.3767  0.6230  2.2523
   76GLOH    O3 9243   3.799   3.908   1.412  0.0444  0.1157 -0.7116
   76GLOH   H01 9244   3.711   3.950   1.404 -0.7762 -1.4578 -0.2323
   77GLOH   H03 9245   3.737   9.346   0.160 -0.8956  0.0797  0.0775
   77GLOH    O1 9246   3.712   9.341   0.065  0.3749 -0.2608 -0.2405
   77GLOH    C1 9247   3.667   9.208   0.034  0.2299  0.0034  0.6778
   77GLOH   H02 9248   3.559   9.205   0.016  0.4966 -0.8035 -0.9444
   77GLOH   H08 9249   3.679   9.135   0.114 -0.7435 -0.4146  0.4563
   77GLOH    C2 9250   3.738   9.154  -0.089 -0.2575 -0.1039  0.0878
   77GLOH   H04 9251   3.679   9.069  -0.127 -0.0752 -0.3633  0.3833
   77GLOH    O2 9252   3.752   9.252  -0.195 -0.5014  0.0919  0.4517
   77GLOH   H05 9253   3.790   9.336  -0.163 -1.3717  0.5162  0.3881
   77GLOH    C3 9254   3.876   9.097  -0.059 -0.3628  0.5347 -0.0256
   77GLOH   H06 9255   3.919   9.051  -0.148  0.4540 -0.6113  0.9535
   77GLOH   H07 9256   3.854   9.022   0.017  0.0865  1.3226  0.8851
   77GLOH    O3 9257   3.966   9.198  -0.016  0.2254  0.0597 -0.0084
   77GLOH   H01 9258   3.954   9.277  -0.071 -1.8416  0.3573  0.7972
   78GLOH   H03 9259   5.339   3.378   1.683  0.6604  1.5212 -0.1941
   78GLOH    O1 9260   5.412   3.313   1.678 -0.8272 -0.2260  0.0434
   78GLOH    C1 9261   5.361   3.190   1.643 -0.4697  0.6073  0.5927
   78GLOH   H02 9262   5.266   3.207   1.592 -0.9815 -0.7358  1.0574
   78GLOH   H08 9263   5.339   3.134   1.734  0.2258  0.2860  0.5694
   78GLOH    C2 9264   5.454   3.110   1.552 -0.2324 -0.2191  0.2614
   78GLOH   H04 9265   5.557   3.144   1.568 -1.6055  3.4641  1.8827
   78GLOH    O2 9266   5.443   2.968   1.580  0.0586 -0.8918 -0.6637
   78GLOH   H05 9267   5.420   2.943   1.670  0.3563  1.7910  0.2169
   78GLOH    C3 9268   5.420   3.129   1.399 -0.3014  0.2444  0.2272
   78GLOH   H06 9269   5.489   3.078   1.331 -0.9358  0.6178 -0.7143
   78GLOH   H07 9270   5.422   3.234   1.372  0.1048  0.8796  2.6511
   78GLOH    O3 9271   5.284   3.087   1.377  0.1327  0.0007 -0.1507
   78GLOH   H01 9272   5.266   3.006   1.427 -1.9463  2.0471  2.5973
   79GLOH   H03 9273   4.601   8.739   0.104  2.6495 -0.5603  0.3613
   79GLOH    O1 9274   4.577   8.753   0.198  0.1370  0.2564 -0.3796
   79GLOH    C1 9275   4.576   8.622   0.264 -0.2373 -0.0909  0.0008
   79GLOH   H02 9276   4.674   8.598   0.307  0.0684 -0.6624 -1.0025
   79GLOH   H08 9277   4.558   8.547   0.188  1.3338  0.2553 -0.7529
   79GLOH    C2 9278   4.479   8.613   0.384  0.2741  0.4935  0.1240
   79GLOH   H04 9279   4.376   8.627   0.349 -1.1204 -0.5712  3.5001
   79GLOH    O2 9280   4.480   8.475   0.438 -0.3823 -0.2034  0.5624
   79GLOH   H05 9281   4.462   8.424   0.357 -0.1447 -0.6664  0.7963
   79GLOH    C3 9282   4.527   8.714   0.496  0.5393  0.1576  0.3355
   79GLOH   H06 9283   4.633   8.696   0.517  0.3152  1.9255  3.1151
   79GLOH   H07 9284   4.473   8.705   0.590 -0.4121 -1.8447 -0.3733
   79GLOH    O3 9285   4.509   8.846   0.433  1.1261 -0.1200 -0.5419
   79GLOH   H01 9286   4.493   8.835   0.337  0.7651  0.1983 -0.5196
   80GLOH   H03 9287   3.474   1.175   0.404 -0.1868  0.2230 -0.4525
   80GLOH    O1 9288   3.541   1.111   0.434 -0.0631  0.6473  0.1820
   80GLOH    C1 9289   3.667   1.169   0.400 -1.2000  0.3317 -0.1378
   80GLOH   H02 9290   3.701   1.146   0.299  1.1585  0.4921  0.5789
   80GLOH   H08 9291   3.748   1.120   0.455  0.5120  0.1675 -2.7329
   80GLOH    C2 9292   3.694   1.322   0.412  0.2473 -0.1679 -0.6117
   80GLOH   H04 9293   3.695   1.346   0.519 -3.6554 -0.7416 -0.3391
   80GLOH    O2 9294   3.819   1.347   0.356 -0.2342 -0.4275  0.1068
   80GLOH   H05 9295   3.827   1.314   0.265 -0.9185 -2.5246  0.7631
   80GLOH    C3 9296   3.579   1.392   0.328 -0.1219 -0.2769  0.0003
   80GLOH   H06 9297   3.584   1.355   0.226  1.3467 -0.5561  0.1625
   80GLOH   H07 9298   3.591   1.500   0.319  1.8360 -0.4511  0.3743
   80GLOH    O3 9299   3.450   1.368   0.388 -0.1568  0.0533 -0.5029
   80GLOH   H01 9300   3.428   1.438   0.453  0.1508  1.7814 -2.2168
   81GLOH   H03 9301   2.899   4.079   1.413 -1.5401 -2.6350  2.1193
   81GLOH    O1 9302   2.965   4.019   1.375 -0.3184  0.0897 -0.1741
   81GLOH    C1 9303   2.977   4.060   1.244  0.1540  0.5981 -0.3336
   81GLOH   H02 9304   2.997   4.165   1.225  1.1469 -0.1894 -4.1248
   81GLOH   H08 9305   2.884   4.038   1.190 -0.1832  1.0863  0.0410
   81GLOH    C2 9306   3.088   3.979   1.175 -0.5665 -0.8075 -0.1345
   81GLOH   H04 9307   3.071   3.873   1.196 -0.0472 -1.1888 -1.5920
   81GLOH    O2 9308   3.066   4.003   1.031  0.1299 -0.0844 -0.0897
   81GLOH   H05 9309   2.976   3.978   1.003  0.7642 -3.3844  0.6862
   81GLOH    C3 9310   3.230   4.021   1.216 -0.2137  0.1812 -0.6614
   81GLOH   H06 9311   3.258   4.119   1.176 -1.0728  0.4357 -0.6436
   81GLOH   H07 9312   3.296   3.948   1.169  1.1023  0.0898  1.2747
   81GLOH    O3 9313   3.263   4.025   1.359  0.4709  0.1692 -0.0218
   81GLOH   H01 9314   3.175   4.037   1.399  1.1850  0.6079  1.4753
   82GLOH   H03 9315   3.633   1.266   1.064 -1.4076 -0.2917 -0.5261
   82GLOH    O1 9316   3.675   1.293   0.981 -0.0438  0.3659  0.3651
   82GLOH    C1 9317   3.800   1.235   0.963 -0.8840  0.0704 -0.9584
   82GLOH   H02 9318   3.808   1.162   0.883 -0.1836 -1.6745  0.6487
   82GLOH   H08 9319   3.829   1.180   1.053  2.3092  1.7982 -0.8683
   82GLOH    C2 9320   3.898   1.348   0.941  0.1881 -0.3352 -0.0300
   82GLOH   H04 9321   3.910   1.413   1.028 -0.2533  0.7032 -0.7299
   82GLOH    O2 9322   4.038   1.300   0.916  0.4051 -0.2911  0.1353
   82GLOH   H05 9323   4.029   1.206   0.893 -0.3460 -0.0632 -0.5132
   82GLOH    C3 9324   3.855   1.450   0.833 -0.1491  0.7856 -0.3167
   82GLOH   H06 9325   3.861   1.399   0.736 -0.5509  0.0092  0.0628
   82GLOH   H07 9326   3.927   1.531   0.839  1.6442 -0.9145  1.4820
   82GLOH    O3 9327   3.726   1.501   0.858  0.0995 -0.3681  0.0228
   82GLOH   H01 9328   3.679   1.422   0.891  2.7074 -1.5227  1.1295
   83GLOH   H03 9329   3.898   7.669   0.230 -0.4185 -0.1423  0.6825
   83GLOH    O1 9330   3.944   7.614   0.296  0.1871 -0.6053 -0.1298
   83GLOH    C1 9331   3.842   7.553   0.376  0.0958  0.3822 -0.3070
   83GLOH   H02 9332   3.862   7.554   0.483 -2.0877 -1.4320  0.1755
   83GLOH   H08 9333   3.850   7.446   0.360  2.3572  0.2908  1.1962
   83GLOH    C2 9334   3.693   7.597   0.362  0.5174  0.1968 -0.1308
   83GLOH   H04 9335   3.650   7.537   0.280 -1.2949 -1.4933  1.9680
   83GLOH    O2 9336   3.629   7.559   0.489  0.4670  0.0141  0.3353
   83GLOH   H05 9337   3.573   7.481   0.475  1.9339 -0.8991 -0.4858
   83GLOH    C3 9338   3.696   7.749   0.327  0.6559 -0.4607  0.3238
   83GLOH   H06 9339   3.746   7.800   0.409  1.2110 -0.8337  0.2156
   83GLOH   H07 9340   3.597   7.794   0.314  0.4807  0.2380  3.5880
   83GLOH    O3 9341   3.770   7.785   0.209  0.1640  0.5461  0.7197
   83GLOH   H01 9342   3.773   7.882   0.206  3.4254  0.4579 -3.7137
   84GLOH   H03 9343   0.197   4.843   0.788 -0.4576  1.0487 -0.3149
   84GLOH    O1 9344   0.270   4.888   0.834 -0.0700  0.1876 -0.0659
   84GLOH    C1 9345   0.328   4.982   0.748 -0.4005  0.2997 -0.1679
   84GLOH   H02 9346   0.395   5.047   0.804 -0.4230  0.4213 -0.2820
   84GLOH   H08 9347   0.259   5.053   0.703  1.4611  0.6211 -2.5632
   84GLOH    C2 9348   0.418   4.922   0.638 -0.2580 -0.1415  0.5822
   84GLOH   H04 9349   0.464   5.002   0.578 -0.8808 -0.7413 -0.7146
   84GLOH    O2 9350   0.528   4.849   0.690 -0.4314 -0.2149 -0.0887
   84GLOH   H05 9351   0.564   4.903   0.763 -1.1925 -1.9645  1.5926
   84GLOH    C3 9352   0.339   4.823   0.552  0.0526  0.2078  0.7981
   84GLOH   H06 9353   0.315   4.731   0.606 -2.7747  0.5610  0.2178
   84GLOH   H07 9354   0.398   4.800   0.464 -0.5283 -0.7766  0.6594
   84GLOH    O3 9355   0.208   4.874   0.511 -0.2676 -0.9380 -0.3989
   84GLOH   H01 9356   0.214   4.965   0.479 -0.2581 -0.8716 -0.2115
   85GLOH   H03 9357   3.650   2.561   0.627  3.0147  1.0483  2.0087
   85GLOH    O1 9358   3.667   2.621   0.552 -0.6820  0.2998  0.4350
   85GLOH    C1 9359   3.580   2.618   0.439  0.7846 -0.3598 -0.7932
   85GLOH   H02 9360   3.560   2.716   0.397 -0.1847  0.0794  0.6492
   85GLOH   H08 9361   3.482   2.581   0.472  1.6345  1.1919  3.8433
   85GLOH    C2 9362   3.637   2.529   0.326 -0.3487 -0.4031  0.0504
   85GLOH   H04 9363   3.735   2.573   0.302 -1.5971  2.0566 -0.6952
   85GLOH    O2 9364   3.655   2.387   0.369  0.8138 -0.2244  0.1276
   85GLOH   H05 9365   3.742   2.373   0.408  0.8860  0.3713  0.1914
   85GLOH    C3 9366   3.554   2.547   0.195  0.1281  1.0074 -0.0927
   85GLOH   H06 9367   3.595   2.473   0.127 -0.5022  1.0301 -0.5080
   85GLOH   H07 9368   3.574   2.648   0.159  3.4742  0.0243 -1.0694
   85GLOH    O3 9369   3.410   2.534   0.209  0.3628 -0.1195 -0.1846
   85GLOH   H01 9370   3.370   2.571   0.128  0.6127 -0.9532 -0.6886
   86GLOH   H03 9371   3.372   6.963   1.313  3.2825 -1.5170 -0.3507
   86GLOH    O1 9372   3.411   7.052   1.314  0.1081 -0.0689  0.1853
   86GLOH    C1 9373   3.404   7.112   1.184 -0.6381  0.4608 -0.4324
   86GLOH   H02 9374   3.304   7.136   1.148  0.0690 -0.6424 -3.3403
   86GLOH   H08 9375   3.440   7.045   1.105  1.2474  1.7229 -0.6897
   86GLOH    C2 9376   3.480   7.250   1.187  0.0344 -0.0115 -0.0280
   86GLOH   H04 9377   3.587   7.226   1.185  0.2084  0.7792 -0.5973
   86GLOH    O2 9378   3.458   7.315   1.062  0.2887  0.0244  0.1366
   86GLOH   H05 9379   3.512   7.396   1.054  0.0475  0.3718  1.9114
   86GLOH    C3 9380   3.448   7.337   1.315  0.3649  0.0067 -0.4364
   86GLOH   H06 9381   3.349   7.381   1.308  0.4600  0.0959 -1.2584
   86GLOH   H07 9382   3.517   7.421   1.319  3.6699 -2.5508 -0.8605
   86GLOH    O3 9383   3.465   7.266   1.441 -0.1796  0.2119 -0.3271
   86GLOH   H01 9384   3.430   7.178   1.417  1.8229 -0.0171 -2.5768
   87GLOH   H03 9385   4.270   2.846   1.958 -0.5280  1.3488  3.5409
   87GLOH    O1 9386   4.261   2.761   2.006  0.6934 -0.2660  1.0153
   87GLOH    C1 9387   4.155   2.677   1.966  0.1394  0.2265 -0.3504
   87GLOH   H02 9388   4.160   2.648   1.862 -1.0747  1.1350 -0.6741
   87GLOH   H08 9389   4.062   2.732   1.981  1.4864  2.2369  0.8317
   87GLOH    C2 9390   4.156   2.536   2.040  0.1509 -0.1980  0.4824
   87GLOH   H04 9391   4.161   2.558   2.147 -2.0267  1.5544  0.2633
   87GLOH    O2 9392   4.034   2.461   2.020 -0.6592 -0.1081 -0.1292
   87GLOH   H05 9393   3.975   2.479   2.095  0.9515 -2.2705  1.7226
   87GLOH    C3 9394   4.270   2.440   1.990  0.2597  0.3522  0.2918
   87GLOH   H06 9395   4.252   2.416   1.885  0.8934 -0.2361  0.3114
   87GLOH   H07 9396   4.260   2.345   2.042  1.3110 -0.9031 -1.7286
   87GLOH    O3 9397   4.401   2.497   2.008 -0.1506  0.2015  0.0261
   87GLOH   H01 9398   4.413   2.588   1.975 -0.8020  1.4071  2.9497
   88GLOH   H03 9399   4.978   4.268   2.491 -0.4285 -0.6384  0.8704
   88GLOH    O1 9400   4.923   4.321   2.428  0.1804 -0.4919  0.4588
   88GLOH    C1 9401   4.818   4.245   2.378 -0.4002 -0.4191 -0.6232
   88GLOH   H02 9402   4.758   4.204   2.460 -0.2679 -0.3528 -0.4938
   88GLOH   H08 9403   4.869   4.164   2.326 -0.5202 -0.9769  0.1121
   88GLOH    C2 9404   4.721   4.313   2.280 -0.5446  0.0371 -0.8810
   88GLOH   H04 9405   4.778   4.355   2.196  2.4051  0.6085  1.3575
   88GLOH    O2 9406   4.621   4.214   2.225 -0.7011 -0.3467  0.1498
   88GLOH   H05 9407   4.607   4.149   2.296 -1.3827 -2.1178 -1.5847
   88GLOH    C3 9408   4.654   4.426   2.350  0.0665 -0.3933  0.1777
   88GLOH   H06 9409   4.597   4.484   2.277  1.9375  1.5257  0.1968
   88GLOH   H07 9410   4.734   4.495   2.375  0.9157 -0.6971 -1.6353
   88GLOH    O3 9411   4.571   4.400   2.463 -0.2014 -0.4537  0.0568
   88GLOH   H01 9412   4.593   4.451   2.544  0.4397  0.9920 -1.0011
   89GLOH   H03 9413   0.258   5.135   1.553  0.7284  1.2536 -0.4612
   89GLOH    O1 9414   0.274   5.089   1.469 -0.2869 -0.1933  0.1161
   89GLOH    C1 9415   0.326   5.184   1.371  0.3433  0.1051  0.1611
   89GLOH   H02 9416   0.249   5.261   1.360 -0.7070 -0.8686  0.6843
   89GLOH   H08 9417   0.327   5.142   1.270 -2.2763 -1.3891  0.7300
   89GLOH    C2 9418   0.457   5.250   1.404 -0.0736  0.3421 -0.5675
   89GLOH   H04 9419   0.531   5.176   1.437  0.5219  0.6952 -1.0921
   89GLOH    O2 9420   0.503   5.340   1.307  0.0332  0.1993  0.6520
   89GLOH   H05 9421   0.487   5.296   1.222 -0.9573 -1.3382  1.6152
   89GLOH    C3 9422   0.428   5.330   1.535  0.1609  0.3955  0.0374
   89GLOH   H06 9423   0.366   5.419   1.524 -1.5954 -0.7126  0.7308
   89GLOH   H07 9424   0.529   5.360   1.563 -0.4339  2.8117 -0.3053
   89GLOH    O3 9425   0.377   5.250   1.647  0.1165 -0.9587  0.1961
   89GLOH   H01 9426   0.383   5.295   1.733 -2.4959 -1.6486  0.7592
   90GLOH   H03 9427   1.737   4.080   0.996  1.0013  1.5814  1.0586
   90GLOH    O1 9428   1.701   4.155   0.946 -0.4538  0.3933  0.2916
   90GLOH    C1 9429   1.601   4.084   0.869 -0.2762  0.2897  0.0135
   90GLOH   H02 9430   1.523   4.057   0.940  0.1603  0.2905  0.4920
   90GLOH   H08 9431   1.647   4.004   0.811  0.3560 -1.4462  2.8020
   90GLOH    C2 9432   1.540   4.188   0.772  0.3129  0.2716  0.2727
   90GLOH   H04 9433   1.623   4.217   0.707  0.9348 -0.2909  0.7974
   90GLOH    O2 9434   1.452   4.126   0.676  0.1151 -0.0788 -0.0060
   90GLOH   H05 9435   1.417   4.040   0.705 -0.1749  0.6077  1.7523
   90GLOH    C3 9436   1.480   4.313   0.838  0.0580 -0.5231  0.9110
   90GLOH   H06 9437   1.405   4.285   0.913  0.5709  1.5039  2.2364
   90GLOH   H07 9438   1.426   4.373   0.766  0.6673 -1.8430 -0.6701
   90GLOH    O3 9439   1.593   4.377   0.902  0.5368  0.3625 -0.2976
   90GLOH   H01 9440   1.654   4.308   0.933 -1.4004 -0.7817  1.0680
   91GLOH   H03 9441   3.064   1.452   0.201  5.0226 -0.0713  1.2358
   91GLOH    O1 9442   3.041   1.387   0.269  0.0920  0.0495 -0.0918
   91GLOH    C1 9443   3.067   1.258   0.216 -0.1325  0.0228  0.0377
   91GLOH   H02 9444   3.008   1.253   0.124  1.0267  0.9101 -0.7604
   91GLOH   H08 9445   3.021   1.182   0.280  0.9680  0.2957  1.1621
   91GLOH    C2 9446   3.218   1.213   0.188  0.5834 -0.4592 -0.1885
   91GLOH   H04 9447   3.279   1.224   0.279 -1.2937  2.3634  0.7991
   91GLOH    O2 9448   3.222   1.072   0.153 -0.2686 -0.0726 -0.0659
   91GLOH   H05 9449   3.231   1.065   0.057  0.8963  1.4094 -0.0761
   91GLOH    C3 9450   3.290   1.299   0.080  0.3008  0.3126  0.4612
   91GLOH   H06 9451   3.393   1.271   0.057  0.5448  0.8841  0.8412
   91GLOH   H07 9452   3.307   1.397   0.125  1.8633  0.4458 -0.3952
   91GLOH    O3 9453   3.210   1.310  -0.039 -0.2532 -0.5742 -0.3930
   91GLOH   H01 9454   3.259   1.359  -0.107  1.0761  0.0638  0.9930
   92GLOH   H03 9455   3.243   4.769   0.334 -2.2919  0.2094  1.4817
   92GLOH    O1 9456   3.218   4.858   0.302  0.2474  0.2442 -0.5527
   92GLOH    C1 9457   3.343   4.927   0.291 -0.6292  0.0953 -0.9485
   92GLOH   H02 9458   3.425   4.859   0.265 -0.7357 -0.7462  0.8291
   92GLOH   H08 9459   3.357   4.972   0.389 -0.7424 -0.3525 -0.7219
   92GLOH    C2 9460   3.355   5.044   0.187 -0.9335  0.2958  0.5102
   92GLOH   H04 9461   3.284   5.121   0.221 -0.7882 -0.1440  1.8398
   92GLOH    O2 9462   3.480   5.105   0.185  0.1104 -0.0990  0.0291
   92GLOH   H05 9463   3.483   5.158   0.266 -0.0195  0.0631 -0.0714
   92GLOH    C3 9464   3.306   5.000   0.043 -0.0902  0.3552  0.4207
   92GLOH   H06 9465   3.276   5.086  -0.017 -1.0484 -0.4610 -0.2850
   92GLOH   H07 9466   3.213   4.945   0.055  0.1832 -0.9344 -2.6878
   92GLOH    O3 9467   3.402   4.920  -0.024 -0.2982 -0.2354  0.1898
   92GLOH   H01 9468   3.484   4.934   0.026 -0.4658 -1.1271  0.7172
   93GLOH   H03 9469   3.696   5.373   0.940  0.6755 -0.1295  1.4717
   93GLOH    O1 9470   3.668   5.282   0.958  0.0252 -0.3661 -0.6109
   93GLOH    C1 9471   3.632   5.281   1.099 -0.8799 -0.5931 -0.1263
   93GLOH   H02 9472   3.550   5.352   1.111  2.0032  3.2272 -1.8005
   93GLOH   H08 9473   3.714   5.324   1.157 -0.2947 -0.9577 -0.6717
   93GLOH    C2 9474   3.595   5.146   1.155  0.5173 -0.8062  0.2299
   93GLOH   H04 9475   3.684   5.084   1.171  0.0865 -2.1187 -2.1516
   93GLOH    O2 9476   3.535   5.149   1.282  0.1815  0.1570 -0.8535
   93GLOH   H05 9477   3.486   5.228   1.310  1.8394  0.0443  2.6983
   93GLOH    C3 9478   3.509   5.061   1.062 -0.1857  0.7547  0.2648
   93GLOH   H06 9479   3.479   4.972   1.117 -1.4757  0.7157 -0.4811
   93GLOH   H07 9480   3.577   5.025   0.985 -0.8155 -0.9842  0.4913
   93GLOH    O3 9481   3.390   5.109   1.003 -0.3734  0.4373  0.2513
   93GLOH   H01 9482   3.353   5.034   0.953 -0.9896  0.7353  0.2686
   94GLOH   H03 9483   9.939   4.305   1.824  0.6032 -1.3478 -1.4855
   94GLOH    O1 9484   9.855   4.257   1.820 -0.2993  0.0149  0.1709
   94GLOH    C1 9485   9.769   4.290   1.928  0.1741 -0.8742 -0.6226
   94GLOH   H02 9486   9.749   4.397   1.927  1.0680 -0.6683  0.8603
   94GLOH   H08 9487   9.825   4.268   2.020  0.8645  1.1645 -0.5247
   94GLOH    C2 9488   9.635   4.214   1.934 -0.0734  0.3446  0.4098
   94GLOH   H04 9489   9.664   4.108   1.941 -0.2875  0.0670 -2.6173
   94GLOH    O2 9490   9.557   4.253   2.053  0.3100 -0.3984 -0.2395
   94GLOH   H05 9491   9.465   4.223   2.042 -0.1949  0.6521  0.9157
   94GLOH    C3 9492   9.560   4.237   1.800 -0.3612  0.0119  0.3981
   94GLOH   H06 9493   9.527   4.341   1.803 -1.0312 -0.2305  1.5595
   94GLOH   H07 9494   9.473   4.171   1.800 -1.4989  1.4279 -2.1308
   94GLOH    O3 9495   9.644   4.219   1.687  0.3552 -0.0825  0.0643
   94GLOH   H01 9496   9.735   4.219   1.724  0.7138 -1.4560 -0.7461
   95GLOH   H03 9497   3.750   0.892   1.348  0.4452  0.3999 -1.6541
   95GLOH    O1 9498   3.712   0.981   1.354  0.5303  0.3213  0.2137
   95GLOH    C1 9499   3.664   0.996   1.493  0.0579 -0.1291 -0.1346
   95GLOH   H02 9500   3.727   0.935   1.558 -0.8963 -0.7084  0.2516
   95GLOH   H08 9501   3.562   0.958   1.486 -0.8356  1.9900  0.9843
   95GLOH    C2 9502   3.667   1.143   1.528  0.2934  0.0093  0.5609
   95GLOH   H04 9503   3.594   1.191   1.462  1.8933 -0.6492 -1.7592
   95GLOH    O2 9504   3.640   1.166   1.666 -0.2258  0.3198 -0.0356
   95GLOH   H05 9505   3.633   1.081   1.713  1.6811 -0.4805 -1.1780
   95GLOH    C3 9506   3.809   1.205   1.482  0.5555 -0.4121  0.4102
   95GLOH   H06 9507   3.882   1.148   1.541  0.7767 -1.3401 -0.7387
   95GLOH   H07 9508   3.818   1.306   1.521 -0.2286 -0.2196  0.0991
   95GLOH    O3 9509   3.848   1.193   1.345 -0.5479  0.2688  0.2177
   95GLOH   H01 9510   3.803   1.111   1.318 -0.1963  0.6884 -1.6687
   96GLOH   H03 9511   4.182   0.031   0.250 -0.8662 -0.9046 -0.6828
   96GLOH    O1 9512   4.168   0.051   0.155 -0.1535 -0.0002 -0.6057
   96GLOH    C1 9513   4.168   0.196   0.149  0.7457 -0.3198  0.6354
   96GLOH   H02 9514   4.255   0.242   0.196  1.0863  0.4267 -0.7004
   96GLOH   H08 9515   4.082   0.227   0.208  0.4398  0.5893 -0.2856
   96GLOH    C2 9516   4.159   0.251   0.005 -0.1051  0.5894  0.2548
   96GLOH   H04 9517   4.103   0.176  -0.052 -0.5141 -0.3175  1.8153
   96GLOH    O2 9518   4.101   0.383  -0.017 -0.0114 -0.0474  0.2846
   96GLOH   H05 9519   4.173   0.446  -0.001  0.5160 -0.5813  0.0195
   96GLOH    C3 9520   4.302   0.257  -0.051 -0.7330  0.3623 -0.3516
   96GLOH   H06 9521   4.297   0.289  -0.155  1.6996  0.1602 -0.5636
   96GLOH   H07 9522   4.350   0.160  -0.063  0.3305  0.9120 -0.5644
   96GLOH    O3 9523   4.386   0.360   0.010 -0.6590  0.1388  0.2041
   96GLOH   H01 9524   4.335   0.435   0.045  1.1541  1.7056 -0.4143
   97GLOH   H03 9525   3.351   4.458   1.881  0.9481 -0.3037 -1.5459
   97GLOH    O1 9526   3.418   4.392   1.906  0.5462 -0.0616  0.2114
   97GLOH    C1 9527   3.446   4.392   2.045 -0.7168  0.2592 -0.3025
   97GLOH   H02 9528   3.360   4.425   2.102 -0.2800 -0.6507  0.8976
   97GLOH   H08 9529   3.526   4.463   2.067  0.4561 -0.9727 -0.5069
   97GLOH    C2 9530   3.503   4.259   2.091  0.5536  0.0190  0.7026
   97GLOH   H04 9531   3.449   4.187   2.029 -1.1579  0.2256  1.9122
   97GLOH    O2 9532   3.647   4.258   2.057  0.8613 -0.4853  0.5125
   97GLOH   H05 9533   3.706   4.280   2.131  0.5235 -0.4266  0.7666
   97GLOH    C3 9534   3.481   4.233   2.237  0.2312 -0.6991 -1.0152
   97GLOH   H06 9535   3.499   4.326   2.290 -1.1415 -0.3892 -1.0755
   97GLOH   H07 9536   3.549   4.156   2.275 -2.7895 -1.4856  3.1043
   97GLOH    O3 9537   3.346   4.187   2.260 -0.3750 -0.3154  0.0068
   97GLOH   H01 9538   3.319   4.142   2.177 -1.1129 -0.9964  0.6105
   98GLOH   H03 9539   9.552   4.453   0.286  0.2217 -0.8225  0.5530
   98GLOH    O1 9540   9.482   4.405   0.240  0.3115  0.1783 -0.6461
   98GLOH    C1 9541   9.359   4.454   0.296  0.1232 -0.9862  0.3699
   98GLOH   H02 9542   9.299   4.496   0.215  1.5272 -0.3224 -0.3506
   98GLOH   H08 9543   9.377   4.537   0.364 -2.8806 -0.4496  0.6025
   98GLOH    C2 9544   9.275   4.356   0.375  0.6046 -0.3752 -0.4173
   98GLOH   H04 9545   9.331   4.310   0.457  0.6428 -1.9373 -1.2866
   98GLOH    O2 9546   9.158   4.426   0.434  0.0609 -0.6831  0.1600
   98GLOH   H05 9547   9.153   4.392   0.525  1.9434 -0.6793  0.2764
   98GLOH    C3 9548   9.220   4.254   0.278  0.3163  0.5686 -0.2626
   98GLOH   H06 9549   9.159   4.294   0.197  1.1910 -0.2935 -1.3638
   98GLOH   H07 9550   9.164   4.191   0.347 -1.1667  1.7926 -0.3265
   98GLOH    O3 9551   9.320   4.176   0.215  0.1752  0.0965 -0.1499
   98GLOH   H01 9552   9.385   4.238   0.177  1.3447 -2.0686 -1.7965
   99GLOH   H03 9553   2.890   1.214   2.219 -0.0006 -1.7780  0.5555
   99GLOH    O1 9554   2.794   1.201   2.228 -0.2751 -0.2123 -0.0203
   99GLOH    C1 9555   2.762   1.092   2.143 -0.2732  0.5116  0.9449
   99GLOH   H02 9556   2.662   1.052   2.164  0.6216 -1.1641  2.0746
   99GLOH   H08 9557   2.832   1.010   2.160 -2.6206 -1.2668  2.4104
   99GLOH    C2 9558   2.752   1.129   1.990 -0.4233  0.3007 -0.3662
   99GLOH   H04 9559   2.666   1.195   1.972 -1.4449 -1.6423 -2.8724
   99GLOH    O2 9560   2.875   1.198   1.955  0.1326  0.4555 -0.5814
   99GLOH   H05 9561   2.946   1.172   2.015 -1.0375 -0.4917  0.4033
   99GLOH    C3 9562   2.741   1.009   1.898 -0.4058  0.3057 -0.3284
   99GLOH   H06 9563   2.711   1.049   1.801 -6.0899 -1.9482  0.2698
   99GLOH   H07 9564   2.659   0.944   1.929 -0.5063  0.2307 -0.7452
   99GLOH    O3 9565   2.859   0.924   1.886  0.2564 -0.1802 -0.4061
   99GLOH   H01 9566   2.885   0.919   1.792  4.7710  2.1877  0.5682
  100GLOH   H03 9567   3.670   7.754   1.505 -0.3767 -1.8266 -0.5292
  100GLOH    O1 9568   3.586   7.746   1.554 -0.3182 -0.0284 -0.1138
  100GLOH    C1 9569   3.581   7.608   1.594 -0.5593  0.1652 -0.0507
  100GLOH   H02 9570   3.650   7.603   1.678 -0.0503  1.1593 -0.3931
  100GLOH   H08 9571   3.618   7.540   1.517 -2.8125 -0.0449 -0.9902
  100GLOH    C2 9572   3.441   7.562   1.634 -0.4013  0.6698  0.4430
  100GLOH   H04 9573   3.376   7.581   1.547  1.1594  1.3851 -0.5936
  100GLOH    O2 9574   3.446   7.414   1.656  0.5993 -0.5717 -0.5565
  100GLOH   H05 9575   3.455   7.368   1.571 -0.9989 -1.7691 -0.0943
  100GLOH    C3 9576   3.383   7.643   1.753  0.3778 -0.1942  0.7628
  100GLOH   H06 9577   3.433   7.740   1.756 -0.6275  0.3122  1.2899
  100GLOH   H07 9578   3.411   7.595   1.847 -0.0610  0.1250  1.0539
  100GLOH    O3 9579   3.241   7.659   1.751  0.0280 -0.1362  0.8999
  100GLOH   H01 9580   3.204   7.689   1.666 -1.5137 -2.7346  0.6049
  101GLOH   H03 9581   2.774   6.191   0.164  0.5834  3.3563 -0.9188
  101GLOH    O1 9582   2.836   6.179   0.089  0.7249 -0.7598 -0.2787
  101GLOH    C1 9583   2.936   6.287   0.093 -0.5026  0.8142 -0.3961
  101GLOH   H02 9584   2.997   6.269   0.005 -0.7578 -1.3665 -0.1608
  101GLOH   H08 9585   3.001   6.271   0.178 -0.4760  0.7894 -0.4211
  101GLOH    C2 9586   2.875   6.422   0.118 -0.1130  0.7108  0.2654
  101GLOH   H04 9587   2.782   6.418   0.177 -0.9297  1.1326 -0.9801
  101GLOH    O2 9588   2.981   6.497   0.175  0.6044 -0.0132  0.1376
  101GLOH   H05 9589   2.963   6.512   0.270 -2.7987 -1.9825 -0.1156
  101GLOH    C3 9590   2.840   6.481  -0.017 -0.4522  0.3181  0.1224
  101GLOH   H06 9591   2.779   6.418  -0.083 -2.8609  1.1213  1.5223
  101GLOH   H07 9592   2.933   6.500  -0.071 -0.6198  1.2270  0.1546
  101GLOH    O3 9593   2.773   6.608  -0.004 -0.2622 -0.7393  0.3363
  101GLOH   H01 9594   2.746   6.610   0.089  1.6009 -0.3454  0.8924
  102GLOH   H03 9595   4.363   3.938   0.925 -2.2514  2.9076 -4.1725
  102GLOH    O1 9596   4.397   4.019   0.968 -0.7692  0.1702  0.1587
  102GLOH    C1 9597   4.509   4.060   0.902 -0.4504  0.5615 -1.2419
  102GLOH   H02 9598   4.494   4.096   0.800 -1.1416 -0.0430 -1.3575
  102GLOH   H08 9599   4.591   3.989   0.893 -2.7267 -2.1192 -1.3486
  102GLOH    C2 9600   4.571   4.190   0.961 -0.6522 -0.1199  0.9182
  102GLOH   H04 9601   4.592   4.188   1.069  0.4454  1.6291  0.7573
  102GLOH    O2 9602   4.695   4.220   0.890 -0.0434 -0.4474 -0.3247
  102GLOH   H05 9603   4.737   4.134   0.869  0.6437  0.0918 -1.2205
  102GLOH    C3 9604   4.476   4.308   0.955 -0.3721  0.6681 -0.7057
  102GLOH   H06 9605   4.442   4.313   0.852 -2.1130  0.0679 -0.1816
  102GLOH   H07 9606   4.536   4.397   0.975  1.3518 -0.0884 -2.3185
  102GLOH    O3 9607   4.373   4.316   1.056 -0.4217  0.0615 -0.1662
  102GLOH   H01 9608   4.320   4.397   1.044  0.3594  0.7298  0.8019
  103GLOH   H03 9609   2.272   4.127   0.760 -1.5319  0.9086 -0.4428
  103GLOH    O1 9610   2.221   4.059   0.807  0.3240 -0.1108  0.1337
  103GLOH    C1 9611   2.222   4.097   0.945  0.1150  0.1056  0.3914
  103GLOH   H02 9612   2.318   4.072   0.990 -0.1569 -1.2459  0.2211
  103GLOH   H08 9613   2.154   4.029   0.996 -1.0157  1.6765  1.0150
  103GLOH    C2 9614   2.178   4.247   0.962 -1.1648  0.5177 -0.3847
  103GLOH   H04 9615   2.164   4.258   1.070  3.6290 -2.7533  0.7888
  103GLOH    O2 9616   2.299   4.321   0.932  0.4305 -0.1221 -0.6423
  103GLOH   H05 9617   2.291   4.418   0.930 -0.7511 -0.2113 -0.8762
  103GLOH    C3 9618   2.056   4.281   0.877  0.7968 -0.5771  0.1586
  103GLOH   H06 9619   2.061   4.236   0.778 -1.5777  0.5005 -0.4931
  103GLOH   H07 9620   2.056   4.390   0.863 -1.0901 -0.3839  1.4628
  103GLOH    O3 9621   1.942   4.234   0.939  0.4116  0.3719  0.4424
  103GLOH   H01 9622   1.898   4.161   0.892 -0.5318  1.3610 -0.2570
  104GLOH   H03 9623   3.580   0.366   2.656 -1.3144 -1.9660 -0.4897
  104GLOH    O1 9624   3.651   0.324   2.708 -0.5380  0.1097  0.2037
  104GLOH    C1 9625   3.788   0.353   2.664  0.2357  0.7373 -0.0984
  104GLOH   H02 9626   3.852   0.302   2.735  0.7889  0.2921 -0.9139
  104GLOH   H08 9627   3.811   0.459   2.672  1.9353  0.3006  1.1055
  104GLOH    C2 9628   3.817   0.296   2.525  0.0189 -0.0174  0.4459
  104GLOH   H04 9629   3.728   0.311   2.462  0.5271 -0.2317 -0.3192
  104GLOH    O2 9630   3.921   0.368   2.465 -0.4353 -0.3219  0.4038
  104GLOH   H05 9631   4.008   0.363   2.509 -0.5067 -2.2009  0.3804
  104GLOH    C3 9632   3.831   0.142   2.523  0.0394 -0.4496  0.7106
  104GLOH   H06 9633   3.848   0.107   2.421  1.9932  1.7599  0.2393
  104GLOH   H07 9634   3.739   0.097   2.560  0.1070 -1.9665 -0.9046
  104GLOH    O3 9635   3.937   0.097   2.615 -0.7007 -0.2567 -0.1462
  104GLOH   H01 9636   3.936   0.126   2.708  1.2695 -1.6313  0.3278
  105GLOH   H03 9637   1.210   5.004   0.743 -0.6676  1.5598  0.1828
  105GLOH    O1 9638   1.131   4.969   0.790 -0.0518 -0.0436  0.0402
  105GLOH    C1 9639   1.139   5.008   0.933 -0.6205  0.4525  0.0280
  105GLOH   H02 9640   1.137   4.918   0.994 -0.4994  1.3452  1.3802
  105GLOH   H08 9641   1.062   5.075   0.970  0.5269  1.3425  0.8523
  105GLOH    C2 9642   1.272   5.088   0.975 -0.3433  0.3088  0.4901
  105GLOH   H04 9643   1.359   5.033   0.937 -1.0135 -0.0252 -0.5963
  105GLOH    O2 9644   1.282   5.215   0.902  0.0818 -0.0157 -0.2480
  105GLOH   H05 9645   1.321   5.190   0.816 -0.6697 -2.9819  0.2401
  105GLOH    C3 9646   1.290   5.106   1.127 -0.6335  0.2566  0.6977
  105GLOH   H06 9647   1.217   5.158   1.190 -0.3992 -0.1265  1.2952
  105GLOH   H07 9648   1.389   5.145   1.149 -0.1502 -0.3179 -0.4410
  105GLOH    O3 9649   1.284   4.976   1.188  0.1313 -0.0350  0.1894
  105GLOH   H01 9650   1.365   4.924   1.171 -0.2651 -0.2823 -1.0007
  106GLOH   H03 9651   2.821   6.464   1.197 -1.6717  2.4239  0.1842
  106GLOH    O1 9652   2.888   6.499   1.135 -0.0473 -0.3437  0.2698
  106GLOH    C1 9653   3.009   6.483   1.211 -0.1994  0.9425 -0.3755
  106GLOH   H02 9654   3.025   6.376   1.206 -2.8135  0.6305 -3.0205
  106GLOH   H08 9655   3.011   6.526   1.312 -2.8804  1.7869 -0.6515
  106GLOH    C2 9656   3.128   6.539   1.134  0.0657  0.2796  0.2262
  106GLOH   H04 9657   3.097   6.637   1.095 -0.7589 -0.8423 -2.0818
  106GLOH    O2 9658   3.248   6.555   1.216  0.6080 -0.4512  0.3413
  106GLOH   H05 9659   3.247   6.507   1.300  0.1558  0.0148  0.6019
  106GLOH    C3 9660   3.150   6.448   1.011  0.4906  0.4620 -0.0016
  106GLOH   H06 9661   3.167   6.345   1.044  1.0652  0.0669 -1.4620
  106GLOH   H07 9662   3.229   6.477   0.941  0.8837 -1.3380 -0.3486
  106GLOH    O3 9663   3.026   6.444   0.929 -0.4674  0.1449  0.6273
  106GLOH   H01 9664   2.952   6.456   0.992  0.9194  2.9949  1.7742
  107GLOH   H03 9665   4.320   3.679   1.538 -0.3805  2.9756 -4.3823
  107GLOH    O1 9666   4.397   3.630   1.504  0.3822  0.5336  0.4230
  107GLOH    C1 9667   4.384   3.629   1.361  1.0639 -0.7606 -0.8543
  107GLOH   H02 9668   4.278   3.632   1.337  1.3448  2.3098 -1.8612
  107GLOH   H08 9669   4.418   3.532   1.324 -0.9089 -2.3410  1.3105
  107GLOH    C2 9670   4.464   3.740   1.285  0.6865 -0.6893 -0.3236
  107GLOH   H04 9671   4.449   3.836   1.336 -0.8187 -0.7871 -0.5469
  107GLOH    O2 9672   4.604   3.707   1.290 -0.0506 -0.0841  0.1195
  107GLOH   H05 9673   4.613   3.654   1.371 -2.0111 -3.1401 -1.5922
  107GLOH    C3 9674   4.411   3.747   1.139 -0.7241  0.2731  1.0939
  107GLOH   H06 9675   4.427   3.647   1.099  0.1167 -0.3798  3.0020
  107GLOH   H07 9676   4.479   3.809   1.080 -2.7319  1.2317 -0.2655
  107GLOH    O3 9677   4.277   3.791   1.135  0.0427  0.4007 -0.2407
  107GLOH   H01 9678   4.223   3.721   1.093 -0.7036  0.9317 -0.1724
  108GLOH   H03 9679   4.626   0.498   0.499 -2.1924 -1.4150 -2.0898
  108GLOH    O1 9680   4.595   0.589   0.484 -0.0035 -0.2163  0.2024
  108GLOH    C1 9681   4.698   0.655   0.417 -1.0959 -0.0755  0.1668
  108GLOH   H02 9682   4.760   0.593   0.353  0.1193  2.9654 -1.7082
  108GLOH   H08 9683   4.766   0.700   0.489 -0.5387 -2.2892  1.0714
  108GLOH    C2 9684   4.656   0.773   0.326 -0.3621 -0.7923 -0.9687
  108GLOH   H04 9685   4.749   0.811   0.281  0.6782 -0.4544  1.3776
  108GLOH    O2 9686   4.578   0.713   0.226 -0.3497 -0.3965 -0.5188
  108GLOH   H05 9687   4.591   0.753   0.139 -2.1304  0.1678 -0.5485
  108GLOH    C3 9688   4.587   0.895   0.391  0.8649 -0.3846 -0.4224
  108GLOH   H06 9689   4.501   0.842   0.431  1.8113  0.0831  2.3740
  108GLOH   H07 9690   4.553   0.961   0.312 -3.2853  0.4450  1.9627
  108GLOH    O3 9691   4.672   0.969   0.486 -0.0210 -0.2474 -0.6326
  108GLOH   H01 9692   4.623   0.973   0.571 -0.3922 -0.4410 -0.8385
  109GLOH   H03 9693   4.759   4.280   0.106 -1.0552 -1.9570 -3.3809
  109GLOH    O1 9694   4.827   4.210   0.109  0.3102 -0.5929  0.4523
  109GLOH    C1 9695   4.949   4.281   0.087 -0.4311  0.3648 -0.0464
  109GLOH   H02 9696   4.951   4.378   0.137  2.3033 -0.0410  0.7034
  109GLOH   H08 9697   4.966   4.299  -0.020  0.4856  1.9414  0.3536
  109GLOH    C2 9698   5.074   4.205   0.141 -0.3479 -0.7433  0.3506
  109GLOH   H04 9699   5.065   4.186   0.249 -3.0292 -0.3323  0.2472
  109GLOH    O2 9700   5.119   4.087   0.068  0.2761 -0.3779 -0.6152
  109GLOH   H05 9701   5.043   4.034   0.038 -1.4164  2.4993 -1.5790
  109GLOH    C3 9702   5.188   4.309   0.135 -0.4993 -0.4943  0.2560
  109GLOH   H06 9703   5.164   4.378   0.054 -1.5614 -1.3457 -0.1726
  109GLOH   H07 9704   5.291   4.277   0.117 -0.4111  0.5962 -1.2496
  109GLOH    O3 9705   5.177   4.388   0.254  0.0063  0.0485 -0.6077
  109GLOH   H01 9706   5.222   4.340   0.326  1.0168  0.2360 -1.1005
  110GLOH   H03 9707   4.096   1.241   2.754  0.5225  1.7666 -2.5407
  110GLOH    O1 9708   4.089   1.315   2.818 -0.3286 -0.2416 -0.2451
  110GLOH    C1 9709   4.211   1.391   2.827  0.6361  0.3943  0.6206
  110GLOH   H02 9710   4.245   1.404   2.724 -0.2598  0.3013  0.3109
  110GLOH   H08 9711   4.294   1.336   2.871  0.9803  1.2880  1.0988
  110GLOH    C2 9712   4.183   1.528   2.895 -0.7095  0.0207  0.4503
  110GLOH   H04 9713   4.279   1.570   2.931 -0.5374 -0.8425  1.0012
  110GLOH    O2 9714   4.120   1.630   2.811  0.1376  0.1145  0.2415
  110GLOH   H05 9715   4.147   1.631   2.718 -0.5754  0.1133  0.0312
  110GLOH    C3 9716   4.111   1.499   3.028 -0.3020 -0.7261 -0.1653
  110GLOH   H06 9717   4.019   1.445   3.001  0.0033 -2.6474  2.3962
  110GLOH   H07 9718   4.095   1.586   3.092 -0.7632 -1.2680  0.4680
  110GLOH    O3 9719   4.192   1.407   3.104  0.6345 -0.3172  0.7108
  110GLOH   H01 9720   4.203   1.325   3.052  1.4767 -0.5514  1.2456
  111GLOH   H03 9721   2.088   4.727   2.359  0.3624 -0.2465 -2.0597
  111GLOH    O1 9722   2.174   4.682   2.353  0.8110  0.3006  0.0647
  111GLOH    C1 9723   2.271   4.771   2.311 -0.1544 -0.3141 -0.8594
  111GLOH   H02 9724   2.331   4.788   2.400 -0.5900  3.1079 -1.1455
  111GLOH   H08 9725   2.225   4.861   2.270  1.5544  2.0384  2.1816
  111GLOH    C2 9726   2.357   4.718   2.196 -0.0424 -0.4312 -0.4202
  111GLOH   H04 9727   2.406   4.624   2.223 -0.2866 -0.1170  1.1743
  111GLOH    O2 9728   2.287   4.707   2.071  0.0102 -0.2532  0.4642
  111GLOH   H05 9729   2.359   4.695   2.007  0.5354 -1.7242  1.2838
  111GLOH    C3 9730   2.464   4.829   2.189 -0.1946  0.2620  0.2224
  111GLOH   H06 9731   2.412   4.914   2.144 -1.9548 -0.8863  0.0120
  111GLOH   H07 9732   2.540   4.789   2.122  1.6828  2.4268  0.9851
  111GLOH    O3 9733   2.526   4.857   2.321 -0.4494  0.6564  0.3272
  111GLOH   H01 9734   2.608   4.810   2.344  0.8368  2.5776 -0.2095
  112GLOH   H03 9735   4.893   4.293   1.088  1.2536 -0.0920  0.3344
  112GLOH    O1 9736   4.925   4.381   1.061  0.0552  0.1717 -0.2675
  112GLOH    C1 9737   4.872   4.482   1.150  0.2347  0.1490  0.3401
  112GLOH   H02 9738   4.936   4.570   1.151  2.0627 -1.1483  0.4733
  112GLOH   H08 9739   4.857   4.443   1.251  1.3502  1.4880  1.0441
  112GLOH    C2 9740   4.735   4.523   1.097 -0.8133  0.2972 -0.8908
  112GLOH   H04 9741   4.668   4.436   1.108  1.6635 -1.3982  1.6309
  112GLOH    O2 9742   4.687   4.609   1.201 -0.5540  0.2482  0.6557
  112GLOH   H05 9743   4.595   4.594   1.226 -0.4686  0.1365  0.9049
  112GLOH    C3 9744   4.725   4.579   0.958 -0.1943 -0.9151 -0.3193
  112GLOH   H06 9745   4.784   4.670   0.948 -1.5186 -0.1353 -1.3485
  112GLOH   H07 9746   4.624   4.616   0.941  0.8314  1.4673 -1.5818
  112GLOH    O3 9747   4.748   4.474   0.861 -0.2551 -0.0417  0.1578
  112GLOH   H01 9748   4.732   4.385   0.900 -0.9080  0.4351  0.9936
  113GLOH   H03 9749   4.173   0.480   2.427 -0.5021  1.2081  0.0004
  113GLOH    O1 9750   4.224   0.536   2.488  0.2366 -0.0107  0.5302
  113GLOH    C1 9751   4.310   0.608   2.392 -0.2264  0.0692 -0.3569
  113GLOH   H02 9752   4.385   0.540   2.352  0.0246  1.6970 -2.7671
  113GLOH   H08 9753   4.370   0.686   2.439  1.9972 -0.7957 -1.7086
  113GLOH    C2 9754   4.254   0.689   2.270  0.2602 -0.3930  0.4089
  113GLOH   H04 9755   4.168   0.750   2.302  1.1158  1.1408 -0.1491
  113GLOH    O2 9756   4.351   0.783   2.207 -0.0049 -0.2175 -0.1174
  113GLOH   H05 9757   4.385   0.741   2.126  0.9383  1.5329 -0.6548
  113GLOH    C3 9758   4.201   0.587   2.163 -0.2677 -0.1621 -0.3547
  113GLOH   H06 9759   4.290   0.542   2.120 -0.5169 -0.9719 -0.0220
  113GLOH   H07 9760   4.150   0.635   2.079  1.0774  0.6397 -0.7153
  113GLOH    O3 9761   4.116   0.486   2.225  0.1389 -0.1475  0.1021
  113GLOH   H01 9762   4.021   0.505   2.219  0.6929  2.1123 -2.4885
  114GLOH   H03 9763   9.071   5.147   1.676  1.7377  2.3550  0.1799
  114GLOH    O1 9764   9.107   5.112   1.760 -0.4126  0.1152  0.2090
  114GLOH    C1 9765   9.053   5.188   1.875  0.8284  0.2429  0.0240
  114GLOH   H02 9766   8.973   5.131   1.922  2.5696 -2.8744 -0.6938
  114GLOH   H08 9767   9.002   5.279   1.843 -0.5301 -0.5794 -0.2284
  114GLOH    C2 9768   9.158   5.234   1.979  0.6124  0.7104  0.1669
  114GLOH   H04 9769   9.230   5.294   1.921  2.6205  1.0661  2.9053
  114GLOH    O2 9770   9.099   5.330   2.068  0.1817  0.3638  0.0616
  114GLOH   H05 9771   9.171   5.361   2.126  0.5168 -1.1662  0.4776
  114GLOH    C3 9772   9.220   5.109   2.029 -0.0048  1.1371  0.2138
  114GLOH   H06 9773   9.159   5.064   2.107  0.7203  1.3048  0.8812
  114GLOH   H07 9774   9.314   5.136   2.076  0.4563 -4.6995  3.1231
  114GLOH    O3 9775   9.257   5.011   1.932  0.5343  0.1815  0.1399
  114GLOH   H01 9776   9.193   5.028   1.860  0.0351  2.3641  1.0743
  115GLOH   H03 9777   0.793   4.142   1.425 -2.1772  1.0300 -0.3135
  115GLOH    O1 9778   0.798   4.147   1.328  0.2562 -0.0417 -0.2912
  115GLOH    C1 9779   0.726   4.265   1.282 -0.4794 -1.2078 -0.3904
  115GLOH   H02 9780   0.626   4.281   1.323  1.0289  3.0941  1.9659
  115GLOH   H08 9781   0.711   4.264   1.174  0.3209 -1.4643 -0.5001
  115GLOH    C2 9782   0.800   4.397   1.311  0.4686  0.4882 -0.0265
  115GLOH   H04 9783   0.898   4.397   1.262  1.2920  2.2321  1.5365
  115GLOH    O2 9784   0.725   4.510   1.262 -0.0102 -1.0579 -0.1787
  115GLOH   H05 9785   0.767   4.594   1.289 -1.3648 -1.0274  1.9775
  115GLOH    C3 9786   0.843   4.418   1.460  0.2859  0.3069  0.1749
  115GLOH   H06 9787   0.872   4.521   1.480 -2.3874  0.9477  0.9607
  115GLOH   H07 9788   0.923   4.346   1.475 -1.4247 -1.1904  2.6615
  115GLOH    O3 9789   0.727   4.382   1.540  0.2441 -0.6086 -0.0179
  115GLOH   H01 9790   0.652   4.438   1.511 -0.0788 -0.4133  1.1795
  116GLOH   H03 9791   4.194   3.858   1.284  0.5170  2.8822 -0.7269
  116GLOH    O1 9792   4.195   3.888   1.377  0.5951  0.6117  0.0391
  116GLOH    C1 9793   4.205   4.033   1.368  0.0137 -0.0827 -0.1406
  116GLOH   H02 9794   4.170   4.087   1.456 -0.3661  0.7409 -0.7836
  116GLOH   H08 9795   4.136   4.070   1.292 -1.8846 -0.5608  1.3198
  116GLOH    C2 9796   4.345   4.098   1.336 -0.2141  0.2551 -1.2198
  116GLOH   H04 9797   4.390   4.056   1.245 -0.9967 -1.1272 -0.9917
  116GLOH    O2 9798   4.320   4.233   1.296  0.6416 -0.4805 -0.2391
  116GLOH   H05 9799   4.350   4.245   1.204  0.9503 -3.2470 -0.5263
  116GLOH    C3 9800   4.440   4.076   1.460  0.7025 -0.1697 -0.2616
  116GLOH   H06 9801   4.444   3.972   1.492 -1.5515 -0.6049 -1.2688
  116GLOH   H07 9802   4.394   4.124   1.546  0.0082 -3.3273  1.1941
  116GLOH    O3 9803   4.571   4.120   1.442 -0.3072 -0.0766 -0.0422
  116GLOH   H01 9804   4.575   4.213   1.471 -1.4776 -0.0588  0.0858
  117GLOH   H03 9805   2.922   7.951   0.090 -0.4822  1.0563  1.4385
  117GLOH    O1 9806   3.014   7.923   0.106 -0.7804 -0.9530 -0.1168
  117GLOH    C1 9807   3.002   7.775   0.081 -0.2307 -0.4783 -0.0254
  117GLOH   H02 9808   2.900   7.741   0.092 -1.2271  1.4584 -2.6110
  117GLOH   H08 9809   3.051   7.722   0.162  0.8290 -0.4751 -0.6419
  117GLOH    C2 9810   3.041   7.705  -0.053  0.6115 -0.5581  0.0636
  117GLOH   H04 9811   2.968   7.743  -0.127  1.2298  2.3350  0.8619
  117GLOH    O2 9812   3.177   7.736  -0.092 -0.3156  0.3646 -0.2780
  117GLOH   H05 9813   3.179   7.828  -0.124  0.7012  0.0381 -1.1943
  117GLOH    C3 9814   3.023   7.552  -0.041 -0.2571 -0.6529  0.3584
  117GLOH   H06 9815   2.926   7.529   0.002  0.3993 -0.8566  1.7335
  117GLOH   H07 9816   3.101   7.534   0.033  0.4578  2.0778  0.3061
  117GLOH    O3 9817   3.051   7.473  -0.162 -0.1610  0.1706 -0.1816
  117GLOH   H01 9818   3.038   7.382  -0.127  0.5303  1.2653  3.1343
  118GLOH   H03 9819   3.573   8.419   2.643 -0.1149  0.6455  0.3653
  118GLOH    O1 9820   3.559   8.515   2.658 -0.0644  0.6483  0.3926
  118GLOH    C1 9821   3.441   8.566   2.587  0.3885  0.1685 -0.3030
  118GLOH   H02 9822   3.357   8.524   2.643 -0.3272  3.4139  1.2194
  118GLOH   H08 9823   3.431   8.524   2.487 -0.2838 -0.1326 -0.1133
  118GLOH    C2 9824   3.427   8.722   2.576  1.0386  0.5525  0.2846
  118GLOH   H04 9825   3.514   8.761   2.521  0.8217  1.7870  0.7891
  118GLOH    O2 9826   3.313   8.775   2.503 -0.0217 -0.6066 -1.1171
  118GLOH   H05 9827   3.302   8.735   2.415  2.4056 -0.3027 -1.6228
  118GLOH    C3 9828   3.429   8.795   2.712 -0.4787 -0.4052  0.5055
  118GLOH   H06 9829   3.429   8.717   2.789  1.3616 -1.2635 -0.3293
  118GLOH   H07 9830   3.338   8.853   2.725 -1.5498 -2.0692  0.6176
  118GLOH    O3 9831   3.548   8.872   2.725  0.0912 -0.2185 -0.0281
  118GLOH   H01 9832   3.539   8.890   2.820 -0.4808 -0.5407 -0.0158
  119GLOH   H03 9833   4.030   0.928   0.038  0.7381  0.5306 -3.1149
  119GLOH    O1 9834   4.122   0.919   0.068 -0.3973 -0.3849  0.2388
  119GLOH    C1 9835   4.138   0.796   0.140 -0.4524  0.4371 -0.0065
  119GLOH   H02 9836   4.049   0.734   0.140 -1.2892  1.6269  0.8016
  119GLOH   H08 9837   4.163   0.807   0.246 -2.0008  1.8882  0.2059
  119GLOH    C2 9838   4.256   0.706   0.085  0.4261 -0.7531 -0.2954
  119GLOH   H04 9839   4.355   0.744   0.117  0.3005 -0.4761 -0.2325
  119GLOH    O2 9840   4.259   0.568   0.138 -0.0579  0.2633  0.3208
  119GLOH   H05 9841   4.244   0.556   0.233  0.7761 -0.4385  0.3687
  119GLOH    C3 9842   4.248   0.706  -0.065  0.3891 -0.3473 -0.0388
  119GLOH   H06 9843   4.332   0.656  -0.113 -0.3792 -1.3869 -0.3399
  119GLOH   H07 9844   4.250   0.807  -0.106 -1.9585 -1.8614 -4.3110
  119GLOH    O3 9845   4.126   0.637  -0.118  0.0280 -0.3709 -0.1635
  119GLOH   H01 9846   4.157   0.589  -0.197  0.6852 -0.0411 -0.1092
  120GLOH   H03 9847   3.764   0.824   0.930 -0.3648  2.8432 -1.0414
  120GLOH    O1 9848   3.841   0.859   0.978  0.1167  0.0321  0.3614
  120GLOH    C1 9849   3.943   0.767   1.007  0.0429 -0.2310 -0.8829
  120GLOH   H02 9850   3.952   0.697   0.924  1.3972  0.2667 -1.1735
  120GLOH   H08 9851   3.917   0.717   1.101 -1.5310  0.4422 -0.9568
  120GLOH    C2 9852   4.079   0.830   1.025  0.5332 -0.3790  0.1955
  120GLOH   H04 9853   4.078   0.878   1.125  0.4164  0.2255 -0.0938
  120GLOH    O2 9854   4.191   0.746   1.019  0.1681  0.4833 -0.2909
  120GLOH   H05 9855   4.218   0.708   0.934 -0.2917 -1.0412  0.2269
  120GLOH    C3 9856   4.111   0.946   0.927 -0.2981  0.8556 -0.4322
  120GLOH   H06 9857   4.132   0.895   0.832  2.0125 -0.7155  0.8588
  120GLOH   H07 9858   4.202   0.997   0.957  0.0401 -0.4801  0.8544
  120GLOH    O3 9859   4.010   1.042   0.914  0.2946  0.3195 -0.6356
  120GLOH   H01 9860   3.935   0.993   0.951  2.1679 -2.6405 -0.5415
  121ACOH    H4 9861   3.116   0.949   0.518 -0.5931  0.2284 -0.1578
  121ACOH    O2 9862   3.121   1.040   0.487 -0.1113  0.0870 -0.5005
  121ACOH    C2 9863   3.060   1.108   0.590 -0.2366 -0.5550 -0.0938
  121ACOH    O1 9864   2.984   1.062   0.672 -0.5938  0.4409 -0.4730
  121ACOH    C1 9865   3.076   1.258   0.577  0.3042 -0.4400 -0.6868
  121ACOH    H1 9866   2.983   1.307   0.605  0.2465  0.1807 -1.9001
  121ACOH    H2 9867   3.096   1.290   0.475  3.7052 -1.3225 -0.3774
  121ACOH    H3 9868   3.157   1.289   0.644  0.4407  0.6093 -1.3188
  122ACOH    H4 9869   2.813   7.175   0.612  0.5212 -1.5625  0.7308
  122ACOH    O2 9870   2.804   7.185   0.709  0.3763  0.1284  0.5638
  122ACOH    C2 9871   2.730   7.081   0.749  0.2995  0.2819 -0.2952
  122ACOH    O1 9872   2.685   6.991   0.684 -0.4847  0.3299  0.0906
  122ACOH    C1 9873   2.712   7.082   0.894  0.1640 -0.0313  0.9292
  122ACOH    H1 9874   2.605   7.077   0.917 -0.2491 -0.3116 -1.0106
  122ACOH    H2 9875   2.753   7.167   0.947 -0.7717 -0.3428  2.1928
  122ACOH    H3 9876   2.764   6.996   0.937  0.7651 -0.3992 -0.4940
  123ACOH    H4 9877   1.489   6.709   0.125 -2.5567 -0.3496 -0.3364
  123ACOH    O2 9878   1.471   6.740   0.215  0.2358  0.2278  0.0644
  123ACOH    C2 9879   1.470   6.633   0.290  0.6680  0.0688  0.1766
  123ACOH    O1 9880   1.454   6.517   0.254  0.1240 -0.5507  0.2971
  123ACOH    C1 9881   1.459   6.673   0.432 -0.5257  0.1719 -0.9588
  123ACOH    H1 9882   1.414   6.772   0.441  0.8949  0.8236 -0.8955
  123ACOH    H2 9883   1.557   6.672   0.480 -0.8932 -0.6065 -0.1966
  123ACOH    H3 9884   1.392   6.602   0.481 -1.3875  1.3815 -0.3471
  124ACOH    H4 9885   9.824   4.589   1.492  1.0589  1.8871  2.2857
  124ACOH    O2 9886   9.730   4.583   1.515  0.6453  0.3995  0.2822
  124ACOH    C2 9887   9.674   4.499   1.424 -0.3770 -1.0625 -0.5406
  124ACOH    O1 9888   9.728   4.434   1.336  0.2458  0.2225  0.0889
  124ACOH    C1 9889   9.527   4.489   1.448  0.7522  0.4684 -0.5128
  124ACOH    H1 9890   9.512   4.416   1.528  0.5774 -0.4897 -1.3997
  124ACOH    H2 9891   9.462   4.465   1.363  0.4449  0.8079 -0.3748
  124ACOH    H3 9892   9.490   4.587   1.478  0.4415  1.0001 -2.5473
  125ACOH    H4 9893   1.862   4.356   0.990 -0.9295 -0.3153  1.5930
  125ACOH    O2 9894   1.846   4.438   1.040 -0.1066  0.6222  0.3799
  125ACOH    C2 9895   1.817   4.532   0.962  0.7836 -0.0847  0.8146
  125ACOH    O1 9896   1.851   4.532   0.845  0.5217  0.3110  0.5519
  125ACOH    C1 9897   1.766   4.663   1.019  0.2797  0.3788 -0.5261
  125ACOH    H1 9898   1.660   4.672   0.997 -0.0251 -0.0217  0.7587
  125ACOH    H2 9899   1.824   4.736   0.962  0.1209  0.5850 -0.4202
  125ACOH    H3 9900   1.777   4.682   1.125 -2.0107  4.2802 -0.9198
  126ACOH    H4 9901   2.802   9.717   0.877 -0.7010 -1.2147 -0.1343
  126ACOH    O2 9902   2.803   9.707   0.780 -0.3673 -0.4912 -0.2070
  126ACOH    C2 9903   2.929   9.709   0.735  0.1684  0.2558 -0.8276
  126ACOH    O1 9904   3.036   9.695   0.796 -0.1962  0.1532 -0.2505
  126ACOH    C1 9905   2.927   9.709   0.588 -0.0797  0.8182  0.1221
  126ACOH    H1 9906   2.926   9.816   0.569 -3.1959  0.8755  0.4561
  126ACOH    H2 9907   2.844   9.656   0.541 -0.2732  0.0041  1.3479
  126ACOH    H3 9908   3.024   9.667   0.562 -0.5414 -0.4887  0.4694
  127ACOH    H4 9909   4.941   0.527   0.861  0.4262 -3.8345 -0.1452
  127ACOH    O2 9910   5.005   0.544   0.931 -0.3165 -0.0492 -0.2864
  127ACOH    C2 9911   4.954   0.588   1.052  0.2010  0.4043  0.7261
  127ACOH    O1 9912   4.847   0.543   1.081  0.4911  0.1471 -0.2617
  127ACOH    C1 9913   5.056   0.631   1.149 -0.1468 -0.9137 -0.3308
  127ACOH    H1 9914   5.130   0.552   1.166  0.7175  0.2077  1.3167
  127ACOH    H2 9915   5.016   0.646   1.249 -0.3283 -1.4867 -0.3175
  127ACOH    H3 9916   5.100   0.726   1.119  1.9123 -1.6796  0.1668
  128ACOH    H4 9917   3.509   7.317   0.225  0.7347  0.7290 -0.1279
  128ACOH    O2 9918   3.580   7.345   0.165  0.4944  1.0052 -0.2832
  128ACOH    C2 9919   3.535   7.354   0.039  0.6919  0.5813  0.0193
  128ACOH    O1 9920   3.449   7.274  -0.008 -0.4138 -0.2554  0.2893
  128ACOH    C1 9921   3.606   7.466  -0.023  0.0731 -0.1871 -0.3789
  128ACOH    H1 9922   3.639   7.540   0.049 -0.7485 -0.4928  0.3189
  128ACOH    H2 9923   3.523   7.507  -0.080 -0.3612  0.2771  0.5818
  128ACOH    H3 9924   3.687   7.430  -0.087 -1.9066 -1.3011 -2.3246
  129ACOH    H4 9925   5.525   9.301   1.939 -1.2555 -0.6259  0.1290
  129ACOH    O2 9926   5.498   9.384   1.896  0.1337 -0.0251  0.3704
  129ACOH    C2 9927   5.518   9.387   1.764 -0.3507  1.0692  0.1814
  129ACOH    O1 9928   5.529   9.291   1.687 -0.5680 -0.0863 -0.2769
  129ACOH    C1 9929   5.536   9.523   1.713 -0.5712  0.2743 -0.3497
  129ACOH    H1 9930   5.472   9.533   1.625 -0.9641 -0.1732 -0.1189
  129ACOH    H2 9931   5.640   9.532   1.684 -0.2923 -2.5596 -0.3601
  129ACOH    H3 9932   5.506   9.597   1.786  0.1077 -0.6102  0.8462
  130ACOH    H4 9933   5.239   1.935   2.716 -0.6958 -2.8660  0.6973
  130ACOH    O2 9934   5.305   1.904   2.652  0.4961  0.0251  0.4510
  130ACOH    C2 9935   5.243   1.865   2.534 -0.4999 -0.3732 -0.4314
  130ACOH    O1 9936   5.143   1.908   2.486  0.9105 -0.1195  0.5222
  130ACOH    C1 9937   5.329   1.776   2.456  0.1003 -0.1233 -0.3363
  130ACOH    H1 9938   5.423   1.830   2.442  0.2651 -0.2541  0.2952
  130ACOH    H2 9939   5.284   1.756   2.359  0.4633  0.0572 -0.5461
  130ACOH    H3 9940   5.347   1.683   2.508 -1.7288  0.8791  2.1670
  131ACOH    H4 9941   8.597   4.755   0.655 -0.1802 -0.0641  0.5022
  131ACOH    O2 9942   8.510   4.767   0.614 -0.0376 -0.1810  0.1710
  131ACOH    C2 9943   8.526   4.815   0.493  0.4575  0.2251 -0.2033
  131ACOH    O1 9944   8.630   4.805   0.423 -0.4634  0.0652 -0.5119
  131ACOH    C1 9945   8.399   4.871   0.440  0.1466  0.8774 -0.7912
  131ACOH    H1 9946   8.360   4.804   0.363  1.2925  0.9483 -1.4370
  131ACOH    H2 9947   8.419   4.969   0.397  1.2697  1.3196  0.7302
  131ACOH    H3 9948   8.319   4.885   0.513 -0.9988  1.3136 -2.0957
  132ACOH    H4 9949   8.865   5.691   0.287 -0.4463  1.5621 -0.5226
  132ACOH    O2 9950   8.780   5.646   0.300  0.2728  0.3103 -0.1650
  132ACOH    C2 9951   8.807   5.521   0.339  0.5007 -0.6058  0.2600
  132ACOH    O1 9952   8.916   5.467   0.346 -0.0339 -0.5747  0.6262
  132ACOH    C1 9953   8.681   5.454   0.387 -0.2392  0.0474 -0.0276
  132ACOH    H1 9954   8.588   5.504   0.362  0.3951  1.9159  1.2182
  132ACOH    H2 9955   8.687   5.454   0.495 -3.9492 -1.1438  0.2446
  132ACOH    H3 9956   8.682   5.346   0.370  0.5394 -0.3822  2.5473
  133ACOH    H4 9957   8.567   4.247   0.970 -0.3524 -1.0413  0.8319
  133ACOH    O2 9958   8.489   4.301   0.949 -0.1555 -1.0175  0.1255
  133ACOH    C2 9959   8.515   4.434   0.952 -0.3050  0.5279  0.0954
  133ACOH    O1 9960   8.612   4.486   1.005 -0.8586 -0.1241 -0.7434
  133ACOH    C1 9961   8.412   4.506   0.884  0.0224 -0.0916 -0.8281
  133ACOH    H1 9962   8.321   4.447   0.874 -0.2634  0.3659 -0.9433
  133ACOH    H2 9963   8.442   4.525   0.781  0.4254 -0.9591 -0.8690
  133ACOH    H3 9964   8.382   4.595   0.939  3.7868 -0.6397  2.3263
  134ACOH    H4 9965   5.323   2.897   1.878 -0.7458  1.9580 -0.3342
  134ACOH    O2 9966   5.392   2.876   1.813 -0.0661  0.4843  0.8161
  134ACOH    C2 9967   5.464   2.783   1.871  0.3418  0.1929 -0.1035
  134ACOH    O1 9968   5.488   2.761   1.988 -0.9407 -0.7219 -0.4447
  134ACOH    C1 9969   5.528   2.691   1.772 -0.0817  0.2548 -0.0101
  134ACOH    H1 9970   5.571   2.756   1.696 -1.2294 -3.2784 -3.9142
  134ACOH    H2 9971   5.456   2.628   1.719 -0.4858  1.0269 -0.3976
  134ACOH    H3 9972   5.610   2.640   1.821  0.2040  0.7703  0.0492
  135ACOH    H4 9973   9.088   4.519   1.742 -5.3737 -1.1831 -1.2662
  135ACOH    O2 9974   9.105   4.543   1.649 -0.1668  0.0385 -0.2068
  135ACOH    C2 9975   9.177   4.443   1.595 -0.3728  0.4870  0.1760
  135ACOH    O1 9976   9.244   4.366   1.665  0.2264  0.0073 -0.1310
  135ACOH    C1 9977   9.192   4.449   1.453  0.3782 -0.8274 -0.7652
  135ACOH    H1 9978   9.259   4.532   1.431  1.9808 -1.7706  0.4370
  135ACOH    H2 9979   9.094   4.448   1.407  0.6969 -0.7716 -1.4546
  135ACOH    H3 9980   9.243   4.362   1.413 -0.8092 -1.9230  0.0714
  136ACOH    H4 9981   2.944   0.537   0.826 -0.8848 -0.6461 -0.1965
  136ACOH    O2 9982   2.901   0.623   0.809 -0.2029 -0.1948  0.2880
  136ACOH    C2 9983   2.846   0.662   0.925 -0.2868  0.5681  0.2249
  136ACOH    O1 9984   2.883   0.628   1.031  0.1815 -0.1381 -0.2019
  136ACOH    C1 9985   2.746   0.768   0.913 -0.2153  0.5088 -0.0375
  136ACOH    H1 9986   2.720   0.786   0.809  1.9630  2.6920 -0.2283
  136ACOH    H2 9987   2.782   0.858   0.963 -0.0180  0.9642 -1.0024
  136ACOH    H3 9988   2.653   0.736   0.961  0.1823 -0.3035  0.2017
  137ACOH    H4 9989   9.166   4.808   1.319  1.6249 -1.6549  0.0309
  137ACOH    O2 9990   9.156   4.797   1.415 -0.2403  0.3208  0.0966
  137ACOH    C2 9991   9.237   4.883   1.488 -0.0843 -0.5973 -0.1965
  137ACOH    O1 9992   9.257   4.997   1.454  0.2022 -0.6079 -0.4374
  137ACOH    C1 9993   9.260   4.831   1.622 -0.2302 -0.5571  0.0684
  137ACOH    H1 9994   9.165   4.828   1.676  0.1752  1.3598  0.9440
  137ACOH    H2 9995   9.316   4.906   1.678  3.0477 -2.3946 -0.6809
  137ACOH    H3 9996   9.327   4.745   1.626  1.3351  0.6119 -0.6009
  138ACOH    H4 9997   9.202   4.207   1.728 -1.5429  1.3635  1.1149
  138ACOH    O2 9998   9.180   4.113   1.745  0.7014  0.4461 -0.8539
  138ACOH    C2 9999   9.056   4.094   1.698 -0.7973 -0.0498 -0.0534
  138ACOH    O110000   8.975   4.183   1.670 -0.3105 -0.5191 -1.1107
  138ACOH    C110001   9.017   3.949   1.704 -0.3318 -0.5531 -0.2801
  138ACOH    H110002   9.036   3.918   1.807 -2.7614  2.1474  1.0847
  138ACOH    H210003   9.068   3.890   1.629 -0.5467 -0.6444 -0.3562
  138ACOH    H310004   8.909   3.933   1.693 -0.5712 -1.7775  3.2196
  139ACOH    H410005   5.039   3.694   0.753  0.3797 -0.4045 -0.6303
  139ACOH    O210006   5.058   3.619   0.811  1.0006 -0.1703 -0.5185
  139ACOH    C210007   5.191   3.617   0.846 -0.2736  0.1120  0.0621
  139ACOH    O110008   5.279   3.685   0.805  0.0680  0.3515  0.0879
  139ACOH    C110009   5.228   3.512   0.945  0.2635  0.3016  0.1972
  139ACOH    H110010   5.140   3.453   0.970  0.5178 -0.8581 -1.5732
  139ACOH    H210011   5.252   3.573   1.032 -0.6598 -1.0189  1.3974
  139ACOH    H310012   5.317   3.457   0.915 -0.7971 -1.4896  0.2659
  140ACOH    H410013   4.797   8.914   0.641 -0.8410  1.6231  0.8338
  140ACOH    O210014   4.837   8.881   0.723 -0.0689 -0.2787 -0.2771
  140ACOH    C210015   4.815   8.971   0.819  0.2882  0.2575 -0.6403
  140ACOH    O110016   4.729   9.058   0.826 -0.4217 -0.0057  0.2353
  140ACOH    C110017   4.885   8.933   0.950  0.0730 -0.0742 -0.4293
  140ACOH    H110018   4.992   8.937   0.929 -0.1846 -1.4680 -2.1158
  140ACOH    H210019   4.865   8.827   0.966 -0.8162 -0.1429 -1.8461
  140ACOH    H310020   4.853   8.996   1.033  2.3410  0.3674  0.1282
  141ACOH    H410021   3.234   6.593   0.409 -1.5345 -0.6294  0.5638
  141ACOH    O210022   3.243   6.653   0.485 -0.4554  0.1153 -0.1490
  141ACOH    C210023   3.213   6.597   0.602  0.0352  0.2336  0.3741
  141ACOH    O110024   3.215   6.475   0.617 -0.2179 -0.5599 -0.4267
  141ACOH    C110025   3.212   6.691   0.716 -0.5145  0.5473 -0.1122
  141ACOH    H110026   3.308   6.741   0.712  0.7124 -1.7933 -0.5155
  141ACOH    H210027   3.191   6.638   0.809 -3.2810  1.7701  0.0142
  141ACOH    H310028   3.130   6.759   0.691 -1.3532 -0.3540  0.1338
  142ACOH    H410029   5.290   2.941   1.071 -0.9618  0.1535 -1.6554
  142ACOH    O210030   5.293   2.851   1.035  0.3994 -0.1465 -0.8318
  142ACOH    C210031   5.430   2.835   1.019  0.2657  0.0560  0.1581
  142ACOH    O110032   5.512   2.862   1.100 -0.1836  0.2001  0.3855
  142ACOH    C110033   5.453   2.726   0.920 -0.0424  0.7446  0.1511
  142ACOH    H110034   5.435   2.628   0.964  0.1371  0.2642 -0.8362
  142ACOH    H210035   5.558   2.726   0.892 -0.1452  0.5577 -0.2447
  142ACOH    H310036   5.396   2.747   0.830 -0.4616  0.4451  0.3439
  143ACOH    H410037   1.218   6.190   1.858 -2.2846  2.7927  0.4295
  143ACOH    O210038   1.230   6.170   1.952  0.1931 -0.2131 -0.4573
  143ACOH    C210039   1.316   6.267   1.989 -0.4139 -0.5407 -0.1188
  143ACOH    O110040   1.350   6.367   1.929  0.3203  0.1105  0.3002
  143ACOH    C110041   1.373   6.238   2.127  0.4537 -0.7339 -0.4519
  143ACOH    H110042   1.284   6.235   2.190 -0.5359  0.7472 -1.7515
  143ACOH    H210043   1.423   6.334   2.142 -0.3752 -0.2417 -0.7597
  143ACOH    H310044   1.440   6.153   2.128 -2.8393 -3.4318  1.0125
  144ACOH    H410045   5.153   2.152   1.207 -0.4196 -0.8405 -0.3001
  144ACOH    O210046   5.233   2.109   1.244 -0.1514 -0.4410 -0.4110
  144ACOH    C210047   5.224   1.980   1.219  0.9007 -0.2980 -0.1125
  144ACOH    O110048   5.135   1.935   1.156  0.2664 -0.3139 -0.0117
  144ACOH    C110049   5.296   1.889   1.313 -0.0746  0.3280  0.6919
  144ACOH    H110050   5.305   1.944   1.406 -0.2235 -1.4651  1.7936
  144ACOH    H210051   5.398   1.873   1.280  0.0082 -0.2795  1.2237
  144ACOH    H310052   5.246   1.793   1.328 -1.3228  1.0231  1.0650
  145ACOH    H410053   4.430   8.263   1.451 -2.9963 -3.2973  2.5416
  145ACOH    O210054   4.477   8.186   1.414  0.6039  0.0480 -0.3088
  145ACOH    C210055   4.404   8.152   1.307  0.1791  0.2199  0.0651
  145ACOH    O110056   4.286   8.178   1.303 -0.0260  0.4614  0.2461
  145ACOH    C110057   4.466   8.058   1.216  0.0322 -1.2407 -0.8078
  145ACOH    H110058   4.544   8.106   1.157  0.5240  0.5605  1.2394
  145ACOH    H210059   4.389   8.029   1.143 -2.8048  0.9802  1.1760
  145ACOH    H310060   4.507   7.976   1.274  1.4546  0.8217  1.1774
  146ACOH    H410061   3.943   7.534   0.942  1.9236 -0.2979 -3.4624
  146ACOH    O210062   3.922   7.439   0.936 -0.2158 -0.1645  0.2978
  146ACOH    C210063   3.795   7.412   0.982 -0.5170  0.2015  0.4140
  146ACOH    O110064   3.723   7.472   1.060 -0.4459 -0.1144  0.1171
  146ACOH    C110065   3.763   7.273   0.935 -0.1382  0.1178 -0.0752
  146ACOH    H110066   3.850   7.210   0.947 -0.4406  0.1524  2.7391
  146ACOH    H210067   3.738   7.284   0.830  0.9078  2.0573 -0.1512
  146ACOH    H310068   3.687   7.224   0.996 -1.7562  3.0383  0.4032
  147ACOH    H410069   2.957   2.442   0.975 -0.4318 -0.4530  1.2460
  147ACOH    O210070   2.867   2.456   0.942  0.2355 -0.4307 -0.6053
  147ACOH    C210071   2.868   2.534   0.837 -0.5801  0.3622 -0.7728
  147ACOH    O110072   2.963   2.564   0.765 -0.0583  0.4839 -0.0585
  147ACOH    C110073   2.732   2.586   0.810 -0.1990 -0.1888 -0.0766
  147ACOH    H110074   2.719   2.691   0.834 -0.8397 -0.3068  0.1044
  147ACOH    H210075   2.657   2.530   0.866  0.1161 -0.8532 -0.3113
  147ACOH    H310076   2.709   2.566   0.705 -0.5560  0.0700 -0.0506
  148ACOH    H410077   4.483   8.105   2.650  2.0385 -0.6862 -0.2299
  148ACOH    O210078   4.438   8.117   2.564  0.0679  0.9636  0.9702
  148ACOH    C210079   4.314   8.067   2.577  0.4268 -0.2359  0.6071
  148ACOH    O110080   4.250   8.025   2.677 -0.0051  0.6453 -0.2474
  148ACOH    C110081   4.239   8.102   2.455  0.2659 -0.2703 -0.2748
  148ACOH    H110082   4.258   8.208   2.439 -1.0575  0.0935  0.4421
  148ACOH    H210083   4.131   8.087   2.466  0.2131 -0.7825 -1.4564
  148ACOH    H310084   4.267   8.039   2.371  1.5195  2.5694 -2.0481
  149ACOH    H410085   8.906   4.254   0.608 -0.4623 -1.1589 -0.7973
  149ACOH    O210086   8.893   4.305   0.526 -0.0222  0.4041  0.0663
  149ACOH    C210087   8.804   4.403   0.560 -0.0538  0.4353 -0.9068
  149ACOH    O110088   8.748   4.417   0.668 -0.0732  0.5157 -0.1733
  149ACOH    C110089   8.783   4.504   0.457  0.1368  0.6889 -0.1075
  149ACOH    H110090   8.859   4.579   0.475 -0.0647  1.3617 -1.9358
  149ACOH    H210091   8.683   4.546   0.449  0.1203  1.1268  2.0887
  149ACOH    H310092   8.807   4.457   0.362  1.4772  1.0952  0.0204
  150ACOH    H410093   8.859   5.426   0.637 -1.9015  0.8718 -0.9565
  150ACOH    O210094   8.841   5.331   0.630  0.0675  0.4000 -0.0887
  150ACOH    C210095   8.954   5.271   0.665 -0.0474 -0.6155 -0.4643
  150ACOH    O110096   9.028   5.308   0.756 -0.6247  0.4238 -0.5611
  150ACOH    C110097   8.958   5.131   0.632  0.9960  0.1297 -0.4303
  150ACOH    H110098   8.853   5.103   0.623  1.1523 -0.7882  0.4955
  150ACOH    H210099   9.009   5.070   0.706  0.0790  1.4435  1.3036
  150ACOH    H310100   9.017   5.114   0.541  1.5047  2.4139 -0.5689
  151ACOH    H410101   9.114   5.703   1.614  1.0103  0.6682 -0.3713
  151ACOH    O210102   9.119   5.741   1.703  0.0320  0.3292 -0.1674
  151ACOH    C210103   9.177   5.651   1.772 -0.7815 -0.4102  0.1711
  151ACOH    O110104   9.236   5.560   1.723  0.6200  0.4353 -0.1815
  151ACOH    C110105   9.194   5.680   1.914  0.0033  0.0671  0.6330
  151ACOH    H110106   9.300   5.704   1.925  0.1971 -0.6735  0.3567
  151ACOH    H210107   9.160   5.601   1.981  0.5234  1.9031  3.1300
  151ACOH    H310108   9.133   5.766   1.944 -2.4998 -1.7960  0.9663
  152ACOH    H410109   1.309   4.604   1.015 -0.1167  0.4548  1.1284
  152ACOH    O210110   1.243   4.641   0.955  0.4959  0.2820  0.3443
  152ACOH    C210111   1.154   4.541   0.928 -0.9641 -0.5743  0.8763
  152ACOH    O110112   1.169   4.420   0.942  0.1328 -0.6384 -0.1901
  152ACOH    C110113   1.029   4.595   0.880  0.9218 -0.3329 -0.2405
  152ACOH    H110114   1.021   4.703   0.891  0.6933 -0.5619  2.1093
  152ACOH    H210115   0.946   4.544   0.929 -1.5730  2.0721 -1.8376
  152ACOH    H310116   1.029   4.577   0.773 -2.0336  0.7608 -0.4694
  153ACOH    H410117   1.665   4.657   0.268 -0.6320 -0.5413 -0.1312
  153ACOH    O210118   1.644   4.580   0.324  0.1116 -0.2464  0.5579
  153ACOH    C210119   1.712   4.584   0.439  0.4275  1.0699 -0.6709
  153ACOH    O110120   1.767   4.681   0.481  0.1580  0.5607 -0.4410
  153ACOH    C110121   1.716   4.459   0.512  0.6098  0.2067  1.4028
  153ACOH    H110122   1.683   4.479   0.614 -2.1007  0.8969  0.4219
  153ACOH    H210123   1.814   4.416   0.531  0.3585 -1.7396 -1.3857
  153ACOH    H310124   1.659   4.373   0.477  1.6790 -0.4603  1.2593
  154ACOH    H410125   3.061   8.759   0.163 -0.3816  0.9633  0.2896
  154ACOH    O210126   3.063   8.757   0.066  1.3497 -0.0865  0.3337
  154ACOH    C210127   2.963   8.678   0.017 -0.2848 -0.2919 -0.1760
  154ACOH    O110128   2.896   8.602   0.084  0.7069  0.2907 -0.1943
  154ACOH    C110129   2.943   8.680  -0.131  0.3759 -0.7308  0.7303
  154ACOH    H110130   3.013   8.757  -0.166  0.0756 -1.0298 -0.5508
  154ACOH    H210131   2.840   8.708  -0.148  0.5841  0.7879  1.8627
  154ACOH    H310132   2.967   8.588  -0.185 -0.8879 -0.6476  0.0011
  155ACOH    H410133   9.078   4.493   2.647 -1.1044 -0.2303 -1.6452
  155ACOH    O210134   9.002   4.525   2.698  0.1607 -0.3640  0.3842
  155ACOH    C210135   9.042   4.634   2.762 -0.1790  0.4486  0.0710
  155ACOH    O110136   9.151   4.683   2.768 -0.2484 -0.1770 -0.0467
  155ACOH    C110137   8.928   4.711   2.830 -0.5491 -0.0403 -0.1320
  155ACOH    H110138   8.949   4.732   2.935  2.8158 -3.5006 -0.0262
  155ACOH    H210139   8.831   4.662   2.826 -0.6552  0.3690 -5.1277
  155ACOH    H310140   8.915   4.805   2.776 -0.7678  0.1765  0.2939
  156ACOH    H410141   5.264   2.645   0.276 -0.1505 -0.1272 -0.3812
  156ACOH    O210142   5.303   2.603   0.198  0.4563  0.3157 -0.3243
  156ACOH    C210143   5.352   2.691   0.109  0.0388 -0.3520  0.2095
  156ACOH    O110144   5.410   2.800   0.122 -0.3851 -0.1964 -0.2816
  156ACOH    C110145   5.364   2.625  -0.025  0.1874 -0.2442  0.1506
  156ACOH    H110146   5.265   2.598  -0.060 -0.3008  0.2037  1.1598
  156ACOH    H210147   5.419   2.531  -0.014  1.8493  0.6491 -0.3260
  156ACOH    H310148   5.412   2.683  -0.103  1.4479  1.8184  2.3782
  157ACOH    H410149   5.520   2.622   1.480 -0.8951  0.2959  2.2503
  157ACOH    O210150   5.537   2.528   1.496  0.7003  0.0327 -0.6556
  157ACOH    C210151   5.422   2.457   1.466 -0.0747 -0.1279  0.1056
  157ACOH    O110152   5.311   2.487   1.444  0.7096 -0.7021  0.4630
  157ACOH    C110153   5.473   2.317   1.461  0.5051  0.8482  0.1324
  157ACOH    H110154   5.437   2.270   1.553  2.3860 -2.8350 -0.9137
  157ACOH    H210155   5.578   2.311   1.433  0.3579  0.4311 -0.3228
  157ACOH    H310156   5.418   2.279   1.375  1.6176  2.4764 -1.3360
  158ACOH    H410157   2.601   8.700   0.518  3.0417 -0.9640 -1.0433
  158ACOH    O210158   2.564   8.671   0.433 -0.1114 -0.7026  0.1676
  158ACOH    C210159   2.621   8.756   0.343  0.3202 -0.4453 -0.3575
  158ACOH    O110160   2.712   8.830   0.363  0.0108  0.8917 -0.2831
  158ACOH    C110161   2.552   8.746   0.211 -0.9906 -0.2216  0.3263
  158ACOH    H110162   2.577   8.644   0.183 -1.2418 -0.8245  2.2138
  158ACOH    H210163   2.594   8.814   0.136  2.1709 -1.2114  1.1261
  158ACOH    H310164   2.447   8.756   0.238 -0.1354  2.0304  3.0572
  159ACOH    H410165   3.448   3.313   1.563 -1.6240  2.3095 -0.0249
  159ACOH    O210166   3.376   3.262   1.603  0.3447  0.2042  0.9396
  159ACOH    C210167   3.297   3.353   1.666  0.2617 -0.0125 -0.4615
  159ACOH    O110168   3.321   3.471   1.690 -1.1316 -0.5984 -0.3492
  159ACOH    C110169   3.189   3.282   1.740 -0.3792 -0.2836 -0.0643
  159ACOH    H110170   3.167   3.348   1.824 -2.1251  0.1046 -0.8086
  159ACOH    H210171   3.231   3.187   1.770  0.5162 -0.0603 -0.5824
  159ACOH    H310172   3.100   3.256   1.683 -0.4106 -0.7389  0.1950
  160ACOH    H410173   4.393   8.711   2.285 -1.9800 -0.6942  3.2872
  160ACOH    O210174   4.453   8.753   2.349  0.3673  0.1596  0.6329
  160ACOH    C210175   4.532   8.844   2.287  0.4142  0.2871  0.4012
  160ACOH    O110176   4.545   8.885   2.173 -0.1902 -0.1101 -0.4976
  160ACOH    C110177   4.627   8.892   2.392  0.3489 -0.1485 -0.4358
  160ACOH    H110178   4.707   8.957   2.356  2.0562 -1.9540 -0.0158
  160ACOH    H210179   4.678   8.808   2.438  1.4559  1.8841  2.1539
  160ACOH    H310180   4.571   8.950   2.466  1.7836  1.5807 -0.6735
  161ACOH    H410181   4.526   0.363   1.527  1.2065 -4.5482  0.1203
  161ACOH    O210182   4.583   0.380   1.450  0.0590 -0.2574  0.1014
  161ACOH    C210183   4.570   0.278   1.367  0.1745  0.4399  0.5331
  161ACOH    O110184   4.515   0.171   1.400 -0.1360 -0.2116 -0.4089
  161ACOH    C110185   4.655   0.284   1.245  0.0599 -0.2733  0.4944
  161ACOH    H110186   4.707   0.380   1.242  1.0243 -0.8248 -1.0281
  161ACOH    H210187   4.593   0.277   1.156  1.1233  0.1868 -0.2967
  161ACOH    H310188   4.728   0.202   1.243  1.3884  0.7322  3.9642
  162ACOH    H410189   4.714   0.804   2.456  1.0148 -0.6658 -0.8065
  162ACOH    O210190   4.759   0.884   2.426  0.1606  0.1201 -0.0465
  162ACOH    C210191   4.855   0.844   2.342 -0.1576 -0.8698 -1.0948
  162ACOH    O110192   4.867   0.732   2.291  0.5366 -0.3975  0.0862
  162ACOH    C110193   4.952   0.956   2.313  0.3181 -0.0739  0.4215
  162ACOH    H110194   5.036   0.955   2.382  1.0535  1.0281 -0.4436
  162ACOH    H210195   4.896   1.049   2.317 -0.5739 -0.6095  0.5665
  162ACOH    H310196   4.991   0.945   2.212  0.1913  0.6829  0.2846
  163ACOH    H410197   5.554   3.353   1.699 -0.5246  1.2570 -0.1610
  163ACOH    O210198   5.646   3.384   1.690 -0.0940  0.1346  0.2627
  163ACOH    C210199   5.669   3.400   1.560 -0.6832  0.2040  0.8193
  163ACOH    O110200   5.587   3.420   1.476 -0.0877  0.3909  0.6600
  163ACOH    C110201   5.817   3.424   1.549  1.0227  0.3609 -0.1111
  163ACOH    H110202   5.867   3.333   1.583  0.5782 -0.3975 -1.4356
  163ACOH    H210203   5.832   3.501   1.625 -0.7149  1.6127 -1.0140
  163ACOH    H310204   5.850   3.454   1.450 -0.3779 -0.7923 -0.9487
  164ACOH    H410205   4.561   4.229   2.066 -0.8150 -1.6184  0.0317
  164ACOH    O210206   4.543   4.221   1.971  0.3999 -0.8441 -0.2789
  164ACOH    C210207   4.518   4.353   1.934  0.1736  0.7437  0.0512
  164ACOH    O110208   4.505   4.445   2.009 -0.7888  0.1614  0.2214
  164ACOH    C110209   4.524   4.351   1.786  0.0709  0.1640  0.6444
  164ACOH    H110210   4.613   4.302   1.747 -0.0307 -0.2448  0.9248
  164ACOH    H210211   4.510   4.452   1.747  0.5226  0.3360  0.9134
  164ACOH    H310212   4.445   4.288   1.747  0.6922 -1.4295  1.9113
  165ACOH    H410213   3.745   2.734   1.925 -1.3292 -0.7509  0.2905
  165ACOH    O210214   3.803   2.712   2.001  0.0716  0.2971 -0.4526
  165ACOH    C210215   3.839   2.838   2.042  0.3807  0.4324 -0.1639
  165ACOH    O110216   3.818   2.944   1.983 -0.4820 -0.3952 -0.6407
  165ACOH    C110217   3.934   2.831   2.158 -0.3393 -0.3376 -0.5773
  165ACOH    H110218   3.881   2.854   2.251 -2.2737 -1.0881 -1.4850
  165ACOH    H210219   4.013   2.905   2.142 -0.6519 -0.0700 -0.8996
  165ACOH    H310220   3.977   2.733   2.175  2.4123  0.2743 -3.5696
  166ACOH    H410221   4.570   0.313   0.346  2.3275  1.2928  1.6272
  166ACOH    O210222   4.563   0.241   0.411 -0.0720 -0.1564 -0.1354
  166ACOH    C210223   4.677   0.252   0.479  0.2642 -0.4063  0.4887
  166ACOH    O110224   4.735   0.356   0.501  0.0374 -0.2074 -0.5787
  166ACOH    C110225   4.703   0.125   0.560 -0.5131 -0.1520  0.0143
  166ACOH    H110226   4.805   0.136   0.597 -0.8023  1.1611  0.4480
  166ACOH    H210227   4.696   0.040   0.492 -1.2884  0.3880 -0.5900
  166ACOH    H310228   4.627   0.121   0.638 -0.7006  1.7245 -0.0608
  167ACOH    H410229   9.580   4.179   2.813 -0.0479  1.6525 -1.0442
  167ACOH    O210230   9.630   4.262   2.811  0.0192  1.6446 -0.0725
  167ACOH    C210231   9.545   4.371   2.797 -0.0459  0.5035  0.7937
  167ACOH    O110232   9.430   4.359   2.771  0.0145 -0.2390  0.3511
  167ACOH    C110233   9.627   4.492   2.756 -0.7494 -0.4759  0.2629
  167ACOH    H110234   9.709   4.446   2.700  0.3564  0.3839  1.1364
  167ACOH    H210235   9.663   4.544   2.845 -2.0782  0.2766  0.3689
  167ACOH    H310236   9.566   4.559   2.696 -1.1544  1.2290  2.4944
  168ACOH    H410237   9.293   5.401   1.634 -0.0452 -0.0702  0.9066
  168ACOH    O210238   9.348   5.336   1.587 -0.1386  0.4366  0.1005
  168ACOH    C210239   9.393   5.393   1.479 -0.7298  0.0589 -0.1559
  168ACOH    O110240   9.360   5.489   1.417  0.8483 -0.0353 -0.3324
  168ACOH    C110241   9.481   5.292   1.416  0.4158 -0.6344 -0.1286
  168ACOH    H110242   9.504   5.212   1.486  0.2797 -0.2903  0.3095
  168ACOH    H210243   9.572   5.340   1.381  1.4564 -1.0534  1.9367
  168ACOH    H310244   9.429   5.241   1.334 -0.0602 -2.3992  1.2381
  169ACOH    H410245   4.611   9.195   0.341  0.4681 -0.1270  1.0012
  169ACOH    O210246   4.694   9.160   0.303  0.1870  0.0462  0.2180
  169ACOH    C210247   4.695   9.155   0.171 -0.1499 -1.2035 -0.2969
  169ACOH    O110248   4.643   9.241   0.103  0.4709 -0.3386 -0.0224
  169ACOH    C110249   4.801   9.063   0.120  0.5242  0.8021  0.2951
  169ACOH    H110250   4.891   9.064   0.181  2.4595 -3.7070 -2.2625
  169ACOH    H210251   4.832   9.105   0.025  1.3324  1.7391  0.9597
  169ACOH    H310252   4.757   8.963   0.114 -2.3067  1.8682  1.9453
  170ACOH    H410253   4.669   5.028   1.049 -3.2763  2.9492  1.5301
  170ACOH    O210254   4.732   5.101   1.035  0.4045 -0.3439  0.2293
  170ACOH    C210255   4.857   5.048   1.021 -0.3965 -0.0588  0.0677
  170ACOH    O110256   4.902   4.949   1.081 -0.1214 -0.3856 -0.3578
  170ACOH    C110257   4.947   5.146   0.948 -0.0086  0.0085  0.4872
  170ACOH    H110258   4.948   5.237   1.008  2.8835 -0.4529  1.1970
  170ACOH    H210259   4.905   5.163   0.848 -2.1385  1.4673  1.5960
  170ACOH    H310260   5.047   5.104   0.947  0.2158  0.5334 -0.4276
  171ACOH    H410261   4.630   8.310   2.218  0.8528  0.7886  0.2509
  171ACOH    O210262   4.678   8.354   2.146  0.6670 -0.2166 -0.4998
  171ACOH    C210263   4.572   8.392   2.068  0.3881 -0.9287 -0.0537
  171ACOH    O110264   4.456   8.378   2.084  0.3534  0.5465 -0.1960
  171ACOH    C110265   4.620   8.466   1.945 -0.4034  0.5482  0.1071
  171ACOH    H110266   4.556   8.486   1.859  1.9819  0.2008 -1.8047
  171ACOH    H210267   4.700   8.409   1.896 -1.6542 -0.5142 -0.7227
  171ACOH    H310268   4.682   8.552   1.972  1.1162 -0.8783  1.2783
  172ACOH    H410269   9.127   4.528   2.135  0.7026 -0.1094  1.4635
  172ACOH    O210270   9.061   4.456   2.134  0.7058 -0.1095  0.0363
  172ACOH    C210271   9.025   4.430   2.004  0.4420 -0.6236  0.7310
  172ACOH    O110272   9.101   4.475   1.921  0.3949 -0.7076 -0.0988
  172ACOH    C110273   8.930   4.321   1.985  0.3072  0.0554  0.1020
  172ACOH    H110274   8.969   4.219   1.981  0.8784  0.3431 -2.2664
  172ACOH    H210275   8.884   4.329   1.886  0.8784 -1.0308 -0.2639
  172ACOH    H310276   8.853   4.336   2.060 -0.7423  3.9003 -1.6111
  173ACOH    H410277   4.345   5.014   1.733 -2.1424  2.0435  0.7535
  173ACOH    O210278   4.329   5.040   1.640 -0.7218  0.3750  0.0289
  173ACOH    C210279   4.385   5.166   1.630  0.7554 -0.3497  0.0382
  173ACOH    O110280   4.436   5.233   1.718 -0.0448 -0.1351  0.2939
  173ACOH    C110281   4.368   5.223   1.499  0.4764  0.3101  0.2863
  173ACOH    H110282   4.464   5.235   1.448  1.3858  1.5126  2.1868
  173ACOH    H210283   4.321   5.319   1.517 -0.9386  0.0301 -1.7782
  173ACOH    H310284   4.309   5.162   1.431  0.9875 -3.3904  2.9939
  174ACOH    H410285   4.903   0.925   1.319  0.2122 -1.7104 -0.8688
  174ACOH    O210286   4.989   0.953   1.284  0.1877 -0.2145  0.2061
  174ACOH    C210287   5.011   1.070   1.338  0.1652  0.3177  0.1922
  174ACOH    O110288   4.972   1.107   1.449 -0.0226 -0.0331  0.2566
  174ACOH    C110289   5.127   1.135   1.276  0.1853 -0.0276  0.2210
  174ACOH    H110290   5.124   1.147   1.168  2.2246 -0.1397  0.1223
  174ACOH    H210291   5.215   1.075   1.297  0.9874  1.0233 -0.0573
  174ACOH    H310292   5.137   1.236   1.317 -0.3459  0.5349 -1.0208
  175ACOH    H410293   2.095   2.078   1.768 -0.8204 -4.0002  0.4944
  175ACOH    O210294   2.083   2.079   1.672 -0.5263  0.4845  0.3986
  175ACOH    C210295   2.022   1.968   1.631 -0.0811 -0.0133 -0.1629
  175ACOH    O110296   2.003   1.868   1.702  0.5424 -0.1893  0.2374
  175ACOH    C110297   2.002   1.949   1.485 -0.2018  1.0874 -0.3881
  175ACOH    H110298   2.069   2.014   1.429  0.9449  1.0629  0.9421
  175ACOH    H210299   1.900   1.976   1.457 -1.2484 -1.1730  1.1004
  175ACOH    H310300   2.037   1.851   1.451 -0.0688  0.4903  1.4038
  176ACOH    H410301   3.378   3.103   1.222 -0.6491  1.6978 -0.0071
  176ACOH    O210302   3.314   3.067   1.285 -0.2694  0.1224 -0.4971
  176ACOH    C210303   3.232   3.172   1.320 -0.1719  0.0098  0.3509
  176ACOH    O110304   3.261   3.290   1.304 -0.1220  1.6417  0.0921
  176ACOH    C110305   3.114   3.124   1.396  0.7387 -0.2508 -0.2522
  176ACOH    H110306   3.142   3.038   1.457  0.8723 -0.4111 -0.5387
  176ACOH    H210307   3.024   3.112   1.335  0.8332  2.8335 -1.0525
  176ACOH    H310308   3.088   3.189   1.479  0.7701 -2.8293  1.8515
  177ACOH    H410309   3.716   8.235   2.430 -0.3209  2.5186  1.7954
  177ACOH    O210310   3.789   8.207   2.489 -0.0849  0.3238  0.5131
  177ACOH    C210311   3.732   8.178   2.610  0.4636  0.1031  0.3351
  177ACOH    O110312   3.625   8.222   2.650  0.3899 -0.2602 -0.1240
  177ACOH    C110313   3.824   8.100   2.695  0.3562  0.9110  0.2138
  177ACOH    H110314   3.785   7.999   2.711 -2.2358  2.0347  1.2849
  177ACOH    H210315   3.841   8.147   2.791  1.8426 -1.5803  1.1998
  177ACOH    H310316   3.924   8.092   2.652  0.0488  0.0794 -0.3635
  178ACOH    H410317   4.826   4.048   1.132  0.1345  1.6889  1.7936
  178ACOH    O210318   4.899   4.104   1.100 -0.0514  0.8593 -0.1961
  178ACOH    C210319   4.968   4.065   0.989  0.5889 -0.5644  0.2798
  178ACOH    O110320   4.906   4.013   0.899 -0.4788  0.2481  0.5217
  178ACOH    C110321   5.097   4.133   0.977 -0.0227  0.2635 -0.1063
  178ACOH    H110322   5.087   4.195   0.888  0.4457  1.9371  0.9820
  178ACOH    H210323   5.175   4.059   0.960  2.0714  2.0293  1.6143
  178ACOH    H310324   5.109   4.189   1.070 -1.2098  1.4281 -0.6386
  179ACOH    H410325   2.816   0.104   2.762 -3.4321 -2.3440  1.3133
  179ACOH    O210326   2.783   0.188   2.799  0.0865 -0.2808 -0.0174
  179ACOH    C210327   2.848   0.212   2.911  0.3989  0.9568 -0.2342
  179ACOH    O110328   2.903   0.123   2.977  0.4179  0.3571 -0.3385
  179ACOH    C110329   2.798   0.338   2.965  0.0690  0.0270  0.6293
  179ACOH    H110330   2.834   0.346   3.067 -0.6192  0.9940  0.8053
  179ACOH    H210331   2.690   0.348   2.969  0.2580  1.2920  4.9255
  179ACOH    H310332   2.839   0.415   2.899  0.0212 -0.7994 -0.3763
  180ACOH    H410333   3.926   5.781   0.330  1.3454 -1.3998 -1.0179
  180ACOH    O210334   3.993   5.847   0.354  0.4257 -0.9553  0.4723
  180ACOH    C210335   4.112   5.783   0.377 -0.4866  0.7667  0.2676
  180ACOH    O110336   4.110   5.661   0.410  0.0393 -0.5085  0.4064
  180ACOH    C110337   4.208   5.880   0.424 -0.0130 -0.6955  0.1227
  180ACOH    H110338   4.207   5.892   0.533  2.7107 -0.8401  0.1983
  180ACOH    H210339   4.176   5.975   0.382  2.1571 -0.2165 -0.5146
  180ACOH    H310340   4.308   5.860   0.386  0.9170 -0.0138  2.1067
  181ACOH    H410341   4.891   3.759   2.429  0.0785 -0.4515  0.7248
  181ACOH    O210342   4.943   3.718   2.358 -0.0938 -0.0542  0.3684
  181ACOH    C210343   4.899   3.765   2.246 -0.0181  0.3875  0.0234
  181ACOH    O110344   4.821   3.854   2.225  0.2882 -0.0906 -0.3662
  181ACOH    C110345   4.977   3.695   2.139  0.6675  0.1008  0.0212
  181ACOH    H110346   4.931   3.597   2.130  1.0063 -0.1000  0.4733
  181ACOH    H210347   5.083   3.681   2.159  0.8158  0.3221 -0.5912
  181ACOH    H310348   4.964   3.739   2.040 -0.2341  0.5828  0.3453
  182ACOH    H410349   4.188   9.934   0.047 -1.3889 -0.0061 -0.4120
  182ACOH    O210350   4.181   9.851  -0.004  0.1899 -0.0561 -0.5951
  182ACOH    C210351   4.237   9.870  -0.123  0.7507  0.4066 -0.1343
  182ACOH    O110352   4.252   9.973  -0.179  0.2425 -0.1590 -0.0402
  182ACOH    C110353   4.267   9.739  -0.196 -0.6196 -0.2219 -0.4132
  182ACOH    H110354   4.334   9.677  -0.138 -0.2831 -0.8651 -1.4851
  182ACOH    H210355   4.302   9.758  -0.297  0.1734  0.2190 -0.0566
  182ACOH    H310356   4.175   9.681  -0.212  0.1151 -1.0995 -1.5072
  183ACOH    H410357   4.092   3.849   1.842 -1.8552  0.3979 -0.5925
  183ACOH    O210358   4.137   3.928   1.809 -0.7180  0.0491  0.1047
  183ACOH    C210359   4.129   4.011   1.912 -0.3002 -1.1484 -0.9302
  183ACOH    O110360   4.077   3.983   2.020  0.2997  0.2678 -0.7497
  183ACOH    C110361   4.193   4.137   1.867  0.0181 -0.5865  0.0419
  183ACOH    H110362   4.294   4.113   1.833 -0.3999  0.1611 -1.7823
  183ACOH    H210363   4.204   4.212   1.945  0.9318  0.2408 -0.8597
  183ACOH    H310364   4.129   4.171   1.785 -0.1733  1.5654  1.0706
  184ACOH    H410365   9.036   5.441   0.996  1.7195  1.1005  1.1111
  184ACOH    O210366   9.003   5.522   0.953 -0.4074 -0.0038  0.5765
  184ACOH    C210367   9.086   5.605   1.016 -0.1802 -0.2309 -0.5283
  184ACOH    O110368   9.124   5.590   1.130 -0.9521  0.4240  0.8008
  184ACOH    C110369   9.115   5.721   0.926  1.0635  0.3237 -0.5455
  184ACOH    H110370   9.081   5.805   0.985 -1.5787  0.0838 -1.6403
  184ACOH    H210371   9.065   5.713   0.829 -3.1586  1.7709  1.3828
  184ACOH    H310372   9.221   5.742   0.913  2.0759 -1.8860  3.3535
  185ACOH    H410373   3.638   7.825   2.655  0.7266 -0.6936  0.2183
  185ACOH    O210374   3.676   7.841   2.567 -0.1419  0.3056  0.0204
  185ACOH    C210375   3.586   7.845   2.467  0.0729 -0.2450  0.1142
  185ACOH    O110376   3.465   7.852   2.476  0.1039  0.9731 -0.3203
  185ACOH    C110377   3.667   7.875   2.345 -0.9837 -0.7056  0.6907
  185ACOH    H110378   3.704   7.779   2.309 -1.3457 -1.5110  2.4182
  185ACOH    H210379   3.744   7.946   2.377 -1.3491 -0.2071  0.4727
  185ACOH    H310380   3.605   7.918   2.266  1.5683 -0.0199 -0.9941
  186ACOH    H410381   3.754   4.666   1.767  0.3266 -0.2492 -1.6561
  186ACOH    O210382   3.816   4.742   1.767 -0.1466  0.1528  0.0369
  186ACOH    C210383   3.914   4.703   1.686 -0.2556  0.5948 -0.5400
  186ACOH    O110384   3.913   4.597   1.620 -0.1088  0.6414  0.3674
  186ACOH    C110385   4.013   4.810   1.672 -0.2592 -0.3471  0.1240
  186ACOH    H110386   4.114   4.771   1.684  0.5059  1.0861 -1.4402
  186ACOH    H210387   3.987   4.881   1.750 -3.8342 -1.1888 -0.2138
  186ACOH    H310388   4.004   4.852   1.572  2.0395 -1.2134 -0.4777
  187ACOH    H410389   8.850   4.310   1.370  1.9830  2.8249 -1.4845
  187ACOH    O210390   8.931   4.260   1.349  0.8698  0.2109  0.1893
  187ACOH    C210391   8.886   4.146   1.295 -0.4394 -0.2963 -0.2165
  187ACOH    O110392   8.780   4.121   1.242  0.0026  0.6146  0.1392
  187ACOH    C110393   8.986   4.043   1.322 -0.1883 -0.5783 -0.1862
  187ACOH    H110394   8.953   3.990   1.412  1.2673  1.3370  1.5570
  187ACOH    H210395   9.084   4.087   1.344 -1.0673  0.0444  2.8015
  187ACOH    H310396   8.996   3.982   1.233 -1.4379 -0.5596 -0.3471
  188ACOH    H410397   2.591   7.394   1.047 -0.6641 -1.2547 -0.4374
  188ACOH    O210398   2.596   7.408   0.951 -0.2120 -0.0023 -0.2286
  188ACOH    C210399   2.494   7.347   0.895 -0.3436  0.0760  0.0340
  188ACOH    O110400   2.401   7.305   0.957  0.1624  0.1426  0.1799
  188ACOH    C110401   2.511   7.358   0.748 -0.6494  0.1365 -0.1354
  188ACOH    H110402   2.472   7.456   0.719  0.0021 -0.0123 -1.5252
  188ACOH    H210403   2.450   7.285   0.696 -0.1766 -0.8559  0.6993
  188ACOH    H310404   2.611   7.350   0.706  0.2764 -0.9846  2.1650
  189ACOH    H410405   5.005   4.426   2.346 -0.3028  1.1086  0.1452
  189ACOH    O210406   5.072   4.483   2.303 -0.0331  0.5285 -0.2143
  189ACOH    C210407   5.173   4.399   2.275  0.0092  0.5425  0.4669
  189ACOH    O110408   5.171   4.278   2.293 -0.4919 -0.6168 -0.0698
  189ACOH    C110409   5.287   4.470   2.208  0.2717  0.8088  0.1237
  189ACOH    H110410   5.263   4.573   2.184 -0.5833  0.3926 -0.8040
  189ACOH    H210411   5.321   4.423   2.116  0.1797  0.0686  0.4666
  189ACOH    H310412   5.372   4.473   2.276  0.5563  0.8642 -0.2342
  190ACOH    H410413   3.703   5.375   0.606 -0.6212 -0.1080 -0.5683
  190ACOH    O210414   3.718   5.466   0.576  0.6446 -0.0983  0.0642
  190ACOH    C210415   3.757   5.539   0.683 -0.7166  0.5534 -0.2908
  190ACOH    O110416   3.740   5.500   0.799  0.5628 -0.1123  0.0552
  190ACOH    C110417   3.807   5.671   0.644  0.5805 -0.4579  0.3138
  190ACOH    H110418   3.754   5.701   0.554 -0.8308 -0.3723  1.1695
  190ACOH    H210419   3.915   5.671   0.630  0.4619 -0.7025 -0.6657
  190ACOH    H310420   3.778   5.743   0.720  2.2942  1.1099 -0.4819
  191ACOH    H410421   4.300   1.451   0.380  1.9051  1.1117 -2.4534
  191ACOH    O210422   4.372   1.473   0.442  0.1322 -0.5065  0.3144
  191ACOH    C210423   4.470   1.381   0.426  0.1502 -0.5070  0.5014
  191ACOH    O110424   4.451   1.267   0.391  0.6316  0.0709  0.3930
  191ACOH    C110425   4.590   1.437   0.495  0.6667 -0.2912 -0.2458
  191ACOH    H110426   4.646   1.511   0.438  0.9985 -0.6560 -0.4000
  191ACOH    H210427   4.650   1.353   0.531  0.5774 -1.0519 -1.8361
  191ACOH    H310428   4.546   1.481   0.584 -0.4795 -0.9035 -0.5076
  192ACOH    H410429   3.739   5.604   2.307  0.2442 -0.4790  0.2051
  192ACOH    O210430   3.776   5.666   2.371 -0.2392  0.1647 -0.1270
  192ACOH    C210431   3.910   5.681   2.348 -0.5421  0.4821 -0.4301
  192ACOH    O110432   3.981   5.631   2.260 -0.3041 -0.5721 -0.1236
  192ACOH    C110433   3.971   5.752   2.462  0.9632  0.3730 -0.2107
  192ACOH    H110434   3.894   5.812   2.510 -1.6987 -1.0574 -2.5448
  192ACOH    H210435   4.049   5.815   2.420  0.4278  2.0557  1.2425
  192ACOH    H310436   4.019   5.686   2.535 -0.5885 -0.2990  0.2243
  193ACOH    H410437   4.521   5.360   1.821  1.3703 -0.5148 -2.5508
  193ACOH    O210438   4.597   5.411   1.853  0.3132 -0.3279 -0.2510
  193ACOH    C210439   4.590   5.537   1.800 -0.4849  0.3265 -0.2809
  193ACOH    O110440   4.490   5.593   1.761  0.4596  0.4494 -0.0907
  193ACOH    C110441   4.717   5.614   1.832 -0.1355 -0.3625  0.5083
  193ACOH    H110442   4.794   5.549   1.791 -0.3207 -0.7854  0.8214
  193ACOH    H210443   4.734   5.618   1.940  1.3521  2.2369  0.2230
  193ACOH    H310444   4.726   5.709   1.780  1.0686 -1.6591 -1.7242
  194ACOH    H410445   1.217   6.370   2.737 -1.1908  0.4687 -2.0711
  194ACOH    O210446   1.180   6.458   2.758  0.0892  0.6470 -0.4016
  194ACOH    C210447   1.122   6.452   2.882 -0.0799  0.6435 -0.0155
  194ACOH    O110448   1.156   6.366   2.964  0.5043 -0.4582 -0.4884
  194ACOH    C110449   1.072   6.588   2.916 -0.0717  0.6440  0.7396
  194ACOH    H110450   1.050   6.658   2.835  1.0626  0.8107  0.5619
  194ACOH    H210451   1.146   6.629   2.985 -0.5289 -1.1697  2.3361
  194ACOH    H310452   0.981   6.575   2.975  0.3878  0.4836  1.4178
  195ACOH    H410453   4.571   0.478   2.405 -1.7404  0.6258  0.1983
  195ACOH    O210454   4.552   0.459   2.498 -0.1307  0.0828  0.4269
  195ACOH    C210455   4.596   0.562   2.567 -0.2845 -0.8963 -0.2598
  195ACOH    O110456   4.633   0.671   2.529  0.1846  0.2360  0.6832
  195ACOH    C110457   4.600   0.527   2.715 -0.1189  0.2673  0.1965
  195ACOH    H110458   4.597   0.418   2.726 -0.5617  0.0775 -1.5738
  195ACOH    H210459   4.516   0.576   2.762  0.1307  0.4259  0.4744
  195ACOH    H310460   4.694   0.562   2.758 -0.7270  0.5994  1.2570
  196ACOH    H410461   2.611   1.911   1.498  1.0080  1.4181  2.0677
  196ACOH    O210462   2.554   1.988   1.479 -0.4165 -0.0738  0.1445
  196ACOH    C210463   2.529   2.044   1.599  0.1084  0.3986  0.6818
  196ACOH    O110464   2.541   1.987   1.706  0.0135  0.1026 -0.3184
  196ACOH    C110465   2.480   2.184   1.585  0.2825  0.0981 -0.4428
  196ACOH    H110466   2.565   2.229   1.534 -1.2631  2.8485 -0.6771
  196ACOH    H210467   2.443   2.226   1.679  0.0964  1.3345 -1.0506
  196ACOH    H310468   2.391   2.194   1.522 -0.3260  3.5500  0.8360
  197ACOH    H410469   4.162   8.013   0.546  0.4869 -0.5709 -0.2101
  197ACOH    O210470   4.130   7.923   0.530 -0.5927 -0.3799  0.8221
  197ACOH    C210471   4.082   7.868   0.638 -0.2623  0.4516 -0.5103
  197ACOH    O110472   4.087   7.931   0.747 -0.1638 -0.0540 -0.5788
  197ACOH    C110473   4.040   7.724   0.633  0.3536  1.0268  0.3404
  197ACOH    H110474   4.109   7.666   0.695 -1.5286 -2.0913 -0.3402
  197ACOH    H210475   4.057   7.682   0.534  0.6002 -0.5144  1.0222
  197ACOH    H310476   3.935   7.717   0.661 -0.0416  1.4609 -1.0037
  198ACOH    H410477   5.197   4.043   2.767  1.6861  0.3246  0.4565
  198ACOH    O210478   5.202   3.991   2.686  0.3687  0.8945 -0.0114
  198ACOH    C210479   5.126   4.053   2.588 -0.0063  0.4723  1.5359
  198ACOH    O110480   5.058   4.154   2.596 -0.2565 -0.6990 -0.5508
  198ACOH    C110481   5.133   3.968   2.468 -0.1179 -0.3553  1.6995
  198ACOH    H110482   5.039   3.914   2.461 -0.4746  0.6379 -1.7519
  198ACOH    H210483   5.208   3.889   2.480  1.2311  0.4419 -1.0059
  198ACOH    H310484   5.141   4.023   2.375  0.8009 -0.3462  1.7731
  199ACOH    H410485   4.869   2.540   1.915  0.8536 -1.2317 -0.9193
  199ACOH    O210486   4.886   2.597   1.838  0.0937 -0.2581 -0.3865
  199ACOH    C210487   4.763   2.634   1.791  0.1350  0.1894  0.1599
  199ACOH    O110488   4.656   2.625   1.845 -0.5973 -0.0652 -0.3700
  199ACOH    C110489   4.773   2.714   1.669  0.6819 -0.1565 -0.7423
  199ACOH    H110490   4.815   2.812   1.694 -3.3739  1.4142  0.2933
  199ACOH    H210491   4.678   2.728   1.616 -0.3800 -3.4451  0.1897
  199ACOH    H310492   4.846   2.669   1.602 -0.1947 -1.8549 -0.5788
  200ACOH    H410493   3.315   6.667   0.078  1.1861  0.5843  0.4815
  200ACOH    O210494   3.383   6.599   0.062  0.2491 -0.1873 -0.2706
  200ACOH    C210495   3.408   6.546   0.186 -1.0218 -0.5597 -0.3339
  200ACOH    O110496   3.322   6.522   0.268 -0.5484 -0.5714  0.0761
  200ACOH    C110497   3.547   6.486   0.187  0.2057 -0.7757  0.1111
  200ACOH    H110498   3.555   6.427   0.095  1.1636  0.1750 -0.4263
  200ACOH    H210499   3.557   6.426   0.277 -1.3653 -1.7405 -0.3298
  200ACOH    H310500   3.622   6.565   0.190 -1.2505  0.5990  1.4078
  201ACOH    H410501   4.762   4.908   0.337  0.1736 -1.0385 -0.2419
  201ACOH    O210502   4.722   4.993   0.314 -0.1705 -1.1729 -0.1388
  201ACOH    C210503   4.681   5.001   0.188  0.1309 -0.0331  0.0291
  201ACOH    O110504   4.591   5.076   0.158 -0.3056  0.0597  0.6641
  201ACOH    C110505   4.704   4.880   0.093 -0.3934  0.2453 -0.3741
  201ACOH    H110506   4.630   4.806   0.125  0.2266 -0.2955 -0.2041
  201ACOH    H210507   4.804   4.838   0.100 -0.6419 -0.5328 -1.4660
  201ACOH    H310508   4.674   4.904  -0.009  2.9663 -0.3000 -1.5262
  202ACOH    H410509   5.150   1.308   0.658 -2.7075  0.0908 -1.6800
  202ACOH    O210510   5.205   1.319   0.579 -0.0459 -0.0383  0.1060
  202ACOH    C210511   5.313   1.397   0.602  0.0238 -0.5583 -0.0586
  202ACOH    O110512   5.337   1.457   0.707  0.8640  0.0937 -0.0143
  202ACOH    C110513   5.407   1.382   0.485  0.4831  0.2029 -0.3055
  202ACOH    H110514   5.509   1.403   0.516  0.6033 -0.1425 -0.4597
  202ACOH    H210515   5.378   1.457   0.412 -0.5475 -1.8307 -2.0401
  202ACOH    H310516   5.397   1.285   0.435  0.4531 -1.0662  2.0690
  203ACOH    H410517   4.302   9.473   0.748  0.4953  0.1705  0.5810
  203ACOH    O210518   4.210   9.504   0.761  0.3162 -0.1441  0.0886
  203ACOH    C210519   4.211   9.638   0.772 -0.3293  0.2597 -0.0307
  203ACOH    O110520   4.105   9.706   0.778  0.3703  0.0321  0.4725
  203ACOH    C110521   4.341   9.705   0.749 -0.1851 -0.3767 -0.3228
  203ACOH    H110522   4.386   9.741   0.841  0.8376 -0.6367 -0.7154
  203ACOH    H210523   4.327   9.792   0.684  0.3540 -2.2736 -3.0872
  203ACOH    H310524   4.409   9.639   0.696 -1.6132  1.5422 -4.7776
  204SOL     OW10525   1.110   5.499   2.602 -0.0713 -0.1194  0.1853
  204SOL    HW110526   1.154   5.418   2.641 -0.5621 -0.2593  0.4585
  204SOL    HW210527   1.030   5.523   2.657 -1.5145 -1.0625 -1.4408
  205SOL     OW10528   3.101   2.045   2.307 -0.2634 -0.0761  0.4146
  205SOL    HW110529   3.122   1.961   2.355 -1.0247 -1.8887 -2.2901
  205SOL    HW210530   3.112   2.031   2.208 -3.7909  1.9395 -0.3562
  206SOL     OW10531   3.630   1.893   0.900 -0.1463 -0.5904  0.1478
  206SOL    HW110532   3.656   1.983   0.934 -1.1632 -0.6847  1.2246
  206SOL    HW210533   3.705   1.829   0.913  0.2563 -0.1046  0.2131
  207SOL     OW10534   4.686   2.638   2.692 -0.1480 -0.0776  0.6521
  207SOL    HW110535   4.595   2.628   2.733 -0.9633  0.0608 -1.0719
  207SOL    HW210536   4.729   2.548   2.683 -0.1147 -0.1452  1.4538
  208SOL     OW10537   3.781   2.286   2.691  0.1377 -0.1422  0.1106
  208SOL    HW110538   3.747   2.230   2.767  2.2840 -2.1338 -0.3503
  208SOL    HW210539   3.833   2.228   2.628 -1.2217  1.5465 -2.6770
  209SOL     OW10540   3.184   8.126   1.410 -0.0948  0.1874  0.0995
  209SOL    HW110541   3.183   8.095   1.505  0.1378  1.1375  0.4229
  209SOL    HW210542   3.267   8.181   1.395  0.0617 -0.2861 -0.7533
  210SOL     OW10543   3.453   5.137   2.063  0.1534 -0.1425 -0.7186
  210SOL    HW110544   3.402   5.051   2.065 -0.0681 -0.0018 -0.2627
  210SOL    HW210545   3.403   5.203   2.007 -0.2893  0.0727 -0.0725
  211SOL     OW10546   2.953   3.595   1.128  0.3133  0.0490  0.2072
  211SOL    HW110547   2.981   3.621   1.035  0.5535  0.3513  0.3623
  211SOL    HW210548   2.863   3.553   1.125  1.4262 -2.3544 -0.4897
  212SOL     OW10549   3.431   1.254   0.768 -0.0507 -0.2129  0.1182
  212SOL    HW110550   3.447   1.335   0.711  3.0871 -0.3486  0.7270
  212SOL    HW210551   3.399   1.284   0.858 -2.1934  0.1409 -0.7262
  213SOL     OW10552   2.624   1.911   2.262  0.1768 -0.0321 -0.1435
  213SOL    HW110553   2.622   1.934   2.165  1.5951  0.5318 -0.0541
  213SOL    HW210554   2.716   1.881   2.287  0.1287  0.9891  1.2919
  214SOL     OW10555   2.534   3.150   0.817  0.7304  0.4745  0.2350
  214SOL    HW110556   2.514   3.073   0.756  0.4352  0.2625  0.5946
  214SOL    HW210557   2.464   3.220   0.806  1.8306  1.3664 -1.1979
  215SOL     OW10558   4.501   1.759   0.445  0.2236 -0.3267  0.0188
  215SOL    HW110559   4.484   1.661   0.451  0.6161 -0.2803  2.2391
  215SOL    HW210560   4.418   1.809   0.469  0.3938 -0.1058  0.1506
  216SOL     OW10561   2.727   4.352   1.210  0.1656 -0.0730  0.2579
  216SOL    HW110562   2.634   4.318   1.216 -0.2883  1.3383  1.5952
  216SOL    HW210563   2.777   4.328   1.294  0.3211  1.1076  0.5168
  217SOL     OW10564   9.728   4.345   0.461 -0.1870  0.1687  0.2161
  217SOL    HW110565   9.776   4.261   0.486  0.3174  0.5064  0.3866
  217SOL    HW210566   9.673   4.376   0.538 -0.1315  0.1665  0.2563
  218SOL     OW10567   3.382   2.110   2.391 -0.0813  0.0585 -0.2667
  218SOL    HW110568   3.323   2.032   2.371 -1.8981  0.9354  1.4995
  218SOL    HW210569   3.338   2.168   2.460  2.3285  1.3687  0.2021
  219SOL     OW10570   3.035   5.043   2.203 -0.3117  0.0217 -0.3188
  219SOL    HW110571   3.117   5.016   2.255  0.7825  2.1882 -0.8416
  219SOL    HW210572   3.025   4.983   2.124 -0.3642 -1.4922  0.7930
  220SOL     OW10573   2.208   6.605   0.298 -0.3303  0.0700 -0.5171
  220SOL    HW110574   2.269   6.557   0.361 -0.4965  1.5852  0.8236
  220SOL    HW210575   2.169   6.539   0.233  1.5928 -1.1387 -0.4822
  221SOL     OW10576   4.059   2.494   1.604 -0.0874  0.5925 -0.1252
  221SOL    HW110577   4.138   2.532   1.653  2.1862 -3.1336 -0.6766
  221SOL    HW210578   3.981   2.489   1.666  0.8461  1.9598  1.2051
  222SOL     OW10579   2.685   3.586   2.374 -0.2927 -0.3069  0.1720
  222SOL    HW110580   2.626   3.513   2.340 -0.6533  0.6293 -1.2829
  222SOL    HW210581   2.640   3.633   2.450 -0.8116 -0.5003 -0.0135
  223SOL     OW10582   2.922   6.443   0.681 -0.3967  0.4291 -0.3082
  223SOL    HW110583   2.963   6.435   0.772 -0.3255  2.2103 -0.1740
  223SOL    HW210584   2.846   6.508   0.683 -1.3022 -0.5682 -1.2272
  224SOL     OW10585   1.879   3.604   1.434  0.1344  0.0643  0.1551
  224SOL    HW110586   1.796   3.617   1.490  0.4164 -1.7830  1.0193
  224SOL    HW210587   1.955   3.653   1.477 -0.5374  1.9992 -0.7865
  225SOL     OW10588   2.484   5.553   1.062  0.1589  0.1663 -0.3286
  225SOL    HW110589   2.552   5.492   1.021 -0.3195  0.5117 -1.6484
  225SOL    HW210590   2.394   5.510   1.056 -0.0550  0.6398 -0.4871
  226SOL     OW10591   4.288   1.860   2.636  0.1804 -0.0287 -0.2098
  226SOL    HW110592   4.326   1.945   2.672  0.9944 -0.3986 -0.1768
  226SOL    HW210593   4.353   1.820   2.571 -1.3199  0.7034 -2.2167
  227SOL     OW10594   4.134   2.623   2.804 -0.3555  0.2941 -0.1181
  227SOL    HW110595   4.058   2.564   2.778  0.0673 -0.3915  0.1753
  227SOL    HW210596   4.114   2.665   2.893  0.4887 -1.4966  0.9455
  228SOL     OW10597   2.838   1.844   2.779  0.4939 -0.1760  0.1616
  228SOL    HW110598   2.851   1.813   2.873  0.7747 -0.2493  0.1002
  228SOL    HW210599   2.909   1.804   2.721 -0.0197 -0.5786 -0.1844
  229SOL     OW10600   3.107   3.861   2.244 -0.0509  0.3949 -0.1378
  229SOL    HW110601   3.109   3.789   2.314  0.0007  0.1351 -0.4077
  229SOL    HW210602   3.012   3.892   2.232  0.2552  2.3218  1.9651
  230SOL     OW10603   9.764   4.528   0.997  0.0185 -0.2544  0.3510
  230SOL    HW110604   9.712   4.574   1.069  0.3044 -1.7813  1.5605
  230SOL    HW210605   9.706   4.460   0.952 -0.1208  0.6148 -0.7845
  231SOL     OW10606   1.002   5.618   2.381  0.0832 -0.2046  0.3616
  231SOL    HW110607   0.903   5.629   2.394 -0.3766 -3.6927  0.2332
  231SOL    HW210608   1.039   5.563   2.456  1.3411 -1.6728 -1.3078
  232SOL     OW10609   2.857   1.772   2.273 -0.3886  0.1936 -0.0647
  232SOL    HW110610   2.884   1.764   2.177  3.5883 -0.6187  1.0465
  232SOL    HW210611   2.878   1.687   2.321  0.3232  1.5653  2.1147
  233SOL     OW10612   2.997   9.349   1.952 -0.2932 -0.1169 -0.0403
  233SOL    HW110613   3.019   9.407   1.874 -1.2828  1.0319  0.5256
  233SOL    HW210614   3.019   9.254   1.930 -0.1428  0.2577 -1.5424
  234SOL     OW10615   3.879   1.584   2.266 -0.1486  0.2859 -0.3132
  234SOL    HW110616   3.795   1.532   2.249 -0.1793 -0.0295  0.7565
  234SOL    HW210617   3.855   1.673   2.307  0.0534  0.0332  0.3644
  235SOL     OW10618   2.862   5.750   0.848  0.4945  0.0125  0.3082
  235SOL    HW110619   2.922   5.781   0.774 -0.2072  0.0078 -0.2737
  235SOL    HW210620   2.915   5.696   0.913  1.2000  0.3320  0.0030
  236SOL     OW10621   1.977   1.857   0.186 -0.2646 -0.3341  0.1721
  236SOL    HW110622   2.021   1.853   0.097 -2.7718 -0.1896 -1.1267
  236SOL    HW210623   2.015   1.787   0.246  1.3659 -0.4999 -1.0285
  237SOL     OW10624   4.037   9.223   2.136 -0.7356  0.4663  0.4438
  237SOL    HW110625   3.980   9.201   2.216 -0.4063  1.6463  1.0207
  237SOL    HW210626   3.980   9.225   2.054 -1.2146 -0.0433  0.7636
  238SOL     OW10627   2.577   0.650   2.436  0.4658  0.1432  0.3124
  238SOL    HW110628   2.571   0.634   2.337 -1.3611 -0.9898  0.5742
  238SOL    HW210629   2.577   0.562   2.484  0.6821  0.7048  1.3587
  239SOL     OW10630   9.951   4.402   1.195 -0.0077 -0.1440 -0.5699
  239SOL    HW110631   9.860   4.393   1.234 -0.7979 -0.1949 -2.3955
  239SOL    HW210632   9.951   4.476   1.127  1.5665  0.5587  0.1653
  240SOL     OW10633   2.663   3.357   0.398  0.1805 -0.2168 -0.5658
  240SOL    HW110634   2.695   3.264   0.379  2.7371  0.4699  0.0891
  240SOL    HW210635   2.649   3.367   0.497  0.9178  0.3564 -0.5089
  241SOL     OW10636   2.604   6.252   2.304  0.4117  0.4373 -0.5393
  241SOL    HW110637   2.699   6.262   2.276  1.4274 -0.7200  2.4188
  241SOL    HW210638   2.585   6.311   2.383 -0.7161 -1.0260  0.3098
  242SOL     OW10639   0.530   4.700   1.214  0.1487  0.3125 -0.0291
  242SOL    HW110640   0.598   4.631   1.238  0.5092  1.1703  1.4527
  242SOL    HW210641   0.479   4.727   1.296 -0.6073  1.1561 -0.7574
  243SOL     OW10642   4.521   2.273   1.752  0.0000  0.2003 -0.1101
  243SOL    HW110643   4.523   2.371   1.771 -0.4299  0.3645 -0.9124
  243SOL    HW210644   4.456   2.254   1.678 -0.8773 -0.8346  0.9035
  244SOL     OW10645   3.294   3.968   2.076 -0.7104 -0.4230  0.1315
  244SOL    HW110646   3.231   3.950   2.153 -2.3610  1.1026 -0.8240
  244SOL    HW210647   3.246   3.953   1.990  0.3371  0.4223 -0.6100
  245SOL     OW10648   4.824   1.784   1.094 -0.6559  0.1841  0.1957
  245SOL    HW110649   4.836   1.723   1.016  1.2999 -0.3473  0.8731
  245SOL    HW210650   4.891   1.858   1.090 -2.0171  1.4483  0.1877
  246SOL     OW10651   4.192   5.196   0.151 -0.4033 -0.1446  0.0692
  246SOL    HW110652   4.176   5.235   0.060  0.8756  0.3828  0.0616
  246SOL    HW210653   4.201   5.270   0.218 -1.0538 -0.5239  0.5897
  247SOL     OW10654   3.328   3.559   1.301  0.3926  0.2381 -0.1434
  247SOL    HW110655   3.293   3.466   1.310 -1.7707  0.7980 -2.1936
  247SOL    HW210656   3.303   3.613   1.381 -0.1797 -0.3801  0.0926
  248SOL     OW10657   2.996   7.675   0.901  0.3792 -0.0893 -0.2998
  248SOL    HW110658   2.956   7.584   0.915 -0.0887 -0.1581 -1.9749
  248SOL    HW210659   3.070   7.689   0.967  0.5962 -1.7727 -0.1572
  249SOL     OW10660   1.109   5.604   0.500 -0.3995  0.0541  0.1901
  249SOL    HW110661   1.093   5.590   0.402  2.8074  1.6661 -0.6306
  249SOL    HW210662   1.127   5.701   0.517  0.7814 -0.4820  2.1056
  250SOL     OW10663   3.493   3.030   1.526  0.0397  0.1914  0.1902
  250SOL    HW110664   3.431   3.098   1.488  1.0150  1.3899  0.7204
  250SOL    HW210665   3.442   2.970   1.588 -0.7113  0.7740  0.1384
  251SOL     OW10666   3.495   0.687   1.784 -0.4543  0.0959 -1.0871
  251SOL    HW110667   3.466   0.645   1.698 -0.4265 -0.5505 -0.7809
  251SOL    HW210668   3.543   0.619   1.840  0.4316  0.7816 -0.9969
  252SOL     OW10669   2.916   5.396   0.569  0.2351  0.2213 -0.6109
  252SOL    HW110670   2.854   5.318   0.574  1.6422 -0.8799 -0.0293
  252SOL    HW210671   3.003   5.367   0.529  0.7574  1.5054 -0.4315
  253SOL     OW10672   1.361   4.482   0.049 -0.5766 -0.5389 -0.2415
  253SOL    HW110673   1.378   4.437   0.136 -0.4821 -0.0826 -0.0223
  253SOL    HW210674   1.408   4.571   0.047  0.6951 -1.2086 -1.3462
  254SOL     OW10675   3.896   1.399   2.636 -0.1563 -0.0280 -0.5607
  254SOL    HW110676   3.942   1.403   2.547  2.0055 -0.5192  0.4975
  254SOL    HW210677   3.964   1.402   2.709 -1.9557  1.3550  1.1199
  255SOL     OW10678   3.425   9.614   1.912  0.2626  0.8972  0.0008
  255SOL    HW110679   3.368   9.542   1.950 -0.1857  0.5999 -1.2168
  255SOL    HW210680   3.396   9.634   1.818  2.2232  0.6503 -0.6852
  256SOL     OW10681   4.140   2.810   1.391  0.6247  0.0099  0.2984
  256SOL    HW110682   4.135   2.710   1.392  0.5655  0.0037 -0.4982
  256SOL    HW210683   4.230   2.840   1.423  1.4252 -0.3665 -1.5473
  257SOL     OW10684   4.945   2.135   2.449 -0.4502 -0.2386 -0.3174
  257SOL    HW110685   5.025   2.082   2.476 -0.4876 -0.9020 -1.4564
  257SOL    HW210686   4.924   2.203   2.519 -0.0948 -1.3957  0.9421
  258SOL     OW10687   2.849   8.140   2.144  0.8885 -0.2019 -0.1594
  258SOL    HW110688   2.914   8.176   2.078  1.6365 -0.7351  0.2812
  258SOL    HW210689   2.839   8.205   2.220  1.0168 -0.1917 -0.1518
  259SOL     OW10690   2.716   5.441   1.278  0.0193  0.3854  0.0272
  259SOL    HW110691   2.669   5.470   1.194  1.5944  3.1858  0.0653
  259SOL    HW210692   2.771   5.516   1.313  2.1611 -1.8885  1.6785
  260SOL     OW10693   2.855   3.966   2.229 -0.5098  0.0192  0.0444
  260SOL    HW110694   2.806   4.044   2.270  1.8149  0.7490  1.5321
  260SOL    HW210695   2.796   3.922   2.162 -2.6460  1.7996  0.6722
  261SOL     OW10696   5.319   4.268   0.443 -0.7137 -0.5592 -0.1919
  261SOL    HW110697   5.311   4.289   0.540 -1.5765 -1.4558 -0.0667
  261SOL    HW210698   5.408   4.225   0.425  0.4595  1.7853 -0.2153
  262SOL     OW10699   3.056   6.840   0.964 -0.1486  0.5289  0.4904
  262SOL    HW110700   2.986   6.772   0.986  0.6023 -0.6285 -0.6731
  262SOL    HW210701   3.139   6.820   1.016 -0.1064  0.8997  0.5686
  263SOL     OW10702   3.222   1.724   1.798  0.0011 -0.2835  0.1514
  263SOL    HW110703   3.194   1.784   1.723 -1.7900  0.1411  1.1427
  263SOL    HW210704   3.248   1.635   1.760  2.3447  0.9784 -1.2843
  264SOL     OW10705   4.453   7.923   0.496  0.6579 -0.0212 -0.5910
  264SOL    HW110706   4.388   7.906   0.421  0.8933 -0.9090 -0.6028
  264SOL    HW210707   4.530   7.859   0.488  1.8367  1.4140 -0.9203
  265SOL     OW10708   1.018   6.057   0.172  0.3178  0.5225 -0.0614
  265SOL    HW110709   1.110   6.088   0.196  1.3469 -0.7615 -2.1881
  265SOL    HW210710   0.990   6.098   0.085 -0.3176 -0.6179 -0.4085
  266SOL     OW10711   3.495   4.740   1.284  0.0390 -0.4674 -0.8034
  266SOL    HW110712   3.534   4.742   1.192 -0.7255 -1.3611 -1.1509
  266SOL    HW210713   3.444   4.825   1.301  2.1846  0.7661 -0.3028
  267SOL     OW10714   3.780   0.634   0.665 -0.1089 -0.3609  0.0047
  267SOL    HW110715   3.864   0.667   0.621 -0.2359 -0.6912 -0.4841
  267SOL    HW210716   3.769   0.537   0.646 -0.7891 -0.2403 -0.2275
  268SOL     OW10717   4.352   9.125   1.686  0.4942 -0.1136  0.7261
  268SOL    HW110718   4.441   9.105   1.726  0.7710  0.7880  0.5758
  268SOL    HW210719   4.280   9.086   1.743  0.9852 -0.9297  0.7946
  269SOL     OW10720   4.614   4.012   2.397 -0.4991  0.3362 -0.1576
  269SOL    HW110721   4.568   3.927   2.370 -0.8426  0.6623 -0.6014
  269SOL    HW210722   4.710   3.993   2.417 -0.9123 -0.4292  1.1872
  270SOL     OW10723   0.802   3.703   2.550  0.0895 -0.1352 -0.2406
  270SOL    HW110724   0.796   3.706   2.650  1.6255  0.1345 -0.1401
  270SOL    HW210725   0.775   3.612   2.518 -0.2388 -0.2775  0.4351
  271SOL     OW10726   2.401   7.945   1.157  0.5475 -0.0273 -0.5383
  271SOL    HW110727   2.422   8.036   1.193  0.3477  0.0308 -0.5660
  271SOL    HW210728   2.482   7.887   1.164  1.3092  0.7645 -2.5029
  272SOL     OW10729   3.394   7.701   0.110  0.5508 -0.0866  0.4124
  272SOL    HW110730   3.305   7.722   0.069  1.4553  3.9708  0.3507
  272SOL    HW210731   3.380   7.652   0.197 -1.7466  0.7902  0.5647
  273SOL     OW10732   3.650   1.458   2.465 -0.4572 -0.3132  0.4542
  273SOL    HW110733   3.627   1.365   2.437 -2.0550 -0.2419  1.4246
  273SOL    HW210734   3.727   1.456   2.528  0.5765 -0.8161 -0.7922
  274SOL     OW10735   9.159   5.505   2.413 -0.1781 -0.1400  0.1537
  274SOL    HW110736   9.166   5.507   2.513 -0.2804  1.6053  0.1433
  274SOL    HW210737   9.095   5.576   2.383  0.4953 -0.0877 -1.1989
  275SOL     OW10738   2.154   3.529   0.304 -0.0137 -0.0892 -0.2352
  275SOL    HW110739   2.226   3.480   0.353  0.9721  1.2503 -0.3119
  275SOL    HW210740   2.132   3.614   0.353 -1.7720 -0.6195 -0.0490
  276SOL     OW10741   3.185   3.706   2.486 -0.3879  0.2965  0.3306
  276SOL    HW110742   3.245   3.758   2.547  1.8571 -2.0053  0.1367
  276SOL    HW210743   3.099   3.686   2.534  0.2005  0.9809  1.7065
  277SOL     OW10744   3.604   3.889   0.115  0.4542 -0.1151 -0.0370
  277SOL    HW110745   3.631   3.838   0.197 -2.7981  2.4819  2.8176
  277SOL    HW210746   3.685   3.928   0.072  2.0750  0.7830  3.5918
  278SOL     OW10747   3.614   0.088   1.204 -0.0935 -0.1357 -1.1593
  278SOL    HW110748   3.552   0.107   1.280 -0.0623 -0.6219 -1.0125
  278SOL    HW210749   3.667   0.171   1.183  0.3890 -0.1959 -0.2036
  279SOL     OW10750   1.941   4.279   0.262 -0.2120 -0.3121 -0.2801
  279SOL    HW110751   1.899   4.342   0.197 -1.0001 -0.0426  0.4714
  279SOL    HW210752   1.936   4.186   0.227 -0.1420 -0.1014 -0.8461
  280SOL     OW10753   2.858   9.981   2.603 -0.0757 -0.5004  0.0344
  280SOL    HW110754   2.887   9.923   2.680 -0.0402 -0.2829  0.1858
  280SOL    HW210755   2.867   9.930   2.518  0.1486 -0.6489  0.1454
  281SOL     OW10756   0.816   5.591   0.297  0.2671  0.0066  0.1164
  281SOL    HW110757   0.874   5.672   0.305  0.5630 -0.1554 -0.3562
  281SOL    HW210758   0.739   5.598   0.361  1.2661 -0.1653  1.3719
  282SOL     OW10759   3.101   1.543   0.044 -0.5378 -0.0716  1.0742
  282SOL    HW110760   3.156   1.623   0.019  0.3386 -0.3106  2.1820
  282SOL    HW210761   3.150   1.460   0.017 -1.5843 -0.2447 -0.3497
  283SOL     OW10762   1.969   5.983   2.315 -0.1198  0.0143  0.2643
  283SOL    HW110763   1.936   5.928   2.238 -0.5540 -0.1020  0.5309
  283SOL    HW210764   2.058   6.023   2.292 -0.3137  0.0973 -0.3523
  284SOL     OW10765   4.200   9.632   1.230  0.1218  0.1012 -0.3758
  284SOL    HW110766   4.265   9.577   1.177 -0.3244 -0.5380 -0.2711
  284SOL    HW210767   4.188   9.721   1.186  0.2257 -0.1940 -1.0060
  285SOL     OW10768   4.673   2.043   1.848  0.2859 -0.3341 -0.0455
  285SOL    HW110769   4.679   1.974   1.776  0.6722 -1.3010  0.8919
  285SOL    HW210770   4.604   2.111   1.825 -0.9882 -1.7333 -0.4055
  286SOL     OW10771   0.998   4.849   2.309 -0.1740  0.3341  0.2661
  286SOL    HW110772   1.002   4.852   2.409 -0.0051 -0.1768  0.2745
  286SOL    HW210773   1.083   4.810   2.273 -0.6742 -0.5092 -0.0281
  287SOL     OW10774   2.823   2.194   0.495  0.2231  0.4450  0.4386
  287SOL    HW110775   2.762   2.265   0.460 -0.4604 -0.5289 -0.3718
  287SOL    HW210776   2.783   2.104   0.478  0.9449 -0.1357  1.7045
  288SOL     OW10777   3.475   0.694   0.493  0.0079  0.4222 -0.8322
  288SOL    HW110778   3.570   0.721   0.512  0.0668 -0.8628  0.7975
  288SOL    HW210779   3.473   0.611   0.438 -0.1937  1.6122 -2.6794
  289SOL     OW10780   1.943   3.868   0.418  0.1559 -0.3756 -0.1050
  289SOL    HW110781   1.962   3.819   0.503 -2.0424 -0.0787  0.5798
  289SOL    HW210782   1.914   3.961   0.439 -1.0833 -0.5198 -1.1543
  290SOL     OW10783   2.969   9.432   2.510  0.3521  0.0554  0.0228
  290SOL    HW110784   2.974   9.393   2.418  0.4066  0.8866 -0.3235
  290SOL    HW210785   2.880   9.408   2.551 -0.0542  0.4802 -0.5994
  291SOL     OW10786   3.893   0.415   0.412 -0.5667  0.6447 -0.5016
  291SOL    HW110787   3.839   0.400   0.495  0.0432 -1.3383 -0.4416
  291SOL    HW210788   3.849   0.368   0.335  2.3196 -3.1363  0.0352
  292SOL     OW10789   3.211   6.886   1.449  0.4938 -0.0763  0.5924
  292SOL    HW110790   3.242   6.956   1.513 -0.6287  1.7368 -0.8072
  292SOL    HW210791   3.125   6.847   1.481  1.3159 -1.1058  1.5719
  293SOL     OW10792   5.232   2.634   0.670 -0.4362 -0.1883 -0.0939
  293SOL    HW110793   5.201   2.664   0.760  1.1722 -0.6662  0.6532
  293SOL    HW210794   5.195   2.544   0.650  0.3235 -0.6894  0.7208
  294SOL     OW10795   1.012   4.224   0.655 -0.0760  0.6828 -0.0957
  294SOL    HW110796   0.962   4.140   0.638 -1.2075  1.4560 -0.6478
  294SOL    HW210797   1.072   4.212   0.734  0.3107 -0.8525 -0.6097
  295SOL     OW10798   3.356   6.548   2.239  0.0875  0.3370  0.1549
  295SOL    HW110799   3.268   6.594   2.249  0.3748  0.7008  1.0022
  295SOL    HW210800   3.341   6.449   2.237 -0.4298  0.4242 -0.6820
  296SOL     OW10801   3.924   3.648   2.126  0.5590 -0.4414 -0.1998
  296SOL    HW110802   3.837   3.661   2.077  0.6677  1.1597 -0.0150
  296SOL    HW210803   3.923   3.562   2.175 -1.4705  0.1987  0.9059
  297SOL     OW10804   2.388   7.873   0.871  0.0648  0.0490 -0.4417
  297SOL    HW110805   2.390   7.878   0.971  1.8389  1.2386 -0.5169
  297SOL    HW210806   2.314   7.932   0.837  1.1302  1.7366  0.0769
  298SOL     OW10807   2.635   7.730   0.744 -0.0252 -0.1001 -0.0741
  298SOL    HW110808   2.624   7.670   0.665 -1.7327  1.4903 -1.0603
  298SOL    HW210809   2.545   7.749   0.784  0.5353  1.5865  0.3898
  299SOL     OW10810   2.559   7.695   1.196 -0.8440 -0.2814  0.1971
  299SOL    HW110811   2.581   7.732   1.287  2.5158 -1.4858 -0.0182
  299SOL    HW210812   2.548   7.596   1.204 -0.5882 -0.3791 -0.6772
  300SOL     OW10813   2.930   2.815   1.010 -0.6334  0.1956  0.7037
  300SOL    HW110814   2.881   2.875   0.947 -1.8228 -0.5286  0.9323
  300SOL    HW210815   2.881   2.812   1.098  1.0674  1.3078  1.7204
  301SOL     OW10816   2.010   3.946   2.614  0.3559 -0.4185  0.1294
  301SOL    HW110817   1.963   4.007   2.678 -1.3246  1.4347 -2.7681
  301SOL    HW210818   1.951   3.868   2.593  0.4208 -0.4049 -0.0979
  302SOL     OW10819   4.280   3.945   0.573  0.7018  0.0946 -0.1266
  302SOL    HW110820   4.340   4.004   0.519 -0.6367  2.8674  1.3112
  302SOL    HW210821   4.246   3.996   0.653 -1.5858 -2.2045  0.4310
  303SOL     OW10822   4.361   2.583   1.696  0.0320 -0.2930  0.2802
  303SOL    HW110823   4.440   2.624   1.744  1.0119  1.0559 -2.3663
  303SOL    HW210824   4.390   2.553   1.605 -2.4810  0.0677 -0.6636
  304SOL     OW10825   0.152   5.825   2.790  0.7410  0.2249 -0.0831
  304SOL    HW110826   0.130   5.783   2.878  0.4591 -0.5107 -0.4935
  304SOL    HW210827   0.070   5.870   2.753  0.6286 -0.2010 -0.3608
  305SOL     OW10828   3.047   5.832   2.259 -0.3779  0.2825  0.1821
  305SOL    HW110829   2.985   5.906   2.285  0.6033  1.2954 -0.3535
  305SOL    HW210830   3.109   5.863   2.188  0.2817 -0.9536  0.1990
  306SOL     OW10831   5.206   3.613   0.449 -0.4298  0.1726  0.2453
  306SOL    HW110832   5.289   3.661   0.421 -1.6968  4.0163  2.7039
  306SOL    HW210833   5.142   3.679   0.488 -2.3148 -3.5783  3.7400
  307SOL     OW10834   3.721   9.626   1.442 -0.1852  0.3594  0.2486
  307SOL    HW110835   3.782   9.566   1.494 -0.2305 -0.8385 -1.0461
  307SOL    HW210836   3.759   9.643   1.352 -0.5959  1.6046  0.3038
  308SOL     OW10837   3.431   5.713   1.905  0.1806 -0.5671 -0.2166
  308SOL    HW110838   3.410   5.624   1.863 -1.8934  0.0110 -0.4468
  308SOL    HW210839   3.413   5.786   1.840  0.5442  0.1013  0.4300
  309SOL     OW10840   3.795   4.063   2.811  0.0013 -0.4601 -0.9702
  309SOL    HW110841   3.771   4.118   2.891  2.1224 -0.6645 -0.1514
  309SOL    HW210842   3.769   4.111   2.728 -0.9891  0.3727 -0.1890
  310SOL     OW10843   8.928   4.645   1.359  0.1155  0.0838 -0.6864
  310SOL    HW110844   9.024   4.667   1.376  0.2821 -0.2933 -1.1231
  310SOL    HW210845   8.913   4.633   1.260 -0.3097 -0.1889 -0.5916
  311SOL     OW10846   0.468   3.824   2.499 -0.1308  0.2309 -0.0241
  311SOL    HW110847   0.562   3.802   2.522  0.2032  0.7759 -0.8607
  311SOL    HW210848   0.465   3.906   2.441 -1.0790 -0.0352 -0.3724
  312SOL     OW10849   3.202   9.345   1.497  0.4908 -0.5193 -0.8631
  312SOL    HW110850   3.104   9.363   1.493  1.0807  3.4453  0.4152
  312SOL    HW210851   3.240   9.349   1.405 -0.2433 -0.1892 -1.1576
  313SOL     OW10852   1.848   5.126   2.181  0.4910  0.2049 -0.0541
  313SOL    HW110853   1.836   5.159   2.275 -0.6541 -1.4662  0.4155
  313SOL    HW210854   1.761   5.134   2.132  0.3690 -1.4213 -0.1372
  314SOL     OW10855   3.580   4.490   1.459  0.1131  0.7739 -0.0793
  314SOL    HW110856   3.503   4.425   1.455 -0.5470  1.5833 -0.7279
  314SOL    HW210857   3.549   4.580   1.427  1.9378  0.5177 -2.6918
  315SOL     OW10858   2.798   7.758   1.734 -0.0569 -0.0623 -0.3387
  315SOL    HW110859   2.820   7.834   1.795  0.9940 -0.6121 -0.0184
  315SOL    HW210860   2.814   7.671   1.782  1.3429 -0.5104 -1.5522
  316SOL     OW10861   2.513   4.159   1.288  0.1184  0.2223 -0.6912
  316SOL    HW110862   2.471   4.086   1.235 -2.7368  2.0436 -1.0935
  316SOL    HW210863   2.519   4.132   1.384 -2.8453  0.1734 -0.4687
  317SOL     OW10864   9.872   5.221   2.092  0.4677 -0.1892  0.4988
  317SOL    HW110865   9.819   5.236   2.175 -0.8843  0.9676 -0.5335
  317SOL    HW210866   9.956   5.276   2.095  0.9811 -1.0243  1.5792
  318SOL     OW10867   3.483   8.175   0.051  0.1203 -0.9091  0.5865
  318SOL    HW110868   3.529   8.183  -0.038  1.7635  0.9596  1.5905
  318SOL    HW210869   3.385   8.164   0.036  0.0667  1.8439 -1.4268
  319SOL     OW10870   2.769   7.066   1.785  0.0678  0.0620  0.0792
  319SOL    HW110871   2.731   7.112   1.705 -1.5761 -0.2257  0.6750
  319SOL    HW210872   2.868   7.078   1.786 -0.2592  3.3152  0.0566
  320SOL     OW10873   3.049   7.111   1.816  0.0185 -0.0769 -0.4151
  320SOL    HW110874   3.107   7.078   1.741  0.9814  0.7105 -0.0294
  320SOL    HW210875   3.073   7.206   1.837 -2.5505  0.8222 -1.3573
  321SOL     OW10876   1.102   4.421   0.052 -0.0580  0.1062  0.6494
  321SOL    HW110877   1.196   4.454   0.044 -0.2963  0.8397  0.7495
  321SOL    HW210878   1.043   4.475  -0.008 -0.3185 -0.7735  0.1025
  322SOL     OW10879   3.967   2.146   2.519  0.1998  0.3947 -0.1272
  322SOL    HW110880   4.024   2.211   2.468  1.2336 -0.6405 -0.3079
  322SOL    HW210881   4.004   2.054   2.508 -0.7036 -0.0996  0.9168
  323SOL     OW10882   0.959   5.194   2.316 -0.1408 -0.0013 -0.2462
  323SOL    HW110883   0.951   5.211   2.414  1.6626  0.2265 -0.1214
  323SOL    HW210884   0.969   5.096   2.300  0.1870  0.0128 -0.1421
  324SOL     OW10885   1.637   2.102   0.112 -0.7251  0.3324 -0.2588
  324SOL    HW110886   1.556   2.050   0.084 -1.3012  0.6210  0.8759
  324SOL    HW210887   1.673   2.064   0.197  0.7224 -0.2129 -1.1096
  325SOL     OW10888   9.249   4.816   2.336  0.4850 -0.0759  0.3522
  325SOL    HW110889   9.185   4.873   2.285  0.3827 -0.8564 -0.3842
  325SOL    HW210890   9.279   4.866   2.418 -0.1844  0.7371  0.1096
  326SOL     OW10891   2.599   3.699   2.614 -0.2818  0.2898  0.2659
  326SOL    HW110892   2.653   3.692   2.698 -1.7930 -0.7649  1.1769
  326SOL    HW210893   2.502   3.705   2.637 -0.6984  0.2202 -1.3956
  327SOL     OW10894   3.242   4.100   0.293  0.0279  0.4081  0.1402
  327SOL    HW110895   3.241   4.000   0.295  0.7663  0.4018  0.7528
  327SOL    HW210896   3.188   4.133   0.216 -0.5753 -0.4528  0.1918
  328SOL     OW10897   4.060   0.389   1.969 -0.2741 -0.2153  0.3917
  328SOL    HW110898   3.964   0.361   1.960  0.1166 -1.1997 -0.8456
  328SOL    HW210899   4.082   0.400   2.066 -2.3323  2.5386  0.5982
  329SOL     OW10900   4.156   9.866   1.092 -0.5094  0.5049 -0.9210
  329SOL    HW110901   4.183   9.864   0.995 -2.8336  2.3054 -1.6717
  329SOL    HW210902   4.098   9.946   1.108 -3.4233 -1.9315  1.0997
  330SOL     OW10903   4.326   2.168   1.561  0.0284  0.0989 -0.2893
  330SOL    HW110904   4.313   2.113   1.478 -2.2792  0.3375 -0.1089
  330SOL    HW210905   4.303   2.112   1.641 -0.9949  0.8910 -0.0222
  331SOL     OW10906   3.507   4.063   0.641  0.6735  0.4758  0.2007
  331SOL    HW110907   3.427   4.106   0.683 -0.0945 -0.2740 -0.4782
  331SOL    HW210908   3.554   4.006   0.709  0.1060  0.1969  0.3610
  332SOL     OW10909   0.193   3.967   0.098  0.0788 -0.2711  0.5009
  332SOL    HW110910   0.093   3.960   0.097 -0.0116  0.8290  0.6526
  332SOL    HW210911   0.229   3.953   0.006 -0.3186  0.5193  0.2143
  333SOL     OW10912   3.904   9.912   1.463 -0.5847 -0.3797 -0.4265
  333SOL    HW110913   3.935   9.843   1.528 -0.7368 -0.8946 -0.8935
  333SOL    HW210914   3.811   9.941   1.487  0.5715  1.8769  1.5520
  334SOL     OW10915   1.555   5.578   2.580 -0.2541  0.6767 -0.6251
  334SOL    HW110916   1.484   5.570   2.509 -2.7828 -1.0446  1.9617
  334SOL    HW210917   1.540   5.662   2.632 -0.3729  0.3721 -0.1562
  335SOL     OW10918   2.709   5.207   0.606  0.1083  0.0025 -0.2556
  335SOL    HW110919   2.659   5.166   0.683 -2.3274  0.7651 -1.3648
  335SOL    HW210920   2.696   5.151   0.524  0.1399  0.8080 -0.8228
  336SOL     OW10921   2.394   5.021   0.218  0.0886 -0.2055  0.4990
  336SOL    HW110922   2.342   4.971   0.286 -1.2345 -1.6467 -1.5192
  336SOL    HW210923   2.332   5.077   0.163  0.7713 -1.0938 -1.2113
  337SOL     OW10924   3.583   9.457   2.532 -0.1197 -0.1710 -0.3487
  337SOL    HW110925   3.571   9.513   2.614 -0.2474 -0.5824 -0.0851
  337SOL    HW210926   3.645   9.381   2.552  0.0500 -0.1271 -0.7039
  338SOL     OW10927   4.129   8.152   0.962 -0.5032 -0.1851 -0.4026
  338SOL    HW110928   4.097   8.125   1.053 -1.1332  1.3457 -0.1650
  338SOL    HW210929   4.130   8.071   0.903  0.9963 -1.4294  1.2588
  339SOL     OW10930   3.287   6.265   2.286  0.1436 -0.0672 -0.1532
  339SOL    HW110931   3.339   6.201   2.230  0.4129 -1.6016  1.7954
  339SOL    HW210932   3.193   6.271   2.253  0.4469 -0.5042 -1.0978
  340SOL     OW10933   5.081   2.760   2.669 -0.5677  0.4389 -0.4727
  340SOL    HW110934   5.088   2.853   2.634  2.3567  0.2706 -0.4895
  340SOL    HW210935   5.030   2.760   2.755  0.4464  2.2279  0.1449
  341SOL     OW10936   3.006   6.923   2.029 -0.1590 -0.1556  0.1519
  341SOL    HW110937   3.049   6.999   1.979 -0.3913 -0.3750 -0.3878
  341SOL    HW210938   3.069   6.889   2.099  1.1315 -1.4230 -1.5736
  342SOL     OW10939   3.725   0.372   0.645  0.1406 -0.3248 -0.0201
  342SOL    HW110940   3.769   0.291   0.683 -0.5429 -0.0002  1.4896
  342SOL    HW210941   3.626   0.360   0.645  0.1038 -0.1916 -1.4398
  343SOL     OW10942   3.791   0.079   1.756 -0.0484  0.2334 -0.0162
  343SOL    HW110943   3.779  -0.018   1.737  1.4895 -0.5021  2.6034
  343SOL    HW210944   3.858   0.117   1.692 -0.5226 -0.4595 -0.9354
  344SOL     OW10945   1.641   3.143   0.600 -0.4845 -0.0993  0.2529
  344SOL    HW110946   1.648   3.051   0.561  3.9106  0.4398 -0.5445
  344SOL    HW210947   1.693   3.207   0.543 -1.5309  2.4435  2.0858
  345SOL     OW10948   3.386   0.859   0.211  0.1310  0.0957 -0.7399
  345SOL    HW110949   3.458   0.918   0.176  1.8608 -0.7941  1.1694
  345SOL    HW210950   3.306   0.913   0.236  1.0615  1.4065 -0.5986
  346SOL     OW10951   8.699   4.700   0.774 -0.0314  0.3321 -0.2043
  346SOL    HW110952   8.698   4.603   0.748  0.6254 -0.0639  1.1894
  346SOL    HW210953   8.685   4.708   0.873  1.3933  1.5845 -0.0923
  347SOL     OW10954   1.732   5.836   0.380 -0.2408 -0.3609  0.0206
  347SOL    HW110955   1.749   5.928   0.414 -0.8946 -0.6996  1.2689
  347SOL    HW210956   1.727   5.838   0.280  5.1277  0.0776 -0.3981
  348SOL     OW10957   2.094   4.895   1.060  0.0600 -0.8458 -0.1543
  348SOL    HW110958   2.095   4.809   1.112  0.1095 -0.1078  1.0674
  348SOL    HW210959   2.142   4.966   1.112  0.9903 -0.3541 -1.6553
  349SOL     OW10960   1.548   4.958   0.612 -0.0877  0.1499  0.2928
  349SOL    HW110961   1.584   4.968   0.519 -0.7345 -2.7732 -0.3272
  349SOL    HW210962   1.616   4.913   0.670 -1.1747 -1.6879  0.1728
  350SOL     OW10963   2.629   7.902   1.376 -0.0951  0.3353  0.3193
  350SOL    HW110964   2.598   7.831   1.439 -2.4555 -0.5558 -1.7530
  350SOL    HW210965   2.729   7.900   1.370  0.1005 -0.3091  3.1072
  351SOL     OW10966   4.280   2.740   0.292 -0.1161  0.7257 -0.4663
  351SOL    HW110967   4.374   2.764   0.313 -0.0493 -0.1131  0.2224
  351SOL    HW210968   4.270   2.641   0.291 -1.1352  0.8133  0.1424
  352SOL     OW10969   1.539   3.006   0.095  0.5601  0.5903 -0.3106
  352SOL    HW110970   1.522   3.008  -0.004 -1.8178  1.2374  0.0943
  352SOL    HW210971   1.516   3.096   0.134 -1.6356 -0.6409  1.3195
  353SOL     OW10972   2.901   2.785   2.565 -0.3158  0.1593 -0.4593
  353SOL    HW110973   2.880   2.766   2.469  2.0986 -3.1945 -0.4007
  353SOL    HW210974   2.979   2.847   2.570 -0.4623  0.3627 -0.6500
  354SOL     OW10975   2.184   5.062   0.037  0.3236  0.3422 -0.7605
  354SOL    HW110976   2.089   5.034   0.046  1.0254 -1.9278  0.1780
  354SOL    HW210977   2.200   5.100  -0.054 -1.4097  0.4542 -1.0238
  355SOL     OW10978   3.530   3.137   2.310 -0.1183  0.1158  0.0901
  355SOL    HW110979   3.542   3.231   2.342 -0.4440  0.5603 -1.0830
  355SOL    HW210980   3.434   3.122   2.285 -0.2045 -0.7305  0.8823
  356SOL     OW10981   3.269   9.522   0.833  0.2129 -0.4676  0.3800
  356SOL    HW110982   3.194   9.586   0.814 -0.0304 -0.9214 -0.2119
  356SOL    HW210983   3.330   9.517   0.754 -0.2685 -1.6393  0.0676
  357SOL     OW10984   2.957   6.550   0.429  0.0102  0.0470  0.2088
  357SOL    HW110985   2.962   6.486   0.506 -2.1299  0.2038  0.5149
  357SOL    HW210986   2.909   6.633   0.459 -2.6873 -0.7365 -1.8518
  358SOL     OW10987   0.398   4.413   0.078  0.5091 -0.8331  0.1737
  358SOL    HW110988   0.450   4.330   0.058 -1.1081 -1.8448  0.1035
  358SOL    HW210989   0.300   4.395   0.066  0.2164  1.4361 -1.0907
  359SOL     OW10990   4.174   1.321   1.565 -0.4353  0.3166  0.4884
  359SOL    HW110991   4.135   1.280   1.483 -0.3206  0.6712  0.2568
  359SOL    HW210992   4.172   1.254   1.640 -0.0167 -0.1950  0.0457
  360SOL     OW10993   3.340   0.466   0.807 -0.7742  0.4241  0.3738
  360SOL    HW110994   3.390   0.432   0.886 -0.8009  0.5078  0.4268
  360SOL    HW210995   3.384   0.550   0.774 -1.8558  1.4384  1.4420
  361SOL     OW10996   4.519   1.801   2.445  0.5049 -0.3981  0.0996
  361SOL    HW110997   4.562   1.890   2.435  0.1472  0.0473  2.1668
  361SOL    HW210998   4.574   1.744   2.506 -1.1139 -0.2766  1.7265
  362SOL     OW10999   3.199   3.729   1.483 -0.0645 -0.1050 -0.2866
  362SOL    HW111000   3.119   3.707   1.540 -0.3145  1.8203  0.1332
  362SOL    HW211001   3.267   3.778   1.538  0.8883 -0.6453 -0.9616
  363SOL     OW11002   2.708   3.527   1.072  0.0177 -0.0397  0.5601
  363SOL    HW111003   2.700   3.623   1.100  0.5552  0.0192  0.5171
  363SOL    HW211004   2.693   3.519   0.973 -0.9435 -0.1218  0.7157
  364SOL     OW11005   3.270   8.749   0.254 -0.2808 -0.7084 -0.1180
  364SOL    HW111006   3.332   8.815   0.211  0.5361 -2.3204 -1.4716
  364SOL    HW211007   3.202   8.798   0.309  0.9762  1.1843 -0.2122
  365SOL     OW11008   4.614   1.968   1.022  0.3911  0.5779 -0.0426
  365SOL    HW111009   4.686   1.915   1.066 -1.1484 -1.5073  0.0067
  365SOL    HW211010   4.650   2.012   0.940  1.9273  0.2827  0.4612
  366SOL     OW11011   0.650   4.682   2.119  0.4172  0.1088  0.3043
  366SOL    HW111012   0.659   4.758   2.184  1.9210  0.2287 -0.0373
  366SOL    HW211013   0.737   4.634   2.111  0.6682  0.9808 -2.7272
  367SOL     OW11014   9.301   5.328   2.237 -0.3429 -0.5324  0.2603
  367SOL    HW111015   9.256   5.378   2.311  0.4210  1.7195 -0.7505
  367SOL    HW211016   9.343   5.245   2.274  2.1296  1.7523  2.8918
  368SOL     OW11017   2.237   4.438   0.508 -0.1362  0.6029  0.1622
  368SOL    HW111018   2.190   4.396   0.431 -0.0779  1.7465 -0.5043
  368SOL    HW211019   2.189   4.521   0.536 -0.0169  0.3392  1.1951
  369SOL     OW11020   3.619   9.073   1.280 -0.0443  0.2991 -0.3359
  369SOL    HW111021   3.568   9.149   1.241  1.7704  2.2308  0.9787
  369SOL    HW211022   3.569   9.037   1.359  0.3603  1.8612  0.6499
  370SOL     OW11023   4.321   8.129   0.599 -0.7263 -0.3712 -0.5537
  370SOL    HW111024   4.375   8.210   0.619  0.2485 -0.6941 -1.8299
  370SOL    HW211025   4.381   8.054   0.571 -1.7134 -1.1773 -0.5751
  371SOL     OW11026   4.574   9.152   2.623  0.0626  0.3090 -0.5020
  371SOL    HW111027   4.483   9.110   2.625  0.7523 -1.2455 -1.0846
  371SOL    HW211028   4.591   9.198   2.710 -0.9298 -0.1334 -0.0614
  372SOL     OW11029   4.724   4.216   0.579 -0.4324  0.1684 -0.0835
  372SOL    HW111030   4.807   4.253   0.620 -0.4286 -1.6650  1.6594
  372SOL    HW211031   4.747   4.166   0.496  0.2188 -0.4580  0.4712
  373SOL     OW11032   1.773   3.914   1.794  0.7117 -0.0892  0.1068
  373SOL    HW111033   1.757   3.823   1.754 -0.1172  0.5760 -1.1029
  373SOL    HW211034   1.708   3.979   1.755  1.4556  1.0786  0.8029
  374SOL     OW11035   9.821   4.643   0.764 -0.2548  0.3709  0.0385
  374SOL    HW111036   9.905   4.689   0.737  1.8294 -3.1486  0.2567
  374SOL    HW211037   9.838   4.586   0.845 -2.9770 -0.0430  0.3796
  375SOL     OW11038   4.399   0.519   1.301 -0.2217  0.2787  0.8146
  375SOL    HW111039   4.325   0.454   1.314  0.8925 -1.1299  0.2686
  375SOL    HW211040   4.448   0.532   1.387 -1.0615  1.1787  1.1649
  376SOL     OW11041   3.267   4.592   1.296 -0.0144  0.0807  0.1593
  376SOL    HW111042   3.234   4.559   1.384 -0.0599  2.5218  1.1122
  376SOL    HW211043   3.343   4.656   1.311  1.8421 -1.5830 -1.7388
  377SOL     OW11044   3.872   9.928   0.349 -0.6114 -0.4544 -0.1685
  377SOL    HW111045   3.795   9.991   0.362 -1.0871 -0.9113 -0.6905
  377SOL    HW211046   3.889   9.916   0.251  1.2684  0.9954 -0.0387
  378SOL     OW11047   3.896   3.788   1.209  0.0090  0.5328 -0.0367
  378SOL    HW111048   3.862   3.829   1.294  1.7917  0.5946  0.6809
  378SOL    HW211049   3.826   3.793   1.139 -2.2508 -1.2737  1.9936
  379SOL     OW11050   1.150   4.067   2.256  0.5638 -0.4027  0.3414
  379SOL    HW111051   1.117   4.117   2.336  0.0164  0.7980 -0.6225
  379SOL    HW211052   1.245   4.039   2.271  0.6738  0.3758  1.1599
  380SOL     OW11053   9.219   4.986   0.625  0.3329 -0.3156  0.0174
  380SOL    HW111054   9.302   4.936   0.601  0.5969  0.5454 -0.8897
  380SOL    HW211055   9.224   5.079   0.589 -1.4523 -0.5657 -0.9449
  381SOL     OW11056   4.959   1.422   1.648 -0.5589  0.0873  0.1637
  381SOL    HW111057   4.982   1.327   1.665  0.8891  0.6075  1.2378
  381SOL    HW211058   4.928   1.433   1.553 -2.8745 -1.8080  0.6725
  382SOL     OW11059   2.678   5.751   0.151 -0.1919 -0.1799  0.5642
  382SOL    HW111060   2.775   5.775   0.151 -0.6567  1.9027 -1.4958
  382SOL    HW211061   2.657   5.696   0.069 -0.3909 -2.3253  2.0184
  383SOL     OW11062   3.438   3.861   0.908 -0.1917  0.0879  0.2426
  383SOL    HW111063   3.363   3.917   0.873 -1.4646 -2.4784 -1.2356
  383SOL    HW211064   3.403   3.773   0.939  1.8837 -0.2172  1.8747
  384SOL     OW11065   3.073   3.733   0.596 -0.5096  0.1696 -0.0825
  384SOL    HW111066   3.172   3.735   0.590 -0.5669  0.3657 -1.0760
  384SOL    HW211067   3.038   3.827   0.596 -0.6427  0.1248  1.2770
  385SOL     OW11068   2.931   8.874   0.842  0.2225  0.2500  1.3878
  385SOL    HW111069   2.914   8.971   0.830  1.3224  0.4416  1.2692
  385SOL    HW211070   2.860   8.833   0.900 -1.0275  0.8290  0.2849
  386SOL     OW11071   1.959   3.999   0.183  0.4467  0.3849 -0.7437
  386SOL    HW111072   1.944   3.917   0.237 -1.0090  0.9509 -0.2698
  386SOL    HW211073   1.943   3.979   0.086 -0.1743  0.1794 -0.5993
  387SOL     OW11074   3.207   3.417   2.368  0.1826  0.8556 -0.2784
  387SOL    HW111075   3.212   3.517   2.357 -0.0035  1.1301  1.9605
  387SOL    HW211076   3.126   3.393   2.422 -0.8984 -0.6787 -2.5120
  388SOL     OW11077   0.884   4.531   2.461 -0.1185  0.1415 -0.0353
  388SOL    HW111078   0.786   4.550   2.460 -0.0432  0.5762  0.5255
  388SOL    HW211079   0.920   4.536   2.367 -1.2374 -3.3203 -0.7082
  389SOL     OW11080   4.265   2.020   1.904 -0.0507  0.2388 -0.4158
  389SOL    HW111081   4.342   2.023   1.968  0.8951  0.5570 -1.5561
  389SOL    HW211082   4.291   1.967   1.823 -0.5917  1.4086 -1.3752
  390SOL     OW11083   2.007   2.840   1.560 -0.3724  0.0799 -0.0773
  390SOL    HW111084   2.038   2.765   1.619  1.2517  0.6040 -0.2451
  390SOL    HW211085   1.989   2.804   1.468 -0.3858 -0.2553  0.0560
  391SOL     OW11086   3.725   4.584   0.098  0.0802  0.3547 -0.8522
  391SOL    HW111087   3.723   4.519   0.174 -0.2073  0.2399 -0.9562
  391SOL    HW211088   3.813   4.579   0.051  0.5143  0.9021 -0.1116
  392SOL     OW11089   3.099   3.437   0.587  0.1361 -0.4203  0.1740
  392SOL    HW111090   3.128   3.380   0.664 -2.1715  0.8126  2.0349
  392SOL    HW211091   3.102   3.533   0.613 -1.1127 -0.0147 -1.1030
  393SOL     OW11092   3.506   3.404   0.576 -0.8452 -0.0664 -0.2264
  393SOL    HW111093   3.475   3.380   0.484 -1.2344 -0.3586 -0.0231
  393SOL    HW211094   3.526   3.502   0.581 -0.0615 -0.1914 -0.8376
  394SOL     OW11095   1.821   5.611   1.995 -0.1869 -0.2378 -0.0102
  394SOL    HW111096   1.729   5.577   2.017 -0.8263  0.2793 -1.8606
  394SOL    HW211097   1.856   5.562   1.916 -0.1288  1.7166 -1.2156
  395SOL     OW11098   9.330   4.209   0.758  0.1882 -0.5354 -0.0469
  395SOL    HW111099   9.253   4.205   0.695  0.6283  0.7838 -0.6780
  395SOL    HW211100   9.312   4.277   0.829  0.4623 -0.7460  0.2298
  396SOL     OW11101   3.277   7.776   1.277 -0.0780 -0.5107 -0.3683
  396SOL    HW111102   3.221   7.846   1.234 -1.5981 -0.1542  2.0648
  396SOL    HW211103   3.350   7.819   1.330 -0.6294 -0.7458  0.6107
  397SOL     OW11104   3.160   9.195   0.801 -0.5615 -0.2315 -0.4732
  397SOL    HW111105   3.137   9.278   0.852 -2.5703 -0.3899 -1.0837
  397SOL    HW211106   3.162   9.216   0.703  0.8004 -0.5032 -0.5187
  398SOL     OW11107   2.983   4.934   2.639  0.1639 -0.3213 -0.4736
  398SOL    HW111108   2.996   4.911   2.735  1.6814  0.3305 -0.5124
  398SOL    HW211109   2.918   5.010   2.632 -1.7429 -1.8762 -0.1237
  399SOL     OW11110   4.199   9.739   1.531  0.1956 -0.3156  0.4914
  399SOL    HW111111   4.257   9.812   1.567 -0.3301  0.4142 -0.1464
  399SOL    HW211112   4.186   9.752   1.433  1.4166 -2.1514  0.0426
  400SOL     OW11113   3.088   3.149   1.002  0.0102 -0.0378  0.5192
  400SOL    HW111114   2.990   3.155   0.979  0.2275  2.4142  0.0843
  400SOL    HW211115   3.098   3.133   1.100 -0.8256  0.8871  0.7650
  401SOL     OW11116   3.250   0.708   1.916 -0.6260  0.0900 -0.2286
  401SOL    HW111117   3.239   0.642   1.991  0.9889  0.1738  0.0936
  401SOL    HW211118   3.342   0.701   1.879 -0.9388  1.1126 -1.2223
  402SOL     OW11119   9.902   5.027   0.704 -0.3005 -0.0011 -0.2241
  402SOL    HW111120   9.926   5.111   0.655 -0.7291 -0.0999 -0.5985
  402SOL    HW211121   9.888   4.953   0.639 -0.0034 -0.3445  0.1035
  403SOL     OW11122   2.978   6.474   2.029  0.5781 -0.5722  0.5404
  403SOL    HW111123   2.940   6.565   2.047  2.4335  0.1075  1.1574
  403SOL    HW211124   3.019   6.438   2.112  4.1839  0.1547 -0.8135
  404SOL     OW11125   1.865   4.366   2.437 -0.1048 -0.1387  0.1962
  404SOL    HW111126   1.932   4.297   2.408 -0.4724 -0.2426 -0.4073
  404SOL    HW211127   1.912   4.452   2.455 -0.0027  0.2257 -1.7332
  405SOL     OW11128   3.406   8.026   0.942  0.1737  0.1137 -0.2648
  405SOL    HW111129   3.493   8.072   0.961 -1.2168  2.2487  1.0869
  405SOL    HW211130   3.357   8.010   1.027 -1.8398  1.1496 -1.1922
  406SOL     OW11131   0.699   4.882   2.282 -0.3076 -0.5715 -0.2581
  406SOL    HW111132   0.797   4.860   2.281 -0.8662 -3.2478 -0.2935
  406SOL    HW211133   0.682   4.960   2.222  1.7626 -0.3077 -0.5401
  407SOL     OW11134   2.992   5.735   2.498  0.4390 -0.1732  0.5202
  407SOL    HW111135   3.008   5.637   2.497 -1.0039 -0.4128 -0.3157
  407SOL    HW211136   3.022   5.775   2.411 -1.7531 -0.3583 -0.3490
  408SOL     OW11137   0.849   5.647   1.052  0.2038 -0.1133  0.4573
  408SOL    HW111138   0.856   5.578   1.124  1.3213 -1.2548 -0.7269
  408SOL    HW211139   0.931   5.704   1.052  0.9330 -1.1476 -0.9414
  409SOL     OW11140   3.597   3.762   2.574  0.4095 -0.0922  0.9302
  409SOL    HW111141   3.503   3.796   2.573 -0.0555 -1.2289 -2.4006
  409SOL    HW211142   3.596   3.662   2.584  1.2019 -0.1928  0.0524
  410SOL     OW11143   3.192   8.124   0.041 -0.4454  0.2176 -0.4807
  410SOL    HW111144   3.160   8.130   0.136  0.3820  1.4109 -0.2814
  410SOL    HW211145   3.158   8.038   0.001 -2.1058  0.4370  0.3951
  411SOL     OW11146   2.814   3.913   0.968  0.0203  0.5843 -0.0204
  411SOL    HW111147   2.769   3.852   1.033  1.1753  0.5037  0.7299
  411SOL    HW211148   2.747   3.948   0.902 -1.3789  1.5542  1.8823
  412SOL     OW11149   3.450   5.586   0.144 -0.4207 -0.7771  0.7390
  412SOL    HW111150   3.494   5.608   0.231 -1.3458  1.1278  0.7637
  412SOL    HW211151   3.461   5.663   0.081 -1.1478 -1.4869 -0.2685
  413SOL     OW11152   2.864   4.284   2.529 -0.0280  0.3656 -0.2064
  413SOL    HW111153   2.864   4.342   2.447 -2.6651  0.3342 -0.2772
  413SOL    HW211154   2.895   4.192   2.504  0.2496  0.6512 -0.9408
  414SOL     OW11155   0.310   4.208   1.151 -0.1680 -0.0586  0.1202
  414SOL    HW111156   0.393   4.160   1.123  0.7234  1.2211  0.5286
  414SOL    HW211157   0.255   4.230   1.070  0.2423 -0.2673 -0.2167
  415SOL     OW11158   3.971   8.708   2.697 -0.4724  0.0928 -0.3194
  415SOL    HW111159   3.903   8.739   2.630 -0.8816  1.1506  0.5709
  415SOL    HW211160   3.958   8.757   2.783  1.7329  0.6701 -0.2821
  416SOL     OW11161   2.912   3.973   2.573  0.3636 -0.2835 -0.6400
  416SOL    HW111162   3.009   3.997   2.570  0.5174 -0.9310 -0.8619
  416SOL    HW211163   2.900   3.877   2.548 -0.1631 -0.6737  1.0170
  417SOL     OW11164   3.475   0.460   0.351 -0.0822  0.1952  0.7343
  417SOL    HW111165   3.387   0.433   0.311  0.5073 -0.5634 -0.0547
  417SOL    HW211166   3.550   0.420   0.298  0.7428  0.7885  1.4400
  418SOL     OW11167   4.116   3.194   1.897  0.0383  0.1142 -0.2548
  418SOL    HW111168   4.062   3.264   1.943  0.0516 -0.0016 -0.0649
  418SOL    HW211169   4.160   3.135   1.964  0.0139 -0.0881 -0.4127
  419SOL     OW11170   9.392   4.748   2.601 -0.1341 -0.1302  0.9839
  419SOL    HW111171   9.437   4.679   2.546 -0.9525 -0.0183  0.1608
  419SOL    HW211172   9.320   4.706   2.657 -0.5143  0.0258  0.6146
  420SOL     OW11173   2.171   3.223   2.299  0.2850  0.1782 -0.4003
  420SOL    HW111174   2.161   3.218   2.399 -0.8773 -0.9764 -0.5545
  420SOL    HW211175   2.268   3.224   2.275  0.6232 -2.2703  0.6565
  421SOL     OW11176   3.402   3.784   2.260 -0.6358 -0.0547  0.3957
  421SOL    HW111177   3.369   3.790   2.166  0.1036  1.9395  0.2494
  421SOL    HW211178   3.333   3.819   2.322  0.3336  2.1917  0.2571
  422SOL     OW11179   2.855   1.577   0.552 -0.3053  0.5380  0.2532
  422SOL    HW111180   2.770   1.540   0.514 -1.0233 -1.5256  3.6446
  422SOL    HW211181   2.836   1.662   0.599 -0.5471 -0.0423  1.2099
  423SOL     OW11182   4.071   4.809   1.277  0.0476 -0.2894  0.4582
  423SOL    HW111183   4.008   4.881   1.307 -0.7136 -0.4507 -0.7067
  423SOL    HW211184   4.156   4.815   1.329 -0.5493  0.5670  1.3483
  424SOL     OW11185   1.951   4.801   2.355 -0.0534 -0.2904  0.7262
  424SOL    HW111186   1.868   4.828   2.306 -0.7441 -1.6047  1.1351
  424SOL    HW211187   1.971   4.867   2.427 -0.2622  0.4923  0.0656
  425SOL     OW11188   3.459   5.496   0.923  0.0784 -0.8238 -0.2986
  425SOL    HW111189   3.365   5.489   0.890 -0.2045 -1.5098  0.6409
  425SOL    HW211190   3.511   5.418   0.889  0.9927  0.8644 -2.9566
  426SOL     OW11191   0.195   4.651   2.304 -1.3082  0.3545  0.7083
  426SOL    HW111192   0.269   4.688   2.361 -1.1071  1.2752 -0.1289
  426SOL    HW211193   0.160   4.724   2.245 -0.0960 -1.0972 -1.8287
  427SOL     OW11194   2.087   4.015   2.293 -1.1554  0.1100 -0.1050
  427SOL    HW111195   1.991   4.028   2.268 -1.2439  0.3885  0.3797
  427SOL    HW211196   2.092   3.959   2.376 -0.8517 -1.1787 -0.9734
  428SOL     OW11197   1.968   6.407   2.204 -0.0058  0.1489 -0.2152
  428SOL    HW111198   2.002   6.408   2.110  3.6238 -0.0482  1.0314
  428SOL    HW211199   1.925   6.318   2.223 -0.8070  0.2100 -1.6847
  429SOL     OW11200   2.452   3.470   2.262 -0.2165 -0.0606 -0.2280
  429SOL    HW111201   2.473   3.535   2.189  0.4720  0.6398  0.5800
  429SOL    HW211202   2.354   3.469   2.280 -0.7938 -2.3223 -3.0907
  430SOL     OW11203   1.860   6.815   0.510  0.3642 -0.1024 -0.1275
  430SOL    HW111204   1.878   6.885   0.579 -0.1262 -0.4961  0.4023
  430SOL    HW211205   1.819   6.735   0.553  0.0438 -0.3488 -0.8796
  431SOL     OW11206   2.905   8.421   1.867 -0.5031  0.2365 -0.5691
  431SOL    HW111207   2.982   8.358   1.869 -0.6897  0.0113 -0.4281
  431SOL    HW211208   2.852   8.407   1.783 -0.1899  0.6333 -0.8327
  432SOL     OW11209   2.056   4.433   1.375 -0.2097  0.0069 -0.6151
  432SOL    HW111210   2.013   4.361   1.320 -0.1406  0.7403 -1.6492
  432SOL    HW211211   2.131   4.393   1.428 -0.3053 -0.7257 -1.0123
  433SOL     OW11212   3.076   7.401   0.747 -0.4245 -0.6062 -0.6766
  433SOL    HW111213   2.992   7.401   0.801 -1.0443 -3.7095 -1.5357
  433SOL    HW211214   3.150   7.361   0.801  0.6831  2.5614  0.2531
  434SOL     OW11215   2.101   1.796   2.176 -0.7795 -0.2064 -0.0605
  434SOL    HW111216   2.199   1.798   2.158 -0.5855 -2.4565  0.6050
  434SOL    HW211217   2.056   1.742   2.105 -1.6528  1.3466 -0.7295
  435SOL     OW11218   9.531   5.073   0.530  0.0979 -0.4339 -0.0366
  435SOL    HW111219   9.453   5.087   0.468 -0.9813 -0.3570  1.3304
  435SOL    HW211220   9.554   5.160   0.574  0.6719 -0.5531 -0.1014
  436SOL     OW11221   2.218   2.652   0.317 -0.1682 -0.0883 -0.4460
  436SOL    HW111222   2.146   2.585   0.299  0.4389 -0.7477 -0.4499
  436SOL    HW211223   2.260   2.633   0.406 -2.3692  2.4437  1.2119
  437SOL     OW11224   4.780   2.999   2.341 -0.0828 -0.5611  0.4294
  437SOL    HW111225   4.813   2.912   2.377  4.0407  0.7486  0.1394
  437SOL    HW211226   4.754   3.058   2.417  0.6753 -0.7665  0.8622
  438SOL     OW11227   4.535   1.547   0.079 -0.3457  0.3766 -0.2104
  438SOL    HW111228   4.562   1.451   0.081 -1.1036  0.1407 -0.8009
  438SOL    HW211229   4.483   1.565  -0.005 -2.6867  0.6074  1.2343
  439SOL     OW11230   1.661   5.356   1.634  0.6154 -0.2238  0.4243
  439SOL    HW111231   1.587   5.416   1.605 -0.2974 -1.3728  0.3011
  439SOL    HW211232   1.650   5.266   1.589  0.6926 -1.1726  2.2739
  440SOL     OW11233   5.115   2.045   0.904 -0.2262 -0.6093  0.6586
  440SOL    HW111234   5.139   1.996   0.988 -0.8193 -0.0754  1.1391
  440SOL    HW211235   5.059   2.124   0.926 -1.5515 -1.2368 -0.3538
  441SOL     OW11236   3.893   3.441   1.680 -0.0398  0.0160  0.1355
  441SOL    HW111237   3.991   3.427   1.663  0.0713  1.0649 -0.1553
  441SOL    HW211238   3.861   3.375   1.748  0.3675 -1.7722 -1.3759
  442SOL     OW11239   3.494   3.520   2.323  0.0440  0.3666 -0.3544
  442SOL    HW111240   3.410   3.473   2.349 -0.0085  1.0809  0.8000
  442SOL    HW211241   3.472   3.609   2.284  0.1530 -0.4673 -2.3557
  443SOL     OW11242   3.715   4.311   2.609 -0.6698  0.3014  0.1085
  443SOL    HW111243   3.791   4.371   2.635 -1.4096  0.8210  1.1119
  443SOL    HW211244   3.679   4.340   2.520 -0.2818  0.6246  0.0557
  444SOL     OW11245   3.254   8.393   2.075 -0.1452  0.3396 -0.1049
  444SOL    HW111246   3.190   8.462   2.043 -0.7517  0.0242  0.4097
  444SOL    HW211247   3.257   8.317   2.010 -2.2550 -0.8387  1.1327
  445SOL     OW11248   2.508   1.560   0.913  0.1559  0.0564  0.5900
  445SOL    HW111249   2.424   1.595   0.871 -2.4135 -5.0226  1.1010
  445SOL    HW211250   2.518   1.598   1.005 -1.2438  1.1585  0.3111
  446SOL     OW11251   2.745   8.357   1.644 -0.0537 -0.1198 -0.0861
  446SOL    HW111252   2.680   8.283   1.626  0.8372 -0.5396 -1.7762
  446SOL    HW211253   2.716   8.438   1.593 -0.5647  0.4495  1.0945
  447SOL     OW11254   3.838   1.783   1.110  0.1212 -0.2135 -0.2008
  447SOL    HW111255   3.787   1.853   1.160 -1.4081 -2.3259  1.2863
  447SOL    HW211256   3.933   1.812   1.101 -0.2224  1.5296  1.3688
  448SOL     OW11257   4.072   4.260   2.174 -0.3335  0.3546  0.4050
  448SOL    HW111258   4.123   4.174   2.183 -0.0678  0.3895 -0.6695
  448SOL    HW211259   4.135   4.337   2.181 -0.6538  0.4889  1.9576
  449SOL     OW11260   2.681   4.355   2.746 -0.0136  0.4505  0.2418
  449SOL    HW111261   2.722   4.322   2.661  1.5197  1.8242  0.4441
  449SOL    HW211262   2.745   4.414   2.795 -2.8302  4.2954 -0.4082
  450SOL     OW11263   3.792   0.109   0.028 -0.6158 -0.7568 -0.3853
  450SOL    HW111264   3.809   0.018   0.064 -0.4486 -0.5322  0.1092
  450SOL    HW211265   3.710   0.107  -0.030 -2.2897 -0.6494  1.8881
  451SOL     OW11266   3.084   8.355   2.770 -0.0640 -0.0303 -0.3329
  451SOL    HW111267   3.110   8.368   2.675  3.3423  1.4527  0.6943
  451SOL    HW211268   3.127   8.272   2.806  0.4230  0.5472  0.4547
  452SOL     OW11269   1.046   4.215   2.756 -0.5030 -0.1964  0.1435
  452SOL    HW111270   1.050   4.294   2.817 -1.1455  0.7379 -0.9924
  452SOL    HW211271   1.131   4.162   2.764  2.3600  3.5951 -3.0014
  453SOL     OW11272   3.566   7.975   1.201  0.5410 -0.2846  0.4291
  453SOL    HW111273   3.611   8.045   1.145  0.7850  0.0542  1.0515
  453SOL    HW211274   3.524   8.017   1.281  0.2817 -0.7901  0.5635
  454SOL     OW11275   3.048   4.976   0.467  0.3369 -0.3644  0.4400
  454SOL    HW111276   3.108   4.937   0.398  0.1407 -0.8375  0.5303
  454SOL    HW211277   2.957   4.991   0.428  0.4697  0.1965  0.3481
  455SOL     OW11278   3.591   5.303   0.358  1.1211 -0.1179 -0.0838
  455SOL    HW111279   3.664   5.280   0.421 -0.1674 -0.2190  1.4084
  455SOL    HW211280   3.627   5.358   0.283  2.7497 -0.3585  0.5044
  456SOL     OW11281   2.694   6.642   1.335 -0.4212 -0.2265  0.3242
  456SOL    HW111282   2.643   6.556   1.349 -1.2734 -0.1675 -2.2020
  456SOL    HW211283   2.682   6.701   1.415 -1.7274 -1.5214  1.1155
  457SOL     OW11284   4.141   4.121   1.027  0.0678  0.2127 -0.7297
  457SOL    HW111285   4.124   4.219   1.014  2.3077  0.4862 -1.8525
  457SOL    HW211286   4.239   4.104   1.024 -0.2949 -2.0678 -0.3563
  458SOL     OW11287   4.903   3.273   1.312 -0.5012 -0.0463 -0.4890
  458SOL    HW111288   4.919   3.365   1.347 -0.5486 -0.0849 -0.3649
  458SOL    HW211289   4.989   3.222   1.310 -0.3866  0.1720 -1.0513
  459SOL     OW11290   3.713   4.244   0.194  0.7619  0.3250 -0.5622
  459SOL    HW111291   3.788   4.254   0.258  0.3350 -0.0844  0.0059
  459SOL    HW211292   3.627   4.233   0.244  0.6259 -1.5345 -1.1706
  460SOL     OW11293   4.573   3.651   2.594 -0.2854  0.2862 -0.1400
  460SOL    HW111294   4.497   3.665   2.531  0.4470  0.6053 -0.9666
  460SOL    HW211295   4.602   3.555   2.592 -1.4884 -0.1212  1.1363
  461SOL     OW11296   3.510   1.913   0.657 -0.6535  0.0265 -0.6311
  461SOL    HW111297   3.574   1.920   0.734  0.1233  0.8875 -1.3465
  461SOL    HW211298   3.502   2.002   0.612 -2.6722  0.0348 -0.3125
  462SOL     OW11299   2.966   2.660   1.370  0.3709  0.1621 -0.0104
  462SOL    HW111300   2.893   2.672   1.303  1.3658  2.0869 -0.7706
  462SOL    HW211301   2.964   2.735   1.436 -0.1639 -1.3419  1.7618
  463SOL     OW11302   0.322   4.682   2.772  0.0065 -0.6471  0.1373
  463SOL    HW111303   0.390   4.644   2.710  1.3643 -0.0941  1.2544
  463SOL    HW211304   0.338   4.645   2.864  0.6624  1.7500  1.0185
  464SOL     OW11305   2.708   1.422   0.799  0.1911 -0.1178  0.1719
  464SOL    HW111306   2.763   1.494   0.756 -1.1086  0.4815 -0.5156
  464SOL    HW211307   2.620   1.461   0.827 -0.8730 -1.6419 -0.9923
  465SOL     OW11308   2.474   6.438   2.038  0.2192 -0.3762 -0.6843
  465SOL    HW111309   2.507   6.512   2.096  0.2440  0.4493 -1.7377
  465SOL    HW211310   2.424   6.372   2.094  1.3354 -0.2560  0.4727
  466SOL     OW11311   4.341   2.214   0.338 -0.0102  0.3196 -0.6707
  466SOL    HW111312   4.335   2.132   0.281 -2.0125  0.5950 -0.8785
  466SOL    HW211313   4.297   2.197   0.426  2.9516 -0.0515  0.7892
  467SOL     OW11314   3.181   4.632   0.711 -0.1185 -0.1955  1.1166
  467SOL    HW111315   3.137   4.720   0.730 -0.6273  0.2816 -2.1342
  467SOL    HW211316   3.111   4.561   0.705  0.0548 -0.3696  1.1598
  468SOL     OW11317   4.461   2.893   1.070 -0.3095 -0.6873  0.4957
  468SOL    HW111318   4.473   2.967   1.004 -0.9242 -0.5086  0.5893
  468SOL    HW211319   4.417   2.815   1.026 -1.0235 -0.4440  0.7840
  469SOL     OW11320   1.596   4.421   2.357  0.7205  0.2499 -0.5244
  469SOL    HW111321   1.570   4.496   2.418 -0.3955  0.3804 -1.1585
  469SOL    HW211322   1.690   4.393   2.378  0.8248  1.2038  0.3333
  470SOL     OW11323   9.167   5.202   2.707 -0.1958  0.1132  0.1445
  470SOL    HW111324   9.176   5.297   2.679  0.4742  0.9857  3.1191
  470SOL    HW211325   9.214   5.143   2.641 -1.5675  1.7129 -2.3047
  471SOL     OW11326   4.389   1.967   0.154  0.7100 -0.3771  0.8722
  471SOL    HW111327   4.349   1.956   0.063  0.4901  1.7999  0.6902
  471SOL    HW211328   4.359   1.892   0.213 -0.5257 -0.8575 -0.3595
  472SOL     OW11329   2.309   3.773   1.922  1.0542  0.5584 -0.2578
  472SOL    HW111330   2.371   3.697   1.942  0.9297 -0.6056 -3.8343
  472SOL    HW211331   2.220   3.755   1.965  1.2085 -1.0649 -0.5621
  473SOL     OW11332   2.201   1.847   0.501  0.4448  0.7987 -0.5190
  473SOL    HW111333   2.262   1.793   0.559  1.1686  0.6842 -1.3923
  473SOL    HW211334   2.182   1.797   0.416  0.0227  1.3178 -0.7334
  474SOL     OW11335   3.232   6.839   1.170 -0.6257  0.1911 -0.1280
  474SOL    HW111336   3.211   6.857   1.266 -0.6532 -1.1776  0.1413
  474SOL    HW211337   3.309   6.776   1.164  0.4264  1.5294 -1.0414
  475SOL     OW11338   3.942   7.699   0.945  0.0021 -0.7183  0.0156
  475SOL    HW111339   4.018   7.760   0.968  1.0538 -1.5980 -0.9889
  475SOL    HW211340   3.859   7.729   0.991  1.3040 -0.6089  2.3763
  476SOL     OW11341   3.078   7.302   1.190  1.0399 -0.1215 -0.2446
  476SOL    HW111342   3.129   7.278   1.108 -0.5997  0.7883 -1.5701
  476SOL    HW211343   3.112   7.390   1.225  0.7355  0.2413 -0.8404
  477SOL     OW11344   4.451   8.397   0.723  0.1702  0.4279  0.2524
  477SOL    HW111345   4.477   8.399   0.626  0.2855  1.5233  0.3035
  477SOL    HW211346   4.376   8.461   0.738 -0.6917 -0.6646  0.6504
  478SOL     OW11347   1.157   5.933   2.104 -0.0549  0.1048 -0.0668
  478SOL    HW111348   1.180   5.997   2.031 -0.5937  0.5929  0.1875
  478SOL    HW211349   1.188   5.970   2.192  0.7289 -0.5517 -0.0651
  479SOL     OW11350   4.284   4.867   1.439  0.0326 -0.5271 -0.4140
  479SOL    HW111351   4.303   4.936   1.510  1.8323 -1.2878 -0.1245
  479SOL    HW211352   4.346   4.790   1.451 -0.9506 -1.5232 -1.6742
  480SOL     OW11353   0.617   6.008   0.430 -0.4776 -0.1673  0.3219
  480SOL    HW111354   0.620   5.991   0.528  0.8359 -1.0615  0.1438
  480SOL    HW211355   0.701   6.055   0.401  0.7412 -2.9452 -0.8887
  481SOL     OW11356   3.000   3.729   0.153  0.7061 -0.1722 -0.1164
  481SOL    HW111357   3.061   3.651   0.167  0.2601 -0.6321 -0.7186
  481SOL    HW211358   3.046   3.797   0.095  0.8394 -0.2916 -0.1524
  482SOL     OW11359   3.055   4.871   0.719  0.0470 -0.1898 -0.3098
  482SOL    HW111360   2.968   4.821   0.717  0.7756 -1.4376 -1.5483
  482SOL    HW211361   3.065   4.925   0.636  0.2055  0.4139  0.0952
  483SOL     OW11362   0.756   4.305   1.796  0.1573 -0.1563  0.2040
  483SOL    HW111363   0.742   4.305   1.697 -0.5956 -0.5729  0.3055
  483SOL    HW211364   0.689   4.365   1.839  1.8672  1.7271  0.2880
  484SOL     OW11365   3.347   4.323   1.447 -0.5263  0.1382  0.4152
  484SOL    HW111366   3.398   4.291   1.366 -2.1501  0.5885 -0.8147
  484SOL    HW211367   3.344   4.250   1.515 -0.1738 -0.6765 -0.4264
  485SOL     OW11368   2.520   2.289   2.321 -0.3039  0.4048  0.0770
  485SOL    HW111369   2.474   2.273   2.408  1.4717  1.6184  1.2955
  485SOL    HW211370   2.572   2.208   2.295 -0.5415  0.1639  0.3587
  486SOL     OW11371   2.937   7.438   1.736 -0.0067  0.4185  0.6319
  486SOL    HW111372   2.998   7.431   1.657  1.2471 -1.9015  1.7640
  486SOL    HW211373   2.843   7.417   1.707  0.5584 -1.1670 -0.1132
  487SOL     OW11374   3.321   9.154   1.671  0.3251 -0.0869  0.4203
  487SOL    HW111375   3.263   9.074   1.689  2.3890 -2.2310 -2.0738
  487SOL    HW211376   3.275   9.215   1.607 -1.0439  0.5009  1.9291
  488SOL     OW11377   1.441   4.904   1.957  0.5267  0.0288 -0.1777
  488SOL    HW111378   1.355   4.852   1.959  0.7685 -0.3709 -0.2021
  488SOL    HW211379   1.433   4.979   1.891 -0.3239  0.8943  0.8912
  489SOL     OW11380   1.970   5.469   2.213  0.5203 -0.2454 -0.2077
  489SOL    HW111381   1.940   5.547   2.158 -0.5848 -1.5946 -1.5354
  489SOL    HW211382   1.993   5.392   2.154 -0.6668 -1.7191  1.1825
  490SOL     OW11383   1.908   4.979   0.116 -0.1061  0.2101  0.3144
  490SOL    HW111384   1.857   4.898   0.087  1.0213  0.1915 -1.7398
  490SOL    HW211385   1.855   5.061   0.092  1.0535  0.2105 -2.3771
  491SOL     OW11386   1.076   5.849   1.022  0.0354  0.1263  0.0523
  491SOL    HW111387   1.012   5.882   0.952  0.7930 -1.5566 -1.4552
  491SOL    HW211388   1.133   5.925   1.053 -0.4521  0.9321 -1.0006
  492SOL     OW11389   4.395   3.706   0.662 -0.0381  0.0375 -0.2210
  492SOL    HW111390   4.350   3.633   0.611 -0.0694  0.4578 -0.8019
  492SOL    HW211391   4.352   3.794   0.641  1.3925  0.5273 -1.2079
  493SOL     OW11392   2.962   0.631   1.555 -0.5583  0.3596 -0.1019
  493SOL    HW111393   2.920   0.703   1.499 -3.0257  0.7193  2.0863
  493SOL    HW211394   2.895   0.557   1.569  1.0056 -1.0592 -0.0161
  494SOL     OW11395   4.205   3.459   2.279  0.1475  0.4057  0.0760
  494SOL    HW111396   4.110   3.456   2.313 -0.0442 -0.8152 -0.5488
  494SOL    HW211397   4.209   3.514   2.196 -0.3180 -0.9091 -0.8276
  495SOL     OW11398   4.038   9.245   0.321 -0.0846 -0.0281 -0.1638
  495SOL    HW111399   4.073   9.236   0.414  0.8844  1.1173 -0.4031
  495SOL    HW211400   4.059   9.163   0.269 -1.3146 -0.9992  0.8324
  496SOL     OW11401   1.157   5.640   2.154  0.1213  0.4297  0.1292
  496SOL    HW111402   1.184   5.736   2.148 -0.5455  0.6636  0.8242
  496SOL    HW211403   1.087   5.629   2.225 -0.8337 -0.3359 -0.8978
  497SOL     OW11404   2.040   3.816   1.532  0.0228  0.5029 -0.4536
  497SOL    HW111405   2.140   3.816   1.536 -0.0080 -1.8803  0.9889
  497SOL    HW211406   2.003   3.864   1.612 -0.0092  0.7626 -0.6221
  498SOL     OW11407   3.714   1.903   1.656  0.2503 -0.0554 -0.2986
  498SOL    HW111408   3.688   1.883   1.750  1.5592 -1.1360 -0.1424
  498SOL    HW211409   3.725   2.002   1.644  1.0532  0.0188  0.9586
  499SOL     OW11410   2.800   7.710   2.437  0.4502  0.1516  0.3021
  499SOL    HW111411   2.782   7.614   2.416 -1.5766  0.6214 -0.2084
  499SOL    HW211412   2.841   7.754   2.357  3.5861 -0.7947  1.2975
  500SOL     OW11413   2.685   2.245   1.023  0.1589 -0.2408  0.1317
  500SOL    HW111414   2.761   2.303   0.993 -0.6590  0.9495  0.3461
  500SOL    HW211415   2.721   2.155   1.048  1.4629  0.2121 -0.0352
  501SOL     OW11416   3.913   8.998   1.941  0.4489  0.1877  0.5640
  501SOL    HW111417   3.883   9.093   1.946 -2.9270 -0.7781  0.0672
  501SOL    HW211418   3.853   8.941   1.998  2.1073 -1.7118  0.4527
  502SOL     OW11419   1.932   4.803   2.032 -0.6207 -0.0940 -0.2157
  502SOL    HW111420   1.967   4.727   2.087  1.5845  2.0228  1.4351
  502SOL    HW211421   1.887   4.870   2.092 -3.3572 -0.4851 -1.7519
  503SOL     OW11422   0.841   4.021   2.755 -0.1596 -0.1956  0.0665
  503SOL    HW111423   0.779   4.044   2.681  0.7301  0.4988 -0.4759
  503SOL    HW211424   0.891   4.103   2.784 -1.5192 -0.1341  2.3975
  504SOL     OW11425   3.441   6.251   2.679  0.1892 -0.3699 -0.1647
  504SOL    HW111426   3.488   6.305   2.748 -0.1235  1.5141 -1.3994
  504SOL    HW211427   3.380   6.309   2.625 -2.1145 -2.4076  0.1236
  505SOL     OW11428   4.009   0.073   1.260 -0.3856  0.0441 -0.3401
  505SOL    HW111429   3.976   0.008   1.328  0.2362 -0.1974 -0.2682
  505SOL    HW211430   3.961   0.160   1.272  0.2284  0.2260  0.8650
  506SOL     OW11431   3.498   5.593   1.410  0.2229  0.7463  0.3845
  506SOL    HW111432   3.450   5.677   1.432  0.3533  0.3993  2.0271
  506SOL    HW211433   3.594   5.612   1.393  0.5369  0.7583  2.1048
  507SOL     OW11434   3.244   0.779   1.020 -0.1419 -0.0432  0.2771
  507SOL    HW111435   3.205   0.858   1.067  1.9097  1.2951 -0.1669
  507SOL    HW211436   3.219   0.782   0.923 -1.2412 -0.7204  0.5402
  508SOL     OW11437   2.733   6.498   1.621 -0.0411  0.2231  0.4910
  508SOL    HW111438   2.739   6.507   1.720 -0.1710  1.7303  0.3688
  508SOL    HW211439   2.825   6.496   1.581 -0.0096  0.7552  0.5408
  509SOL     OW11440   2.830   0.815   2.409 -0.4545 -0.0896  0.0813
  509SOL    HW111441   2.753   0.750   2.403 -1.6190  1.2137  0.6107
  509SOL    HW211442   2.916   0.765   2.402 -1.3597 -1.4211 -1.9378
  510SOL     OW11443   2.697   1.947   0.520  0.3751 -0.3039  0.5459
  510SOL    HW111444   2.752   1.867   0.546  1.7405 -0.1044 -1.6666
  510SOL    HW211445   2.644   1.925   0.438  0.9799  1.1775 -0.2441
  511SOL     OW11446   2.662   5.960   1.516 -0.3450  0.1821 -0.0071
  511SOL    HW111447   2.709   5.956   1.428 -1.7387 -2.2477 -0.6988
  511SOL    HW211448   2.704   6.030   1.574  2.1850  0.0858 -1.6640
  512SOL     OW11449   2.432   7.159   1.311 -0.0471  0.2256 -0.0903
  512SOL    HW111450   2.455   7.068   1.277  0.3091 -0.8419  2.8348
  512SOL    HW211451   2.401   7.152   1.406 -1.3620  3.0090 -0.2768
  513SOL     OW11452   3.677   0.749   0.036  0.2402 -0.3010  0.0865
  513SOL    HW111453   3.582   0.719   0.030 -0.1715  0.6774  1.2732
  513SOL    HW211454   3.734   0.674   0.068 -0.7156  0.0491  2.7426
  514SOL     OW11455   2.859   8.369   0.614  0.2363  0.6865 -0.3177
  514SOL    HW111456   2.928   8.370   0.541 -1.2595 -3.9101 -2.0365
  514SOL    HW211457   2.768   8.381   0.574 -0.2806  3.0776  1.4787
  515SOL     OW11458   3.910   1.225   0.150 -0.4046  0.0960  0.4078
  515SOL    HW111459   3.981   1.263   0.090 -0.9107  0.6467  0.1554
  515SOL    HW211460   3.923   1.126   0.158 -0.1093  0.0718 -0.3115
  516SOL     OW11461   2.997   6.744   1.560  0.4704  0.0712  0.1091
  516SOL    HW111462   3.004   6.646   1.538 -1.3288 -0.4705  1.7732
  516SOL    HW211463   3.029   6.759   1.653 -0.2894  0.8952  0.2392
  517SOL     OW11464   3.965   2.561   0.784  0.1394  0.0310  0.0344
  517SOL    HW111465   3.867   2.542   0.795  0.1192  0.4750  0.6500
  517SOL    HW211466   3.980   2.660   0.788  0.6947 -0.0740  0.6097
  518SOL     OW11467   3.770   4.343   1.840  0.5304  0.0342  0.7219
  518SOL    HW111468   3.703   4.333   1.913 -0.8083 -0.3039 -0.5150
  518SOL    HW211469   3.792   4.253   1.802  0.7327  0.2583  0.2980
  519SOL     OW11470   3.637   4.863   0.048 -0.3848  0.4662  0.0725
  519SOL    HW111471   3.695   4.904   0.118 -0.6342  2.2941 -0.7454
  519SOL    HW211472   3.649   4.764   0.048  2.5937  0.7804  0.0606
  520SOL     OW11473   4.310   5.019   0.378 -0.1074 -0.1664 -0.1558
  520SOL    HW111474   4.379   4.952   0.351 -1.2394 -1.0275 -0.9645
  520SOL    HW211475   4.287   5.076   0.299  1.6856  1.9652  0.8045
  521SOL     OW11476   0.781   5.701   1.674  0.3287  0.4560 -0.2675
  521SOL    HW111477   0.729   5.694   1.759 -1.3241 -2.4749 -1.4280
  521SOL    HW211478   0.877   5.720   1.695 -0.4150  1.8595  2.1100
  522SOL     OW11479   3.227   7.861   0.331 -0.0342 -0.0581 -0.7910
  522SOL    HW111480   3.286   7.781   0.341  0.7899  0.3473 -2.2047
  522SOL    HW211481   3.193   7.866   0.237 -0.1767  1.1818 -0.6843
  523SOL     OW11482   4.030   3.889   2.694  0.3507 -0.6564  0.3182
  523SOL    HW111483   3.945   3.930   2.726  1.4644 -0.5180  3.2596
  523SOL    HW211484   4.010   3.821   2.624 -2.3786 -1.8728  2.1798
  524SOL     OW11485   3.560   0.935   1.834 -0.0306  0.2122 -0.2698
  524SOL    HW111486   3.538   0.839   1.815  0.2578 -0.5050  2.7279
  524SOL    HW211487   3.498   0.970   1.903  0.0878  2.1147 -1.1000
  525SOL     OW11488   4.576   1.341   1.405  0.4601 -0.0286  0.1545
  525SOL    HW111489   4.541   1.390   1.486 -0.7165 -1.5424  0.5766
  525SOL    HW211490   4.541   1.385   1.322 -2.8618 -1.7470  0.5670
  526SOL     OW11491   4.398   0.757   1.163 -0.1845  0.2492  0.2301
  526SOL    HW111492   4.397   0.672   1.216 -0.7544 -0.3268 -0.7025
  526SOL    HW211493   4.314   0.765   1.109  0.2125  1.0257 -0.2941
  527SOL     OW11494   3.823   3.588   0.731 -0.0690  0.5012  0.5900
  527SOL    HW111495   3.834   3.490   0.746  1.7171  0.7968  1.4367
  527SOL    HW211496   3.900   3.623   0.676 -0.5511  1.4599  0.5055
  528SOL     OW11497   1.631   4.887   2.407 -0.8059 -0.0549 -0.6262
  528SOL    HW111498   1.550   4.946   2.413 -2.6157 -2.2782 -2.4391
  528SOL    HW211499   1.616   4.804   2.459  1.8298  1.0687  2.1050
  529SOL     OW11500   0.465   4.331   2.144  0.1733  0.4329 -0.1316
  529SOL    HW111501   0.493   4.298   2.234 -0.4928  1.5905  0.5126
  529SOL    HW211502   0.365   4.343   2.143  0.2189  0.7628 -0.9124
  530SOL     OW11503   1.140   3.666   0.456  0.6657  0.2815  0.5608
  530SOL    HW111504   1.105   3.707   0.540 -3.6343 -1.9576  0.0480
  530SOL    HW211505   1.202   3.591   0.478 -0.0820  0.0056  1.7497
  531SOL     OW11506   2.596   7.676   1.541 -0.2692  0.2996 -0.1523
  531SOL    HW111507   2.501   7.681   1.570  0.1230 -0.9159  1.4844
  531SOL    HW211508   2.654   7.726   1.606  0.3561 -0.2280 -0.2908
  532SOL     OW11509   5.026   2.940   0.779  0.4172  0.3328 -0.3714
  532SOL    HW111510   5.064   2.847   0.776 -2.1144 -0.7450  0.1933
  532SOL    HW211511   4.934   2.938   0.818 -0.1254  2.9433 -1.3926
  533SOL     OW11512   3.104   7.105   2.282 -0.6238  0.0864  0.0794
  533SOL    HW111513   3.113   7.196   2.243  0.2926 -0.1412 -0.2562
  533SOL    HW211514   3.007   7.080   2.287 -0.9348  1.4444  1.0580
  534SOL     OW11515   1.762   1.994   0.332  0.2299 -0.4288 -0.2323
  534SOL    HW111516   1.819   2.046   0.395  0.5127 -3.1752  1.8631
  534SOL    HW211517   1.816   1.922   0.290 -1.0451 -1.3960 -0.2305
  535SOL     OW11518   3.942   8.426   2.831 -0.4433 -0.3430  0.5279
  535SOL    HW111519   3.988   8.514   2.843 -0.6575 -0.4678  2.5828
  535SOL    HW211520   3.864   8.421   2.894 -1.3462 -1.4019 -0.6517
  536SOL     OW11521   3.582   1.020   2.829 -0.4876 -0.5828 -0.2155
  536SOL    HW111522   3.484   1.006   2.822 -0.4668 -0.6135 -0.4499
  536SOL    HW211523   3.626   0.935   2.858 -0.5910 -0.4106  0.4567
  537SOL     OW11524   3.708   5.076   1.530  0.2276  0.1154  0.1730
  537SOL    HW111525   3.654   5.038   1.605  0.0922  2.5119  1.3394
  537SOL    HW211526   3.649   5.091   1.451  0.0153 -0.8536  0.1391
  538SOL     OW11527   4.242   8.641   2.661 -0.3428  0.2779  0.5266
  538SOL    HW111528   4.145   8.644   2.635 -0.2495  0.0635  0.1498
  538SOL    HW211529   4.264   8.720   2.719 -0.9948 -0.2366  1.4896
  539SOL     OW11530   3.163   4.474   2.260  0.1095 -0.4562 -0.9181
  539SOL    HW111531   3.135   4.383   2.229 -1.0962 -0.7229  0.8319
  539SOL    HW211532   3.119   4.493   2.348  0.2799  1.8682 -1.3174
  540SOL     OW11533   2.579   4.115   2.305 -0.4688  0.8496  0.0894
  540SOL    HW111534   2.536   4.026   2.293 -1.3549  1.2539  0.2173
  540SOL    HW211535   2.535   4.164   2.381 -0.4391  1.6653 -0.4110
  541SOL     OW11536   2.706   3.137   1.082  0.2248 -0.5380  0.3774
  541SOL    HW111537   2.631   3.118   1.146  0.0765 -0.5165  0.2105
  541SOL    HW211538   2.681   3.105   0.991 -1.0603  2.6356 -0.4708
  542SOL     OW11539   4.002   3.714   1.864  0.0686 -1.2717  1.0098
  542SOL    HW111540   3.950   3.654   1.804 -0.7924 -0.5511  1.0372
  542SOL    HW211541   3.963   3.711   1.956 -1.6908  1.3942  0.4099
  543SOL     OW11542   0.266   5.598   0.735  0.0212 -0.1288 -0.1064
  543SOL    HW111543   0.176   5.560   0.755 -0.1179  0.5416  0.5678
  543SOL    HW211544   0.311   5.623   0.820 -0.1374  1.7701 -0.5494
  544SOL     OW11545   4.482   3.990   0.320  0.0317  0.1135  0.0822
  544SOL    HW111546   4.477   3.965   0.223  0.9331 -1.1432  0.3454
  544SOL    HW211547   4.553   3.936   0.365  0.2632  1.3631  1.2493
  545SOL     OW11548   2.912   0.984   1.636  0.0570 -0.0091 -0.2688
  545SOL    HW111549   2.900   1.077   1.600 -0.4127 -0.2012 -0.6138
  545SOL    HW211550   2.986   0.939   1.586  0.7764  0.4248  0.3881
  546SOL     OW11551   9.403   5.416   1.108  0.1936 -0.3217  0.3189
  546SOL    HW111552   9.432   5.369   1.191  0.0755  0.1721  0.6432
  546SOL    HW211553   9.346   5.495   1.132 -2.4064 -1.9413 -0.3458
  547SOL     OW11554   3.679   3.667   0.277 -0.3376  0.7613  0.1156
  547SOL    HW111555   3.697   3.728   0.355  2.0602 -1.2351  1.2151
  547SOL    HW211556   3.595   3.616   0.293  0.0054  0.5475  1.2895
  548SOL     OW11557   2.343   6.461   0.042  0.8712  0.8083 -0.0033
  548SOL    HW111558   2.298   6.539  -0.000 -0.6557  0.5953  1.1824
  548SOL    HW211559   2.440   6.481   0.053  1.3996  0.7464 -3.8433
  549SOL     OW11560   3.748   0.647   2.414 -0.2575 -0.1948  0.6727
  549SOL    HW111561   3.801   0.658   2.498  0.0247  0.0197  0.4671
  549SOL    HW211562   3.695   0.730   2.397 -0.1020 -0.1346  0.4897
  550SOL     OW11563   3.287   1.068   2.747  0.0238  0.2666 -0.8306
  550SOL    HW111564   3.247   1.159   2.748  0.2671  0.3676 -0.0284
  550SOL    HW211565   3.295   1.037   2.652  1.6906  1.8594 -1.2490
  551SOL     OW11566   1.797   4.065   2.225 -0.5202  0.2664 -0.4458
  551SOL    HW111567   1.836   4.138   2.169 -0.6739  0.7708  0.0907
  551SOL    HW211568   1.712   4.098   2.266 -2.8740 -1.6446 -3.5826
  552SOL     OW11569   4.002   8.395   2.484  0.7169 -0.0488  0.0898
  552SOL    HW111570   3.951   8.310   2.489 -0.0658  0.5135  2.2800
  552SOL    HW211571   4.037   8.419   2.575  1.9281  1.3509 -0.7148
  553SOL     OW11572   4.055   1.199   2.118 -0.2520  0.1711 -0.2240
  553SOL    HW111573   4.138   1.253   2.101  0.2636 -0.1308  1.2648
  553SOL    HW211574   3.981   1.233   2.060  1.4150 -0.8260 -3.0368
  554SOL     OW11575   2.132   6.010   1.290 -0.0539  0.4419  0.0984
  554SOL    HW111576   2.094   5.940   1.230  1.4732  2.0108 -2.8222
  554SOL    HW211577   2.101   5.994   1.384 -3.3699 -1.4867 -1.2263
  555SOL     OW11578   3.864   0.389   1.135 -0.3719  0.5596  0.1112
  555SOL    HW111579   3.936   0.430   1.079  1.3632  0.0379  1.9379
  555SOL    HW211580   3.884   0.403   1.232 -1.4205 -1.7548  0.6948
  556SOL     OW11581   2.536   4.379   0.782 -0.0644 -0.3802 -0.3510
  556SOL    HW111582   2.487   4.324   0.714 -1.8056  1.5966 -0.7646
  556SOL    HW211583   2.481   4.387   0.865 -0.1740  1.3283 -0.5700
  557SOL     OW11584   1.507   4.849   1.136  0.3049 -0.2757  0.1411
  557SOL    HW111585   1.557   4.858   1.222 -0.6576  1.2187  0.5502
  557SOL    HW211586   1.466   4.758   1.131  0.6116 -0.4716  1.1208
  558SOL     OW11587   4.612   0.836   2.827  0.5435 -0.2009  0.1055
  558SOL    HW111588   4.596   0.926   2.868 -2.4387 -0.3389 -0.6807
  558SOL    HW211589   4.616   0.845   2.728 -3.7002 -1.4210 -0.2410
  559SOL     OW11590   2.823   0.370   1.622 -0.2797  0.1699 -0.6044
  559SOL    HW111591   2.893   0.299   1.613 -1.2106 -0.7017 -0.9713
  559SOL    HW211592   2.746   0.349   1.563 -1.5692  0.2680  1.0063
  560SOL     OW11593   2.762   3.969   2.810  0.0796 -0.2162 -0.1480
  560SOL    HW111594   2.777   3.883   2.858  0.6012 -0.8593 -1.4379
  560SOL    HW211595   2.820   3.972   2.729  0.0096  1.3245 -0.1414
  561SOL     OW11596   4.720   3.202   0.721  0.9045  0.1135  0.4014
  561SOL    HW111597   4.642   3.168   0.773  1.5325  0.7614  1.7725
  561SOL    HW211598   4.790   3.237   0.783  1.9365  0.3217 -0.8448
  562SOL     OW11599   3.665   8.631   0.072 -0.0635 -0.0311  0.0792
  562SOL    HW111600   3.671   8.542   0.117 -0.8453  0.5486  1.3619
  562SOL    HW211601   3.622   8.620  -0.018 -2.5140 -0.6232  1.2660
  563SOL     OW11602   2.568   8.299   1.205 -0.1073  0.2908 -0.0286
  563SOL    HW111603   2.517   8.374   1.162 -0.2123  0.5918  0.6100
  563SOL    HW211604   2.664   8.303   1.176 -0.3563 -0.0437 -0.9252
  564SOL     OW11605   0.857   4.743   1.342  0.0195  0.3460 -0.2200
  564SOL    HW111606   0.822   4.761   1.434  0.8195 -0.9320  0.3646
  564SOL    HW211607   0.914   4.819   1.313  1.4868 -0.1399  1.2454
  565SOL     OW11608   3.454   4.288   0.330 -0.5721 -0.3614 -0.3874
  565SOL    HW111609   3.457   4.313   0.427 -1.1164  2.2743 -1.0088
  565SOL    HW211610   3.389   4.213   0.316 -0.8049 -0.4637  1.2099
  566SOL     OW11611   1.294   2.900   1.348 -0.8844 -0.0958  0.1552
  566SOL    HW111612   1.195   2.906   1.362 -0.7197  0.2811  1.2360
  566SOL    HW211613   1.335   2.849   1.424 -0.0283  1.3409  0.6700
  567SOL     OW11614   1.870   4.120   0.504  0.5029 -0.4053  0.0229
  567SOL    HW111615   1.887   4.195   0.441 -0.2742 -1.7614 -1.8155
  567SOL    HW211616   1.772   4.101   0.510  0.5926 -0.5475  1.3490
  568SOL     OW11617   9.047   8.573   0.443 -0.0564 -0.0757 -0.5268
  568SOL    HW111618   9.113   8.511   0.487  1.0986  1.2584 -0.3580
  568SOL    HW211619   8.965   8.579   0.499  1.6535  2.1227  1.8592
  569SOL     OW11620   2.162   4.120   1.490 -0.2354 -0.5674 -0.3968
  569SOL    HW111621   2.152   4.051   1.418  0.8767 -1.5210  0.3597
  569SOL    HW211622   2.183   4.076   1.576  0.0457  0.6983  0.1992
  570SOL     OW11623   4.112   2.921   0.410  0.4178 -0.5013 -0.1100
  570SOL    HW111624   4.106   3.000   0.349  0.4953 -0.7612 -0.4592
  570SOL    HW211625   4.148   2.842   0.358  1.7004 -0.3854  0.5789
  571SOL     OW11626   2.233   2.877   0.638  0.2081  1.1476 -0.3423
  571SOL    HW111627   2.296   2.847   0.566  0.3105  1.3709 -0.3478
  571SOL    HW211628   2.274   2.859   0.727  0.6824  2.1264 -0.3521
  572SOL     OW11629   2.363   7.041   0.431 -0.2834  0.1410 -0.6397
  572SOL    HW111630   2.288   7.062   0.494 -1.7713  1.2093 -2.6958
  572SOL    HW211631   2.335   6.969   0.368  0.6589  0.1043 -1.0263
  573SOL     OW11632   2.823   3.897   1.875  0.2464  0.0355  0.1625
  573SOL    HW111633   2.783   3.854   1.957  0.8844 -0.9434 -0.0382
  573SOL    HW211634   2.793   3.992   1.870  1.4184  0.5558  2.3669
  574SOL     OW11635   2.928   0.881   0.262 -0.0121  0.2285  0.1341
  574SOL    HW111636   2.995   0.954   0.275 -0.1730  0.3754  0.1462
  574SOL    HW211637   2.838   0.913   0.290 -0.1307  0.1141 -0.1108
  575SOL     OW11638   2.399   7.106   2.055 -0.5470 -0.2448  0.9468
  575SOL    HW111639   2.439   7.195   2.034 -0.0195 -0.6555  0.2086
  575SOL    HW211640   2.438   7.036   1.996  0.5129 -1.3260  2.8734
  576SOL     OW11641   4.890   1.785   2.443  0.6685  0.6661 -0.7070
  576SOL    HW111642   4.817   1.841   2.483  0.5244  0.3313 -0.4937
  576SOL    HW211643   4.978   1.827   2.462  0.6785 -0.0739  0.9310
  577SOL     OW11644   2.710   1.719   0.779 -0.4950  0.7655 -0.3216
  577SOL    HW111645   2.774   1.783   0.821 -0.8980  1.3313 -0.5740
  577SOL    HW211646   2.667   1.663   0.850 -0.8113  1.3886 -0.0217
  578SOL     OW11647   3.747   0.680   1.999  0.6813  0.3998  0.7878
  578SOL    HW111648   3.804   0.621   2.056 -0.1964 -1.9056 -0.6466
  578SOL    HW211649   3.800   0.710   1.920  0.8198  0.6916  0.9922
  579SOL     OW11650   1.539   3.772   2.128 -0.4704 -0.4636  0.4222
  579SOL    HW111651   1.595   3.831   2.068 -0.1462 -0.2452  0.9361
  579SOL    HW211652   1.593   3.693   2.156 -1.2829 -1.6402 -1.2185
  580SOL     OW11653   4.139   1.619   2.533  0.0380  0.2815  0.5042
  580SOL    HW111654   4.082   1.680   2.478  0.9949  0.8243  0.1054
  580SOL    HW211655   4.119   1.524   2.508 -0.2742  0.4860 -0.0336
  581SOL     OW11656   1.339   3.227   1.248  0.3677 -0.0920 -0.7379
  581SOL    HW111657   1.340   3.264   1.341  0.0909  0.4715 -0.9570
  581SOL    HW211658   1.341   3.127   1.252  1.4691 -0.0484 -0.1516
  582SOL     OW11659   1.712   3.073   2.444  0.0157  0.2730  0.8873
  582SOL    HW111660   1.766   3.002   2.399 -0.8137  0.8608 -1.0650
  582SOL    HW211661   1.737   3.163   2.407 -4.4942  0.3021 -2.3811
  583SOL     OW11662   1.310   5.345   1.751 -0.5813 -0.5751 -0.6102
  583SOL    HW111663   1.353   5.360   1.662 -1.1093  0.7589 -0.6582
  583SOL    HW211664   1.256   5.425   1.775 -1.6675 -1.5444  0.2229
  584SOL     OW11665   4.138   1.547   1.926  0.3608  0.4862 -0.4684
  584SOL    HW111666   4.181   1.608   1.860 -1.9246  1.7437 -0.8360
  584SOL    HW211667   4.040   1.562   1.927  0.0033 -1.6248  1.0811
  585SOL     OW11668   3.991   3.091   1.671 -0.2213 -0.4465  0.0734
  585SOL    HW111669   4.024   3.130   1.757 -0.2152 -1.3568  0.4953
  585SOL    HW211670   3.892   3.082   1.675 -0.0086 -2.9801  1.0869
  586SOL     OW11671   1.567   4.151   2.295  0.8011 -0.2927 -0.2685
  586SOL    HW111672   1.545   4.240   2.336 -0.4948 -0.7215  0.0094
  586SOL    HW211673   1.535   4.149   2.200  0.0342 -0.7577 -0.0067
  587SOL     OW11674   3.044   9.685   1.986  0.5390 -0.3603  0.6050
  587SOL    HW111675   3.033   9.784   1.991  0.4165 -0.4464  2.7223
  587SOL    HW211676   3.125   9.663   1.932 -0.1918  0.8368 -1.0103
  588SOL     OW11677   2.463   7.077   2.455 -0.2284 -0.5611 -0.2730
  588SOL    HW111678   2.440   7.172   2.474 -1.1390 -0.8472  0.0961
  588SOL    HW211679   2.403   7.042   2.383  0.7407 -0.5787 -1.0897
  589SOL     OW11680   1.568   6.331   1.701  0.2072  0.3149 -0.5056
  589SOL    HW111681   1.609   6.270   1.634 -0.0842  0.4602 -0.8157
  589SOL    HW211682   1.515   6.277   1.767  1.7657  0.0196  0.5308
  590SOL     OW11683   3.185   9.139   2.302  0.0047 -0.1393 -0.2174
  590SOL    HW111684   3.170   9.080   2.382 -0.9282 -0.0975 -0.3588
  590SOL    HW211685   3.262   9.200   2.320  0.4848 -0.8771  0.2282
  591SOL     OW11686   3.087   9.433   1.183  0.2205 -0.0375  0.1496
  591SOL    HW111687   3.109   9.512   1.240 -1.3755 -0.5411  1.5322
  591SOL    HW211688   3.001   9.450   1.134  0.0186 -0.7959  0.2310
  592SOL     OW11689   2.108   3.098   0.846  0.1267 -0.1809  0.6161
  592SOL    HW111690   2.100   3.181   0.790  1.9452 -1.2845 -1.3639
  592SOL    HW211691   2.200   3.094   0.886 -0.5634 -0.3292  2.2247
  593SOL     OW11692   2.809   8.325   1.103 -0.2674 -0.5027 -0.5716
  593SOL    HW111693   2.865   8.351   1.182  0.3897  0.6410 -1.4151
  593SOL    HW211694   2.846   8.242   1.062 -0.6682 -1.1602  0.3755
  594SOL     OW11695   1.821   3.228   2.238 -0.1658  0.3747  0.1777
  594SOL    HW111696   1.859   3.136   2.231 -2.3186 -0.4296 -1.6677
  594SOL    HW211697   1.881   3.293   2.192  0.5112 -0.3824 -0.0161
  595SOL     OW11698   2.091   3.228   1.937  0.3106  0.0276 -0.0329
  595SOL    HW111699   2.178   3.184   1.959 -0.3034 -0.5706  1.3237
  595SOL    HW211700   2.064   3.288   2.012  0.2650  1.3717 -1.1000
  596SOL     OW11701   2.788   3.156   0.628  0.1733  0.2996 -0.7318
  596SOL    HW111702   2.763   3.081   0.688  0.8173  0.2897 -0.4784
  596SOL    HW211703   2.740   3.239   0.656  1.5345  0.6353  0.6604
  597SOL     OW11704   1.490   3.240   0.261 -0.1284 -0.1700 -0.2863
  597SOL    HW111705   1.587   3.220   0.275  0.6883  4.2959  1.4677
  597SOL    HW211706   1.480   3.308   0.188 -1.6861  0.9854  0.9576
  598SOL     OW11707   4.707   1.829   1.655 -0.1807 -0.1523  0.2809
  598SOL    HW111708   4.702   1.746   1.711 -1.7008 -0.2057  0.0922
  598SOL    HW211709   4.720   1.803   1.559  0.0166 -0.1500  0.3072
  599SOL     OW11710   2.807   2.711   2.331 -0.2672  0.4357  0.0307
  599SOL    HW111711   2.861   2.627   2.326  1.6395  1.5118  1.8843
  599SOL    HW211712   2.710   2.687   2.328  0.2458 -1.7570 -0.3881
  600SOL     OW11713   3.356   3.619   1.036 -0.1582  0.1042  0.5008
  600SOL    HW111714   3.304   3.560   0.973  0.6555  1.2269 -1.2679
  600SOL    HW211715   3.330   3.598   1.130 -1.9675 -1.1054 -0.2307
  601SOL     OW11716   2.628   5.975   2.755  0.5599  0.3181  0.0803
  601SOL    HW111717   2.690   5.999   2.830 -0.2175 -1.3900  1.3031
  601SOL    HW211718   2.676   5.915   2.691  0.8047  0.7026 -0.1042
  602SOL     OW11719   3.458   7.703   1.024 -0.1094 -0.8987  0.0148
  602SOL    HW111720   3.425   7.774   0.963 -1.0586 -1.3340  0.0076
  602SOL    HW211721   3.397   7.696   1.103 -0.5770 -2.3347 -0.4554
  603SOL     OW11722   4.254   2.216   0.881 -0.2862  0.5087  0.2756
  603SOL    HW111723   4.331   2.265   0.840 -1.3511  1.4612 -0.6384
  603SOL    HW211724   4.169   2.245   0.836 -1.1738 -0.5140  1.2767
  604SOL     OW11725   1.882   4.763   1.354 -0.0893 -0.3225 -0.0599
  604SOL    HW111726   1.912   4.829   1.423 -0.9248 -0.2341  0.2220
  604SOL    HW211727   1.957   4.746   1.290 -0.7457  3.1163 -1.8796
  605SOL     OW11728   1.249   4.035   2.794  0.5851  0.0873 -0.1518
  605SOL    HW111729   1.340   4.065   2.765  0.3523  0.5721 -0.3825
  605SOL    HW211730   1.207   3.979   2.723  0.2557  0.7829 -0.5103
  606SOL     OW11731   3.446   4.199   1.705  0.0603  0.1098  0.3312
  606SOL    HW111732   3.509   4.125   1.729 -0.2165  0.2263  1.4425
  606SOL    HW211733   3.422   4.250   1.787 -1.4937  0.0736 -0.0818
  607SOL     OW11734   4.322   0.589   0.419  0.2013  0.5770  0.2896
  607SOL    HW111735   4.298   0.685   0.430 -1.1448  0.5594 -2.1574
  607SOL    HW211736   4.421   0.578   0.426  0.4483  2.2977 -0.4028
  608SOL     OW11737   4.983   3.121   0.313 -0.5953  0.1495 -0.2572
  608SOL    HW111738   5.068   3.069   0.326 -0.3114  0.6166 -0.2443
  608SOL    HW211739   5.003   3.219   0.318 -1.4243  0.2459  1.6060
  609SOL     OW11740   2.136   6.783   1.264  0.5611  0.3016 -0.2737
  609SOL    HW111741   2.145   6.883   1.262 -1.5738  0.4945 -0.7327
  609SOL    HW211742   2.070   6.754   1.195  0.3379 -1.3446  0.6091
  610SOL     OW11743   3.561   2.579   2.166  0.0005 -0.2073 -0.1993
  610SOL    HW111744   3.501   2.630   2.105  0.3165  1.0259  0.4807
  610SOL    HW211745   3.656   2.609   2.151  0.1870 -0.5905  0.2084
  611SOL     OW11746   0.254   5.038   2.346  0.0119  0.0129  0.5620
  611SOL    HW111747   0.242   4.947   2.385 -2.9887 -0.3606 -1.0657
  611SOL    HW211748   0.258   5.031   2.246  1.8239  1.4988  0.4915
  612SOL     OW11749   3.886   4.542   0.844 -0.1211 -0.2914  0.4114
  612SOL    HW111750   3.826   4.502   0.914 -0.1640  0.0717  0.5845
  612SOL    HW211751   3.924   4.628   0.878  0.6528 -0.6226  0.3704
  613SOL     OW11752   1.426   6.266   1.019 -0.1011  0.0270  0.5156
  613SOL    HW111753   1.388   6.276   0.927  0.5923  1.1848  0.3505
  613SOL    HW211754   1.519   6.302   1.021 -0.5488  1.1467  1.9750
  614SOL     OW11755   4.324   5.015   2.785  0.8109 -0.2497  0.1205
  614SOL    HW111756   4.394   5.079   2.815 -0.2306  2.3345 -2.6425
  614SOL    HW211757   4.234   5.047   2.816  0.4486 -1.3426  0.2188
  615SOL     OW11758   2.593   7.256   1.921  0.5358 -0.0858 -0.5385
  615SOL    HW111759   2.668   7.289   1.979  0.7548 -0.3032 -0.6979
  615SOL    HW211760   2.624   7.176   1.870  0.3191  0.0690 -0.9090
  616SOL     OW11761   4.452   3.811   2.271 -0.2021  0.5771  0.0459
  616SOL    HW111762   4.408   3.756   2.342  1.2944  0.5436  0.9589
  616SOL    HW211763   4.463   3.755   2.188  0.5481 -0.2408  0.6904
  617SOL     OW11764   3.486   3.386   2.000 -0.1951 -0.3400 -0.1553
  617SOL    HW111765   3.434   3.414   2.080 -1.2491 -0.4423 -0.8017
  617SOL    HW211766   3.478   3.456   1.929 -1.2603 -1.3663 -1.0585
  618SOL     OW11767   2.056   3.352   0.710 -0.6777  0.0493  0.0281
  618SOL    HW111768   2.132   3.304   0.666 -0.8534 -1.4942  1.3323
  618SOL    HW211769   2.032   3.433   0.657  0.2725 -0.7885 -1.7338
  619SOL     OW11770   3.595   9.553   0.171 -0.1876 -0.0827 -0.3192
  619SOL    HW111771   3.543   9.516   0.247 -0.1373  0.1258 -0.1827
  619SOL    HW211772   3.619   9.479   0.108 -0.0628 -0.2845 -0.0338
  620SOL     OW11773   9.319   4.154   2.034  0.6564 -0.0707  0.9775
  620SOL    HW111774   9.281   4.075   1.985  2.0668 -0.6653  0.8129
  620SOL    HW211775   9.271   4.167   2.120  0.7708 -1.4560  1.2591
  621SOL     OW11776   4.538   3.674   2.033  0.6274  0.3040  0.1962
  621SOL    HW111777   4.512   3.634   1.946 -0.2709 -0.0375  0.6152
  621SOL    HW211778   4.568   3.769   2.019 -1.1694  0.8125 -0.2587
  622SOL     OW11779   2.516   3.693   0.107  0.4595 -0.3923  0.0517
  622SOL    HW111780   2.597   3.735   0.147  0.2081 -0.8174  1.0074
  622SOL    HW211781   2.515   3.595   0.128 -0.9752 -0.1498  1.1446
  623SOL     OW11782   9.930   5.874   0.486 -0.6208 -0.0057  0.3869
  623SOL    HW111783   9.837   5.838   0.494 -0.5101  0.0258  2.1117
  623SOL    HW211784   9.933   5.967   0.523  0.1446 -0.0881  0.5453
  624SOL     OW11785   9.136   5.661   1.403  0.4490  0.3095  0.3563
  624SOL    HW111786   9.086   5.657   1.316  1.0438  0.4724  0.0038
  624SOL    HW211787   9.230   5.631   1.388  0.6165  0.5721  0.8984
  625SOL     OW11788   2.828   0.681   2.027 -0.2685 -0.1239 -0.2439
  625SOL    HW111789   2.896   0.609   2.009  0.7199  0.5058  0.9113
  625SOL    HW211790   2.835   0.752   1.957  1.6578  0.9333  0.9742
  626SOL     OW11791   3.763   8.404   0.242 -0.0471 -0.2767 -0.1963
  626SOL    HW111792   3.826   8.335   0.277  0.6351  0.2105 -0.4482
  626SOL    HW211793   3.681   8.406   0.299  0.7455  0.0212  0.9747
  627SOL     OW11794   3.247   1.867   1.094 -0.5385  0.0806  0.0260
  627SOL    HW111795   3.240   1.769   1.109  0.3479  0.2388  1.5717
  627SOL    HW211796   3.278   1.912   1.178  0.3288  1.5291 -1.0330
  628SOL     OW11797   2.346   5.467   0.739  0.3376  0.0716 -0.2717
  628SOL    HW111798   2.269   5.504   0.686 -0.8458 -1.9316 -0.0114
  628SOL    HW211799   2.430   5.478   0.686 -0.1597  1.9839 -0.7135
  629SOL     OW11800   9.486   4.116   0.532  0.4096 -0.3347  0.2134
  629SOL    HW111801   9.526   4.205   0.510 -2.8737  1.4663  1.2763
  629SOL    HW211802   9.447   4.118   0.624 -0.6815 -2.5105 -0.1614
  630SOL     OW11803   1.401   5.054   1.739 -0.1601  0.0535  0.2421
  630SOL    HW111804   1.358   5.031   1.652 -0.6487  1.3418  0.1369
  630SOL    HW211805   1.416   5.153   1.744 -0.5269  0.0401  1.8074
  631SOL     OW11806   2.346   3.397   0.492 -0.3615  0.1488  0.2207
  631SOL    HW111807   2.301   3.307   0.495  1.7357 -0.9156  0.3627
  631SOL    HW211808   2.439   3.387   0.457 -0.1995  2.3250 -0.0441
  632SOL     OW11809   3.761   8.850   2.567 -0.1551  0.3980  0.0876
  632SOL    HW111810   3.682   8.858   2.628  0.3821  0.1478  0.8353
  632SOL    HW211811   3.730   8.840   2.473 -0.9819  2.0153  0.1722
  633SOL     OW11812   0.404   5.991   2.794 -0.4586 -0.5508 -0.2141
  633SOL    HW111813   0.466   5.934   2.847 -1.2014 -0.8840  0.3051
  633SOL    HW211814   0.318   5.942   2.778 -0.8570  0.1692 -0.3209
  634SOL     OW11815   3.166   2.573   0.376  0.4513 -0.3845 -0.4350
  634SOL    HW111816   3.106   2.642   0.418  2.1991  0.6982  0.3659
  634SOL    HW211817   3.115   2.522   0.307 -1.7126 -0.2932  1.0411
  635SOL     OW11818   4.510   9.467   2.463 -0.0933  0.2324 -0.0854
  635SOL    HW111819   4.594   9.416   2.442 -0.0978  0.8961 -1.7406
  635SOL    HW211820   4.498   9.541   2.397 -2.3537 -0.2619 -0.2622
  636SOL     OW11821   3.362   8.290   1.277 -0.4703 -0.3229  0.0428
  636SOL    HW111822   3.275   8.339   1.290 -0.1213  0.8867 -1.8212
  636SOL    HW211823   3.429   8.353   1.237  1.0222 -1.4710  0.6948
  637SOL     OW11824   4.640   8.726   2.766  0.3792 -0.5869  0.0030
  637SOL    HW111825   4.599   8.641   2.732  2.7301 -1.7824  0.0069
  637SOL    HW211826   4.656   8.788   2.690  2.1259 -1.7137 -0.5859
  638SOL     OW11827   4.868   1.262   2.168  0.1482 -0.2831  0.3464
  638SOL    HW111828   4.968   1.266   2.164  0.2154 -0.2309  1.7811
  638SOL    HW211829   4.832   1.352   2.195 -0.4459  0.4366 -2.7083
  639SOL     OW11830   1.509   5.396   1.012 -0.7471  0.6827  0.0602
  639SOL    HW111831   1.411   5.387   0.995 -0.8429  1.6785  0.0371
  639SOL    HW211832   1.547   5.463   0.948  0.4628 -1.6600 -1.7570
  640SOL     OW11833   1.326   5.630   2.463  0.4843 -0.2196 -0.4540
  640SOL    HW111834   1.283   5.720   2.454  1.5420  0.3764  0.2251
  640SOL    HW211835   1.260   5.566   2.502 -0.3996  0.1629 -1.2976
  641SOL     OW11836   3.557   2.518   1.739 -0.8967  0.0007  0.5639
  641SOL    HW111837   3.539   2.590   1.805 -0.3320  0.0131  0.7101
  641SOL    HW211838   3.611   2.555   1.663 -1.5859  0.0003  0.0650
  642SOL     OW11839   2.855   2.458   2.823 -0.2167 -0.2904  0.0333
  642SOL    HW111840   2.878   2.380   2.765 -2.3687 -0.2652 -0.9012
  642SOL    HW211841   2.772   2.501   2.789 -0.4913  0.8420  2.0798
  643SOL     OW11842   4.515   4.708   1.465  0.3974  0.8442  0.0626
  643SOL    HW111843   4.496   4.714   1.563  0.6619  1.8650  0.0594
  643SOL    HW211844   4.606   4.744   1.447  0.0286  1.4397 -0.6559
  644SOL     OW11845   4.894   1.215   0.550  0.2634 -0.9321 -0.1441
  644SOL    HW111846   4.856   1.143   0.609 -1.2262 -0.4969 -0.5674
  644SOL    HW211847   4.871   1.196   0.455 -2.0105  1.2232 -0.0590
  645SOL     OW11848   2.587   1.640   0.387  0.7128 -0.2247  0.3500
  645SOL    HW111849   2.512   1.603   0.332 -0.1056 -0.8356  1.8677
  645SOL    HW211850   2.673   1.628   0.337 -0.1010 -0.0831 -1.1316
  646SOL     OW11851   3.406   5.241   1.620  0.3042  0.8789 -0.1554
  646SOL    HW111852   3.348   5.161   1.635  1.1132  0.3906  0.4196
  646SOL    HW211853   3.403   5.267   1.524  1.7582 -1.1854 -0.7838
  647SOL     OW11854   4.471   1.706   1.384 -0.0589 -0.8959  0.4239
  647SOL    HW111855   4.565   1.711   1.416  0.3779  1.2651 -1.0457
  647SOL    HW211856   4.469   1.710   1.284 -1.7507  0.4031  0.4754
  648SOL     OW11857   9.720   4.640   1.836  0.1622 -0.1275 -0.4575
  648SOL    HW111858   9.631   4.598   1.852  0.8067 -1.4074 -0.2267
  648SOL    HW211859   9.735   4.650   1.738  0.6833 -1.9042 -0.5660
  649SOL     OW11860   0.688   5.745   2.255 -0.4054  0.0253  0.8312
  649SOL    HW111861   0.759   5.740   2.184 -1.2751 -2.5952  0.0988
  649SOL    HW211862   0.695   5.833   2.302  1.3389  1.0880 -1.2956
  650SOL     OW11863   2.195   6.010   0.613  1.0250  0.5928  0.1349
  650SOL    HW111864   2.124   6.018   0.543  0.7047 -0.8325  0.2797
  650SOL    HW211865   2.285   6.009   0.570  0.8161 -0.6122 -0.3033
  651SOL     OW11866   3.210   0.905   1.286 -0.5765  0.4961 -0.1461
  651SOL    HW111867   3.178   0.996   1.313 -0.6102  0.3765  0.2262
  651SOL    HW211868   3.305   0.910   1.257 -0.6222  0.6762 -0.2597
  652SOL     OW11869   5.059   3.292   1.753  0.4589  0.1438  0.3098
  652SOL    HW111870   5.024   3.376   1.711  0.6802  0.4328  0.6862
  652SOL    HW211871   5.066   3.305   1.852 -0.8252 -0.8118  0.5306
  653SOL     OW11872   9.496   3.969   0.303  0.0218 -0.5692 -0.0313
  653SOL    HW111873   9.521   4.000   0.395  2.2088  0.7875 -1.0383
  653SOL    HW211874   9.422   4.025   0.267  2.0508  1.7403 -0.7358
  654SOL     OW11875   2.727   8.781   1.031  0.2313  0.3806  0.3274
  654SOL    HW111876   2.689   8.694   1.063 -0.7951  1.4488  2.0329
  654SOL    HW211877   2.732   8.846   1.107  0.1961  2.1009 -1.1123
  655SOL     OW11878   1.109   4.427   2.252 -0.0049  0.1113  0.0689
  655SOL    HW111879   1.205   4.427   2.228 -0.2519  1.8119 -0.9697
  655SOL    HW211880   1.089   4.348   2.311  1.6587 -1.1696 -1.0540
  656SOL     OW11881   2.607   1.911   1.981 -0.1015 -0.2400  0.5739
  656SOL    HW111882   2.705   1.929   1.983 -0.0503 -0.6075  1.6095
  656SOL    HW211883   2.567   1.953   1.899  0.8319  0.3237  0.3983
  657SOL     OW11884   3.307   5.735   0.997  0.5018  0.0123 -0.6583
  657SOL    HW111885   3.388   5.717   1.053 -0.9713 -2.2248  0.8623
  657SOL    HW211886   3.260   5.649   0.979 -3.4519  1.5809  1.5250
  658SOL     OW11887   2.716   1.233   0.513  0.5143  0.3626  0.5046
  658SOL    HW111888   2.713   1.144   0.558 -0.6467  0.4333  0.5991
  658SOL    HW211889   2.765   1.298   0.570 -0.6231  0.3560  1.5203
  659SOL     OW11890   2.528   6.632   2.229 -0.4264 -0.1456 -0.5180
  659SOL    HW111891   2.507   6.684   2.312  0.9152 -0.6752  0.1602
  659SOL    HW211892   2.610   6.671   2.186 -1.1694  0.1846 -1.6544
  660SOL     OW11893   0.304   5.814   0.230  0.3899 -0.7999  0.6348
  660SOL    HW111894   0.320   5.831   0.327 -0.2642 -0.7299  0.7286
  660SOL    HW211895   0.383   5.848   0.178  0.5619 -0.4668  1.1021
  661SOL     OW11896   0.803   5.478   2.654  0.1464 -0.0065 -0.1865
  661SOL    HW111897   0.720   5.452   2.605  0.5955 -1.6257 -0.1053
  661SOL    HW211898   0.781   5.495   2.750 -0.0239 -0.7582 -0.0955
  662SOL     OW11899   1.572   2.917   1.092  0.5248 -0.0203  0.0486
  662SOL    HW111900   1.647   2.854   1.073 -1.5725 -2.3819 -0.7326
  662SOL    HW211901   1.533   2.896   1.182  0.3019  0.6413  0.1080
  663SOL     OW11902   4.132   5.093   2.498  0.5461 -0.4154 -0.1572
  663SOL    HW111903   4.226   5.107   2.467  0.4722  1.6563  0.4744
  663SOL    HW211904   4.070   5.146   2.440 -0.1046 -0.7140  0.2621
  664SOL     OW11905   2.769   3.573   0.795 -0.3805  0.1375  0.0075
  664SOL    HW111906   2.731   3.654   0.751  1.9739  0.5684 -1.2920
  664SOL    HW211907   2.869   3.580   0.799 -0.1819 -2.3514  0.5647
  665SOL     OW11908   3.999   5.423   2.061  0.1226 -0.5209  0.1399
  665SOL    HW111909   3.907   5.434   2.022  0.3522 -1.1673 -0.5769
  665SOL    HW211910   4.015   5.496   2.127 -0.0759  0.9108 -1.3475
  666SOL     OW11911   2.211   4.021   0.338  0.3913  0.1822 -0.4545
  666SOL    HW111912   2.238   4.111   0.371  0.5418  0.3310 -0.9713
  666SOL    HW211913   2.121   4.027   0.293  1.4032  0.5315 -2.4857
  667SOL     OW11914   2.986   5.526   0.992 -0.2714  0.1789  0.0501
  667SOL    HW111915   3.068   5.506   0.938  0.2712  1.3569  0.4115
  667SOL    HW211916   3.012   5.540   1.088 -1.1758 -1.5119  0.5489
  668SOL     OW11917   2.564   4.607   1.152  0.7940  0.1069 -0.1176
  668SOL    HW111918   2.628   4.530   1.162  1.1889  0.3648 -0.6094
  668SOL    HW211919   2.538   4.640   1.242 -0.5851 -1.5856  0.1301
  669SOL     OW11920   9.881   4.186   0.633  0.2925  0.1157  0.3407
  669SOL    HW111921   9.899   4.192   0.732  2.1340  1.6774 -0.0384
  669SOL    HW211922   9.866   4.091   0.607  2.3993 -0.6497  1.7408
  670SOL     OW11923   2.500   3.587   1.982  0.4486 -0.1826 -0.0457
  670SOL    HW111924   2.560   3.667   1.979 -1.6107  1.3939 -0.7459
  670SOL    HW211925   2.522   3.526   1.906 -1.2301  2.2245 -2.5683
  671SOL     OW11926   3.947   4.535   1.960 -0.0795 -0.0323  0.6744
  671SOL    HW111927   3.938   4.440   1.929 -0.7365 -0.0243  0.8318
  671SOL    HW211928   3.863   4.563   2.007  0.2791  0.4873  1.0151
  672SOL     OW11929   4.304   1.703   1.049  0.4019 -0.1239  0.0571
  672SOL    HW111930   4.243   1.653   0.988 -0.7053 -1.8105  2.4301
  672SOL    HW211931   4.378   1.744   0.997 -1.7306  0.4102 -2.6717
  673SOL     OW11932   2.815   2.914   0.771  0.7517 -0.2780 -0.6008
  673SOL    HW111933   2.753   2.862   0.711 -1.0939 -0.7034  1.6302
  673SOL    HW211934   2.904   2.869   0.773  0.2426 -1.3545 -1.4641
  674SOL     OW11935   4.667   1.293   1.068 -0.8343 -0.5446 -0.2937
  674SOL    HW111936   4.640   1.373   1.015  1.1304  1.5286  1.7296
  674SOL    HW211937   4.624   1.297   1.158 -2.2962 -2.8441 -0.8426
  675SOL     OW11938   4.655   2.102   0.157 -0.2506  0.0324  0.0612
  675SOL    HW111939   4.566   2.073   0.123 -0.5343 -1.3820  1.9314
  675SOL    HW211940   4.713   2.022   0.175  1.4564  0.9359 -1.2341
  676SOL     OW11941   4.565   4.894   1.052 -0.4265  0.2891 -0.2437
  676SOL    HW111942   4.497   4.876   0.981 -0.2620  0.5965 -0.4771
  676SOL    HW211943   4.560   4.822   1.121  1.8022 -1.9642 -2.3450
  677SOL     OW11944   4.029   5.317   1.656  0.0077  0.1863  0.3563
  677SOL    HW111945   4.090   5.368   1.717 -0.4835  0.6319  0.4812
  677SOL    HW211946   4.071   5.312   1.565  0.9987 -0.9702  0.8691
  678SOL     OW11947   4.099   8.261   0.196  0.0929  0.6894  0.3205
  678SOL    HW111948   4.121   8.167   0.172 -2.6307 -0.7508  3.1377
  678SOL    HW211949   4.040   8.301   0.125  2.5507  0.8844 -1.6825
  679SOL     OW11950   1.728   3.462   0.637 -0.2545 -0.3720 -0.0887
  679SOL    HW111951   1.681   3.537   0.683 -0.6608 -0.0353 -1.0352
  679SOL    HW211952   1.769   3.402   0.705  0.0096  0.6670  0.6787
  680SOL     OW11953   2.376   4.745   0.712  0.7938  0.0761 -0.4489
  680SOL    HW111954   2.309   4.699   0.654  0.6499 -1.7569  1.1410
  680SOL    HW211955   2.402   4.831   0.669 -2.0338  0.5005 -1.4400
  681SOL     OW11956   1.948   2.813   0.036  0.5123 -0.4929  0.1637
  681SOL    HW111957   2.048   2.801   0.041  0.4595 -0.3070  1.9582
  681SOL    HW211958   1.925   2.908   0.053  0.1173 -0.1484 -2.1033
  682SOL     OW11959   2.910   2.982   0.162  0.0579  1.3965 -0.0097
  682SOL    HW111960   2.871   3.015   0.076  1.3874  2.6560 -0.1410
  682SOL    HW211961   2.846   2.919   0.205  0.4447 -1.3413 -3.1903
  683SOL     OW11962   2.359   2.619   0.816 -0.0095 -0.0128 -0.5162
  683SOL    HW111963   2.320   2.546   0.873  1.0302 -1.3756 -1.5004
  683SOL    HW211964   2.424   2.672   0.870  0.8874 -1.2281 -0.3864
  684SOL     OW11965   3.737   1.928   0.139 -0.5545 -0.1727 -0.5353
  684SOL    HW111966   3.835   1.911   0.130 -0.7990 -1.4654 -0.7358
  684SOL    HW211967   3.707   1.990   0.067  0.3159  1.0782  0.1567
  685SOL     OW11968   2.675   4.165   0.118 -0.5178 -0.6244  0.4682
  685SOL    HW111969   2.651   4.236   0.052  2.5708  1.8715  1.9206
  685SOL    HW211970   2.710   4.085   0.070  0.2538  0.5778 -0.9894
  686SOL     OW11971   2.881   2.057   1.632  0.0070  0.1494  0.0049
  686SOL    HW111972   2.875   2.124   1.706 -1.0909  0.4537 -0.3469
  686SOL    HW211973   2.966   2.004   1.642 -1.1762 -1.3591  2.8147
  687SOL     OW11974   3.778   3.803   2.398  0.1231 -0.0395 -0.8794
  687SOL    HW111975   3.722   3.772   2.320 -3.4740  0.0296  1.5245
  687SOL    HW211976   3.720   3.809   2.479  3.0030  3.2695  1.0479
  688SOL     OW11977   2.456   2.264   2.828 -0.2920  0.9951 -0.1203
  688SOL    HW111978   2.450   2.260   2.928 -3.8108  0.1900 -0.2943
  688SOL    HW211979   2.507   2.185   2.794  0.0240  0.7221  0.9782
  689SOL     OW11980   0.428   5.313   1.902 -0.4340  0.3197 -0.3120
  689SOL    HW111981   0.446   5.274   1.993  0.6133 -1.2160 -1.1674
  689SOL    HW211982   0.363   5.389   1.911 -0.8654 -0.2538  1.6358
  690SOL     OW11983   2.386   6.644   1.282 -0.1671 -0.3955 -0.1379
  690SOL    HW111984   2.432   6.692   1.358 -1.0793  0.6110 -0.2045
  690SOL    HW211985   2.291   6.674   1.277  0.1886  0.4489 -2.4256
  691SOL     OW11986   2.522   1.746   1.175  0.1797  0.5299  0.4266
  691SOL    HW111987   2.620   1.761   1.187  0.4340 -0.0214 -0.8699
  691SOL    HW211988   2.486   1.696   1.254  0.9869  0.5174  0.7952
  692SOL     OW11989   3.896   1.698   1.909 -0.4063  0.4615  0.9800
  692SOL    HW111990   3.950   1.683   1.826 -0.1925  1.3658  0.9525
  692SOL    HW211991   3.908   1.792   1.940 -1.6169  0.5478  1.2209
  693SOL     OW11992   3.969   3.095   0.641 -0.3270  0.0841 -0.5694
  693SOL    HW111993   3.964   2.997   0.624  1.9902 -0.3568  1.1195
  693SOL    HW211994   4.064   3.122   0.660 -1.0882  2.4318  0.1718
  694SOL     OW11995   2.300   2.605   2.539  0.3434 -0.8777 -0.3296
  694SOL    HW111996   2.344   2.646   2.619  0.1405 -0.1921 -0.5682
  694SOL    HW211997   2.223   2.549   2.569  0.2535 -0.6013 -0.0449
  695SOL     OW11998   3.988   9.716   2.398  0.4220  0.3909  0.1951
  695SOL    HW111999   3.995   9.620   2.424 -3.4014  0.2826  1.2320
  695SOL    HW212000   3.975   9.724   2.299  0.7716 -0.1719  0.1086
  696SOL     OW12001   4.706   1.079   0.773 -0.4700  0.5388  0.6610
  696SOL    HW112002   4.680   1.151   0.838 -0.1123  0.3933  0.9639
  696SOL    HW212003   4.733   0.997   0.822 -0.1405  0.4457  0.3322
  697SOL     OW12004   4.714   3.129   0.427 -0.1906 -0.4040  0.3365
  697SOL    HW112005   4.720   3.142   0.526 -0.3381 -1.2175  0.4522
  697SOL    HW212006   4.806   3.117   0.389  0.0719  2.1690  0.0528
  698SOL     OW12007   3.389   4.021   0.028 -0.4971  0.2681 -0.2747
  698SOL    HW112008   3.469   3.975   0.065  0.6648  0.9897 -1.8288
  698SOL    HW212009   3.410   4.117   0.011 -2.3498  0.9773  1.2390
  699SOL     OW12010   3.419   9.325   1.005 -0.0562  0.3119  0.6242
  699SOL    HW112011   3.371   9.406   0.972  1.6242  1.1416  0.1917
  699SOL    HW212012   3.353   9.251   1.019 -1.4078  1.3139 -0.3279
  700SOL     OW12013   3.141   7.994   1.175 -0.1020 -0.0086 -0.1029
  700SOL    HW112014   3.083   8.038   1.106  1.2338  0.3175 -1.0349
  700SOL    HW212015   3.157   8.058   1.250  0.6928  0.6313 -0.8006
  701SOL     OW12016   5.031   1.423   1.175  0.0481 -0.3705 -0.1153
  701SOL    HW112017   4.979   1.360   1.117  1.5021 -2.3195  0.6490
  701SOL    HW212018   5.122   1.438   1.135  0.8033 -1.1660  1.3007
  702SOL     OW12019   2.140   4.605   0.063  0.1574  0.2128  0.0255
  702SOL    HW112020   2.194   4.528   0.029  0.4214  0.7328 -0.7518
  702SOL    HW212021   2.156   4.685   0.005  0.7992  1.1812  1.5083
  703SOL     OW12022   9.104   5.577   0.098 -0.0226 -0.1989  0.0791
  703SOL    HW112023   9.010   5.548   0.080 -0.9087  1.4922  1.8603
  703SOL    HW212024   9.140   5.527   0.176 -0.1699  0.6484  0.6919
  704SOL     OW12025   2.420   6.114   2.641  0.1263  0.1265  0.0456
  704SOL    HW112026   2.503   6.070   2.676 -0.7194 -1.9419 -0.4302
  704SOL    HW212027   2.436   6.211   2.629  2.1931 -0.0853  0.8332
  705SOL     OW12028   4.491   2.377   1.257 -0.2092  0.9820  0.0544
  705SOL    HW112029   4.460   2.283   1.269  0.3306  0.8484  0.4404
  705SOL    HW212030   4.511   2.394   1.161  0.5642  0.4227  0.1125
  706SOL     OW12031   1.529   6.162   2.414 -0.2091  0.2293  0.5680
  706SOL    HW112032   1.513   6.114   2.500  1.0022 -1.1531  0.0499
  706SOL    HW212033   1.628   6.173   2.400 -0.4328  1.7060  0.0270
  707SOL     OW12034   5.123   4.449   0.906 -0.3437  0.4499 -0.2132
  707SOL    HW112035   5.061   4.427   0.981 -1.6764  0.8258 -1.2003
  707SOL    HW212036   5.153   4.544   0.914 -1.8482  0.9997 -1.1335
  708SOL     OW12037   9.298   4.844   0.288  0.0810  0.4589 -0.4281
  708SOL    HW112038   9.332   4.871   0.378 -2.1422 -1.1104  0.9469
  708SOL    HW212039   9.211   4.888   0.270 -0.6271 -1.0322 -0.7722
  709SOL     OW12040   2.101   5.230   0.864 -0.1582 -0.0587 -0.2956
  709SOL    HW112041   2.164   5.167   0.818  1.2664  1.5518 -0.5795
  709SOL    HW212042   2.127   5.324   0.844 -2.3569  0.6469  0.0129
  710SOL     OW12043   8.750   4.450   1.410  0.2311 -0.1606 -0.1400
  710SOL    HW112044   8.670   4.482   1.459  0.3464  0.9581 -0.6767
  710SOL    HW212045   8.820   4.522   1.408  0.5295 -0.4655 -1.2571
  711SOL     OW12046   1.489   4.361   2.684 -0.5604  0.4254 -0.5310
  711SOL    HW112047   1.579   4.348   2.725 -0.4496  1.1891 -0.5262
  711SOL    HW212048   1.424   4.391   2.755 -0.5224  1.1002 -0.7786
  712SOL     OW12049   2.917   1.532   1.137 -0.1862  0.6321  0.0453
  712SOL    HW112050   2.860   1.449   1.128 -1.2505  1.3241  0.2647
  712SOL    HW212051   2.974   1.542   1.056 -0.6921  0.1532 -0.3789
  713SOL     OW12052   3.246   0.295   1.723  0.1934 -0.2360 -0.1427
  713SOL    HW112053   3.220   0.313   1.818  1.0164  2.0219 -0.3039
  713SOL    HW212054   3.334   0.248   1.721 -0.7928 -2.1549  0.2357
  714SOL     OW12055   3.572   3.143   1.923 -0.0391  0.4451  0.5018
  714SOL    HW112056   3.661   3.129   1.966  1.4245  2.8707 -1.6219
  714SOL    HW212057   3.533   3.229   1.954 -2.3757 -1.2428  2.5008
  715SOL     OW12058   2.183   6.679   2.760  0.4320  0.2491 -0.4538
  715SOL    HW112059   2.228   6.712   2.678  1.7869 -2.9984 -1.0900
  715SOL    HW212060   2.094   6.640   2.736  0.8283 -0.7009 -0.4184
  716SOL     OW12061   4.475   1.060   0.072 -0.3752 -0.3356  0.3598
  716SOL    HW112062   4.410   1.099   0.136  2.6690  3.3223  1.4064
  716SOL    HW212063   4.448   1.083  -0.022 -0.0982  2.0244  0.8361
  717SOL     OW12064   2.064   6.409   1.942 -0.1285  0.4994  0.1952
  717SOL    HW112065   2.148   6.392   1.891 -0.5794 -1.2818  0.0219
  717SOL    HW212066   1.985   6.392   1.883 -0.6288  1.9323  0.4297
  718SOL     OW12067   4.492   1.767   0.851 -0.2670 -0.3665  0.1816
  718SOL    HW112068   4.415   1.803   0.798  1.7872  0.8306 -2.1336
  718SOL    HW212069   4.527   1.838   0.912 -2.5346 -1.6987  3.1550
  719SOL     OW12070   3.197   5.551   0.804  0.2771  0.0044  0.3008
  719SOL    HW112071   3.174   5.629   0.746  3.2309  0.5949 -0.1364
  719SOL    HW212072   3.163   5.467   0.762 -0.6326  0.7840 -0.5413
  720SOL     OW12073   3.115   4.510   2.533  0.5606  0.8506  0.4778
  720SOL    HW112074   3.019   4.534   2.520 -0.2851 -1.1546  2.7322
  720SOL    HW212075   3.163   4.585   2.579 -0.5703  0.8126  1.7470
  721SOL     OW12076   9.939   4.185   0.920  0.2594 -0.7655  0.2262
  721SOL    HW112077  10.027   4.222   0.890 -0.4823  1.3736  0.6222
  721SOL    HW212078   9.942   4.168   1.018 -0.5472  1.6045  0.6765
  722SOL     OW12079   3.710   3.099   1.697  0.1250 -0.1075 -1.2112
  722SOL    HW112080   3.652   3.121   1.775  1.6555 -1.0759  0.2261
  722SOL    HW212081   3.655   3.096   1.614 -1.6322  0.3106 -0.0793
  723SOL     OW12082   3.133   5.056   1.201  0.2138 -0.5889 -0.2528
  723SOL    HW112083   3.112   4.996   1.124 -0.9886 -0.8654  0.2940
  723SOL    HW212084   3.153   5.148   1.167 -0.4479 -0.6756 -0.8858
  724SOL     OW12085   4.719   1.156   1.584  0.1639  0.7070  0.2462
  724SOL    HW112086   4.666   1.226   1.536  0.2043  1.5704  1.4234
  724SOL    HW212087   4.812   1.153   1.547  0.0186  0.9522 -0.1366
  725SOL     OW12088   2.677   6.364   1.272 -0.1480 -0.0846 -0.0372
  725SOL    HW112089   2.732   6.302   1.329 -0.9764  0.2795  1.1724
  725SOL    HW212090   2.608   6.312   1.223 -1.3502 -0.0535  1.5759
  726SOL     OW12091   2.011   3.357   1.478 -0.0222 -0.6770  0.2351
  726SOL    HW112092   1.966   3.446   1.488  1.4637  0.0295  0.8017
  726SOL    HW212093   1.975   3.311   1.396 -0.4850  0.6360 -0.3220
  727SOL     OW12094   3.158   5.257   2.121 -0.0990  0.2180  1.1509
  727SOL    HW112095   3.095   5.187   2.156 -0.6399  0.9238  1.6071
  727SOL    HW212096   3.250   5.218   2.115  0.0226  0.0531  3.4083
  728SOL     OW12097   2.008   4.886   0.804  0.1050  0.1657  0.5961
  728SOL    HW112098   2.067   4.817   0.761  1.7801  1.4297  0.8246
  728SOL    HW212099   2.042   4.907   0.895  0.7570  2.6620 -0.1775
  729SOL     OW12100   4.935   2.588   2.289 -0.3439 -0.0079  0.0035
  729SOL    HW112101   4.934   2.685   2.264 -0.1302 -0.3092 -1.2236
  729SOL    HW212102   5.014   2.569   2.346 -0.7415  0.6631  0.7979
  730SOL     OW12103   0.477   5.126   2.487 -0.0144 -0.2857  0.6521
  730SOL    HW112104   0.406   5.091   2.425  0.1848  0.7518 -0.1653
  730SOL    HW212105   0.503   5.053   2.551 -0.2725 -1.3495 -0.4259
  731SOL     OW12106   2.858   3.216   1.754 -0.1930 -0.3372  0.4452
  731SOL    HW112107   2.837   3.212   1.657  0.0392  0.9870  0.3211
  731SOL    HW212108   2.923   3.144   1.778  1.5209  0.7395 -0.8600
  732SOL     OW12109   9.570   5.335   0.695 -0.3499 -0.2259 -0.0745
  732SOL    HW112110   9.623   5.405   0.647 -0.0525  2.2025  3.5801
  732SOL    HW212111   9.478   5.369   0.714 -0.6142 -1.3194  0.6682
  733SOL     OW12112   2.120   3.746   2.773  0.1450 -0.1468  0.1777
  733SOL    HW112113   2.033   3.699   2.794  1.0262 -0.5713  3.2411
  733SOL    HW212114   2.105   3.812   2.700 -1.7015 -3.4511 -2.6291
  734SOL     OW12115   3.113   2.427   1.001  0.0447  0.8858 -0.1727
  734SOL    HW112116   3.170   2.367   1.057 -0.4007  1.5876  1.0674
  734SOL    HW212117   3.137   2.522   1.020 -0.0243  1.1348 -1.2864
  735SOL     OW12118   3.668   9.858   0.583  0.0763 -0.0105  0.7352
  735SOL    HW112119   3.736   9.813   0.640  0.6471  0.3937  0.3690
  735SOL    HW212120   3.646   9.801   0.504 -0.1237 -0.2097  0.9351
  736SOL     OW12121   1.164   5.854   0.637 -0.1044  0.3515 -0.2560
  736SOL    HW112122   1.234   5.899   0.582 -0.1085 -0.8502 -1.2652
  736SOL    HW212123   1.208   5.787   0.698  0.0094  2.4064  1.9716
  737SOL     OW12124   3.627   3.497   2.561 -0.5286 -0.0099  0.7867
  737SOL    HW112125   3.560   3.452   2.620 -1.9165 -0.6243 -1.1886
  737SOL    HW212126   3.586   3.515   2.472  1.0536  2.2517  0.4807
  738SOL     OW12127   2.253   2.603   1.728  0.6358 -0.3923  0.3255
  738SOL    HW112128   2.311   2.657   1.789  0.5027  0.2315 -0.0963
  738SOL    HW212129   2.162   2.593   1.768 -0.3645  2.5394 -1.1133
  739SOL     OW12130   2.839   3.771   1.346  0.4620  0.0613 -0.5623
  739SOL    HW112131   2.913   3.748   1.283  0.5053  1.8477 -1.2139
  739SOL    HW212132   2.867   3.849   1.402 -0.8486  0.6394 -0.6941
  740SOL     OW12133   3.961   3.512   1.233  0.8666  0.1976  0.1333
  740SOL    HW112134   4.045   3.495   1.284  1.0854  1.1334  0.1092
  740SOL    HW212135   3.938   3.609   1.240  0.9910  0.3828 -1.6548
  741SOL     OW12136   2.650   6.775   1.593 -0.2169 -0.5180  0.4826
  741SOL    HW112137   2.571   6.791   1.653 -0.5476 -1.8321  0.4274
  741SOL    HW212138   2.695   6.690   1.620  2.7194  1.4875  2.1334
  742SOL     OW12139   4.034   2.295   0.757 -0.6405  0.3133 -0.8818
  742SOL    HW112140   4.011   2.387   0.790  1.1658  0.2278  0.7070
  742SOL    HW212141   3.951   2.242   0.746 -1.4977  1.1722  1.1580
  743SOL     OW12142   3.861   3.454   0.158  0.0193 -0.0815  0.3128
  743SOL    HW112143   3.836   3.538   0.206 -0.8409 -0.6413  0.8705
  743SOL    HW212144   3.955   3.429   0.180  0.7339  1.4606 -0.9297
  744SOL     OW12145   4.274   3.690   2.442 -0.3947 -0.2591 -0.0316
  744SOL    HW112146   4.190   3.697   2.495 -1.0082 -0.8812 -0.9049
  744SOL    HW212147   4.268   3.611   2.382  0.7229 -0.1647 -0.2722
  745SOL     OW12148   3.046   1.227   2.144  0.5519  0.0174  0.7656
  745SOL    HW112149   3.110   1.299   2.113  0.4479 -0.2893 -0.1745
  745SOL    HW212150   3.092   1.169   2.210  0.9268  0.4160  0.8627
  746SOL     OW12151   2.765   8.874   1.302 -0.5634  0.4209 -0.0604
  746SOL    HW112152   2.845   8.934   1.308  2.2031 -3.0579 -0.7147
  746SOL    HW212153   2.741   8.841   1.393 -2.2724  2.6591  0.3403
  747SOL     OW12154   9.766   4.993   0.368 -0.1778  0.0427 -0.7455
  747SOL    HW112155   9.678   5.034   0.387  1.0179  1.3838  2.1533
  747SOL    HW212156   9.775   4.908   0.420  0.6641  0.4996 -0.1284
  748SOL     OW12157   3.110   4.180   0.080 -0.0009  0.0918  0.2112
  748SOL    HW112158   3.024   4.231   0.082 -0.4438 -0.5530 -1.7168
  748SOL    HW212159   3.168   4.215   0.007  0.2225 -1.3097 -0.2979
  749SOL     OW12160   3.301   4.368   0.621 -0.1097  0.0015  0.3948
  749SOL    HW112161   3.336   4.318   0.700 -0.9559 -0.4765  0.4787
  749SOL    HW212162   3.224   4.426   0.650  1.4587  2.1053  0.4904
  750SOL     OW12163   1.698   6.144   1.566 -0.2580 -0.2959 -0.1502
  750SOL    HW112164   1.785   6.183   1.539 -0.8466  0.0723 -1.5630
  750SOL    HW212165   1.697   6.046   1.544 -0.0284 -0.4003  0.3016
  751SOL     OW12166   3.634   0.393   0.989  0.3623 -0.1716  0.0244
  751SOL    HW112167   3.725   0.425   1.015  0.7307 -0.4897 -0.8915
  751SOL    HW212168   3.573   0.472   0.978  0.6697  0.0724  0.0793
  752SOL     OW12169   4.186   0.276   1.725 -0.3092 -0.0691 -0.5434
  752SOL    HW112170   4.283   0.300   1.715 -0.0789 -1.4251 -1.6858
  752SOL    HW212171   4.158   0.290   1.820  0.8335  0.9537 -0.3441
  753SOL     OW12172   3.289   0.375   0.074  0.0382  0.3698 -0.2594
  753SOL    HW112173   3.262   0.378  -0.022 -1.3496 -0.9279  0.0726
  753SOL    HW212174   3.346   0.295   0.090 -1.1446 -0.3729  0.3329
  754SOL     OW12175   0.784   4.063   1.624 -0.1503 -0.6149  0.0041
  754SOL    HW112176   0.740   4.118   1.695  2.5348 -0.3435  1.5674
  754SOL    HW212177   0.797   3.970   1.658  1.1981 -0.4660 -0.0610
  755SOL     OW12178   2.943   4.402   0.007 -0.3156 -0.5846 -0.1822
  755SOL    HW112179   2.993   4.482   0.041 -1.4973  0.5408 -1.0550
  755SOL    HW212180   2.979   4.376  -0.082 -0.3678 -0.6147 -0.1945
  756SOL     OW12181   0.386   4.903   1.069  0.0329 -0.3194 -0.3501
  756SOL    HW112182   0.448   4.830   1.097  1.7150  0.2900 -2.3925
  756SOL    HW212183   0.350   4.884   0.978 -1.5563  0.1294  0.1640
  757SOL     OW12184   2.653   4.460   0.417  0.3471 -0.4611  0.7023
  757SOL    HW112185   2.598   4.384   0.384 -1.0228  1.5555 -1.8230
  757SOL    HW212186   2.607   4.505   0.494 -0.8511  0.2929 -0.4333
  758SOL     OW12187   4.715   3.976   1.231  0.6317 -0.6949  0.2680
  758SOL    HW112188   4.660   4.043   1.280  0.5180  0.4342 -1.3404
  758SOL    HW212189   4.693   3.884   1.262 -1.3925 -0.1870  0.3992
  759SOL     OW12190   0.420   5.602   2.477 -0.0360 -0.8678  0.2208
  759SOL    HW112191   0.405   5.616   2.575 -1.4055 -3.1308  0.3750
  759SOL    HW212192   0.514   5.625   2.454  1.2908 -3.5774  2.7450
  760SOL     OW12193   2.904   6.769   2.652 -0.1118  0.5819 -0.2211
  760SOL    HW112194   2.852   6.707   2.710 -0.8838  2.0401  0.6656
  760SOL    HW212195   2.990   6.792   2.698  0.7329 -0.7455 -1.0822
  761SOL     OW12196   0.713   5.270   1.805 -0.4651 -0.4070  0.1622
  761SOL    HW112197   0.717   5.332   1.726 -1.6383  1.1986  1.3339
  761SOL    HW212198   0.617   5.251   1.828 -0.1633  0.3798  2.1560
  762SOL     OW12199   3.151   9.073   0.062 -0.4017 -0.6031  0.2113
  762SOL    HW112200   3.092   8.992   0.067  2.4770 -2.9722 -2.6295
  762SOL    HW212201   3.155   9.106  -0.032  0.8531  1.0442  0.8100
  763SOL     OW12202   1.300   5.652   0.757  0.0040  0.7441 -0.1119
  763SOL    HW112203   1.284   5.564   0.801 -0.3795  1.3636  0.9991
  763SOL    HW212204   1.382   5.646   0.699 -0.6533 -0.6433 -0.9087
  764SOL     OW12205   9.308   5.026   2.540  0.7433  0.1906  0.0470
  764SOL    HW112206   9.344   4.946   2.587 -0.6686 -0.6763 -0.3193
  764SOL    HW212207   9.372   5.053   2.468  2.5048  1.0206  1.8822
  765SOL     OW12208   2.593   5.758   0.822 -0.1340 -0.6025  0.4215
  765SOL    HW112209   2.539   5.784   0.902  0.9825  0.6209  0.7965
  765SOL    HW212210   2.684   5.729   0.851 -0.1059 -1.2666 -0.3137
  766SOL     OW12211   3.186   9.127   1.221  0.0598  0.2171 -0.0151
  766SOL    HW112212   3.228   9.096   1.136 -1.7707 -0.7629 -0.5983
  766SOL    HW212213   3.194   9.226   1.228 -0.1849  0.3634 -1.5799
  767SOL     OW12214   2.622   8.098   0.420 -0.4468  0.7673  0.3658
  767SOL    HW112215   2.568   8.064   0.498  0.2136  1.5267  1.1641
  767SOL    HW212216   2.663   8.186   0.444 -2.3308  2.2785 -1.7496
  768SOL     OW12217   3.329   5.771   2.553  0.2445  0.0180  0.3100
  768SOL    HW112218   3.305   5.869   2.556 -0.7563 -0.2656  1.7909
  768SOL    HW212219   3.250   5.717   2.581  1.2007 -1.1715  0.7147
  769SOL     OW12220   0.887   5.435   0.879 -0.1373 -0.1073 -0.1316
  769SOL    HW112221   0.846   5.454   0.789  0.0017  0.5323 -0.0607
  769SOL    HW212222   0.873   5.514   0.939 -0.7881 -0.7860  0.6134
  770SOL     OW12223   4.086   8.492   0.451 -0.7402 -0.0160 -0.2331
  770SOL    HW112224   4.156   8.513   0.519 -0.4740  1.5510 -0.9648
  770SOL    HW212225   4.099   8.550   0.371 -1.0601 -1.8176 -1.6350
  771SOL     OW12226   4.356   9.975   1.547 -0.1817 -0.2247 -0.0758
  771SOL    HW112227   4.427  10.029   1.503  0.8041  0.3078  2.1335
  771SOL    HW212228   4.314  10.028   1.621 -0.1675 -1.9650  1.2071
  772SOL     OW12229   0.073   4.412   1.735 -0.0175  0.0828  0.1269
  772SOL    HW112230   0.166   4.440   1.759 -1.5489  3.0196  2.9840
  772SOL    HW212231   0.041   4.465   1.657  0.9476 -1.5630 -1.4408
  773SOL     OW12232   4.450   9.135   1.417  0.2650 -0.1870 -0.3429
  773SOL    HW112233   4.480   9.231   1.412 -0.9219  0.1485 -1.4889
  773SOL    HW212234   4.402   9.119   1.503 -2.6512  1.2439 -1.5978
  774SOL     OW12235   1.809   6.599   0.023  0.1462  0.6706 -0.3633
  774SOL    HW112236   1.847   6.640   0.106  0.3361 -1.3260  0.5547
  774SOL    HW212237   1.711   6.617   0.018  0.1274  0.7499  0.3190
  775SOL     OW12238   1.125   6.236   1.457  0.1362 -0.3642  0.3173
  775SOL    HW112239   1.102   6.317   1.512  1.5879 -0.1941  0.6837
  775SOL    HW212240   1.201   6.258   1.396  1.0603 -1.6761  0.9678
  776SOL     OW12241   1.200   4.637   2.488 -0.1378  0.4306 -0.3332
  776SOL    HW112242   1.116   4.606   2.532  1.9458 -1.8751  2.1467
  776SOL    HW212243   1.220   4.579   2.409  0.9086 -1.2117  1.1147
  777SOL     OW12244   3.718   3.604   1.562  0.0244  0.0772 -0.0307
  777SOL    HW112245   3.668   3.663   1.626  1.3867  1.4174 -0.1886
  777SOL    HW212246   3.799   3.566   1.607 -0.1275 -0.6382 -0.3418
  778SOL     OW12247   4.443   0.692   1.988  0.2114  0.3936 -0.1242
  778SOL    HW112248   4.497   0.770   1.957 -0.8183  1.1489 -0.0189
  778SOL    HW212249   4.502   0.611   1.992  1.0548  0.9385 -1.1743
  779SOL     OW12250   1.595   3.312   2.096 -0.4499 -0.0047 -0.0540
  779SOL    HW112251   1.656   3.322   2.017 -0.8453 -0.1068 -0.3689
  779SOL    HW212252   1.648   3.278   2.174 -0.1497 -0.3372 -0.3988
  780SOL     OW12253   3.824   2.841   1.494 -0.8306  1.1595  0.0893
  780SOL    HW112254   3.920   2.814   1.485 -1.4015 -1.4469  1.1502
  780SOL    HW212255   3.809   2.927   1.447  1.8255  1.1280 -0.9194
  781SOL     OW12256   2.734   5.710   1.628  0.4531  0.1236  0.1411
  781SOL    HW112257   2.721   5.801   1.587  0.9718  0.4767  0.7446
  781SOL    HW212258   2.650   5.658   1.621 -0.5395  1.4524  1.7293
  782SOL     OW12259   3.784   9.263   1.929 -0.2811 -0.5533  0.4217
  782SOL    HW112260   3.848   9.328   1.889 -0.5936 -1.0044 -0.8570
  782SOL    HW212261   3.701   9.311   1.957 -2.0452 -0.8502 -3.8923
  783SOL     OW12262   6.356   1.130   1.284  0.4302 -0.6747  0.8004
  783SOL    HW112263   6.272   1.182   1.296  0.5472 -0.4064  0.4787
  783SOL    HW212264   6.338   1.052   1.223  1.0680  1.0398 -1.6696
  784SOL     OW12265   9.479   5.102   1.823  0.2037  0.4636 -0.7674
  784SOL    HW112266   9.412   5.046   1.871  2.4088 -1.1852  0.4665
  784SOL    HW212267   9.432   5.161   1.757 -2.2902 -1.9581 -1.2561
  785SOL     OW12268   3.314   1.994   1.348  0.2843 -0.5434  0.0189
  785SOL    HW112269   3.359   1.909   1.377  0.6721 -0.5566 -0.6020
  785SOL    HW212270   3.358   2.072   1.391  0.1404 -0.6403  0.3374
  786SOL     OW12271   0.046   4.151   1.284 -0.3987 -0.3767 -0.0951
  786SOL    HW112272  -0.003   4.238   1.274  0.9424  0.1925 -2.1528
  786SOL    HW212273   0.129   4.154   1.228  0.6589 -2.2716  1.3459
  787SOL     OW12274   0.856   5.984   1.247 -0.5474 -0.1956  0.3373
  787SOL    HW112275   0.862   5.948   1.154  2.3612 -1.1287  0.8291
  787SOL    HW212276   0.815   6.075   1.245 -0.1818 -0.0426 -1.9225
  788SOL     OW12277   3.305   2.521   1.642 -0.1585  0.2422  0.3031
  788SOL    HW112278   3.396   2.528   1.682 -0.2325 -1.0923  0.7397
  788SOL    HW212279   3.254   2.605   1.660  0.8320  0.8285  0.4218
  789SOL     OW12280   1.065   3.887   2.649  0.4270 -0.2735 -0.0455
  789SOL    HW112281   1.040   3.823   2.576 -0.6200 -0.9738  0.9161
  789SOL    HW212282   1.003   3.966   2.646  1.7602  0.7547 -1.2740
  790SOL     OW12283   4.003   0.740   0.495  0.5563  0.1436  0.7287
  790SOL    HW112284   4.078   0.784   0.545  1.8366  0.4381 -1.4019
  790SOL    HW212285   3.963   0.805   0.430 -0.1238 -0.6715  0.3186
  791SOL     OW12286   3.800   8.932   1.701 -0.0781 -0.0003 -0.0035
  791SOL    HW112287   3.836   8.980   1.781 -0.0106  0.1818 -0.1422
  791SOL    HW212288   3.701   8.944   1.697 -0.4208 -2.0010  1.3859
  792SOL     OW12289   1.524   5.705   0.108 -0.2226  0.1664  0.0101
  792SOL    HW112290   1.530   5.723   0.009  1.5514  0.6186  0.1757
  792SOL    HW212291   1.460   5.630   0.124  0.4876 -0.8192 -1.6072
  793SOL     OW12292   3.109   9.682   0.225  0.6729  0.0250 -0.4127
  793SOL    HW112293   3.057   9.760   0.261 -0.8734 -2.0268  2.0081
  793SOL    HW212294   3.201   9.712   0.200  0.4972  2.4107  1.5667
  794SOL     OW12295   3.436   0.118   2.651 -0.3023 -0.0399 -0.4739
  794SOL    HW112296   3.449   0.153   2.744 -0.7277  1.0573 -0.8163
  794SOL    HW212297   3.495   0.039   2.637  0.5541  0.4263  0.3822
  795SOL     OW12298   3.859   1.129   2.573  0.5204 -0.2331 -0.1855
  795SOL    HW112299   3.946   1.108   2.618  0.4015 -0.6180 -0.1306
  795SOL    HW212300   3.836   1.225   2.587  1.0619 -0.0695 -0.4127
  796SOL     OW12301   3.838   9.525   2.166  0.1449 -0.2166  0.2900
  796SOL    HW112302   3.886   9.468   2.099 -0.4375  0.4239 -0.6903
  796SOL    HW212303   3.870   9.619   2.159 -1.0320  0.1620 -0.1761
  797SOL     OW12304   4.954   2.242   0.065  0.3193  0.0667  0.1547
  797SOL    HW112305   4.905   2.320   0.027  0.7437  0.2182 -0.0917
  797SOL    HW212306   4.973   2.258   0.162  0.8617  0.5010 -0.0221
  798SOL     OW12307   9.550   4.582   2.153  0.0526  0.3885 -0.2807
  798SOL    HW112308   9.644   4.573   2.187  0.5916  1.7301 -1.3541
  798SOL    HW212309   9.541   4.533   2.066 -0.3965 -0.1919  0.0884
  799SOL     OW12310   9.665   4.666   0.257  0.9245 -0.2567 -0.2957
  799SOL    HW112311   9.762   4.676   0.232  0.6470  2.7304 -0.3577
  799SOL    HW212312   9.608   4.710   0.188 -0.2291  1.9574  1.9786
  800SOL     OW12313   2.677   4.025   0.747  0.4099 -0.1769 -0.2903
  800SOL    HW112314   2.766   4.011   0.704  0.3900  1.1120 -0.7744
  800SOL    HW212315   2.618   4.078   0.686 -0.4854 -0.5027  0.2749
  801SOL     OW12316   2.896   4.811   1.375 -0.0609  0.0798 -0.2804
  801SOL    HW112317   2.815   4.868   1.360 -0.9045 -0.5663  1.5808
  801SOL    HW212318   2.895   4.734   1.311 -0.7590  0.2637 -0.5006
  802SOL     OW12319   2.410   4.247   2.463 -0.1202  0.0413  0.0793
  802SOL    HW112320   2.345   4.182   2.503 -1.1447  1.0251  0.0436
  802SOL    HW212321   2.434   4.316   2.531  0.8496 -0.2858  0.0713
  803SOL     OW12322   3.992   3.501   0.532 -0.0457 -0.1071  0.4045
  803SOL    HW112323   4.073   3.462   0.574  0.0697 -2.0625 -1.5699
  803SOL    HW212324   3.945   3.432   0.477 -0.8579  2.0054 -1.6752
  804SOL     OW12325   3.315   7.098   1.646 -0.3233 -0.5568 -0.5960
  804SOL    HW112326   3.294   7.185   1.691  1.3775 -0.2178 -0.4420
  804SOL    HW212327   3.410   7.098   1.615 -0.0735 -2.6414  0.0742
  805SOL     OW12328   4.074   5.297   0.881 -0.0095  0.1359 -0.4239
  805SOL    HW112329   4.060   5.391   0.850 -0.2423  0.2274 -0.0488
  805SOL    HW212330   4.152   5.257   0.833  3.8133  2.4257  3.4248
  806SOL     OW12331   1.305   3.862   1.199 -0.3506  0.3854 -0.2398
  806SOL    HW112332   1.290   3.958   1.224 -0.3565  0.1844  0.5527
  806SOL    HW212333   1.401   3.850   1.171 -0.7139  0.9114 -1.7396
  807SOL     OW12334   4.109   3.637   0.983 -0.1309  0.5419  0.4214
  807SOL    HW112335   4.048   3.696   1.036 -1.4520  0.3639 -0.8657
  807SOL    HW212336   4.058   3.557   0.951  1.7951 -1.6313  2.6595
  808SOL     OW12337   2.949   6.222   0.523  0.8613 -0.1153 -0.5582
  808SOL    HW112338   3.031   6.237   0.467 -0.1843  2.1531 -1.5413
  808SOL    HW212339   2.939   6.298   0.587 -1.2309  0.3712 -1.4157
  809SOL     OW12340   3.943   8.843   0.948 -0.5353  0.7074  0.4147
  809SOL    HW112341   3.977   8.759   0.989 -3.0352  0.2567  1.6789
  809SOL    HW212342   3.927   8.911   1.019 -3.3332  0.4997  0.0413
  810SOL     OW12343   2.309   1.812   1.845  0.3825  0.1217 -0.5727
  810SOL    HW112344   2.389   1.872   1.852 -0.2872  1.0303 -0.5925
  810SOL    HW212345   2.262   1.831   1.758 -0.9318  0.9438  0.3101
  811SOL     OW12346   4.246   3.999   2.824  0.3437  0.3759  0.3860
  811SOL    HW112347   4.166   3.948   2.791  1.1310 -0.9922  0.5817
  811SOL    HW212348   4.289   4.044   2.746  0.1053  0.0991  0.0880
  812SOL     OW12349   3.199   0.430   2.359 -0.2191 -0.3835 -0.4307
  812SOL    HW112350   3.203   0.468   2.452 -0.4583 -1.4675  0.0265
  812SOL    HW212351   3.212   0.504   2.293 -0.2570  0.4339  0.4585
  813SOL     OW12352   1.799   5.821   0.921 -0.2796 -0.0468  0.9794
  813SOL    HW112353   1.755   5.778   1.000  1.9961 -2.2002  1.1346
  813SOL    HW212354   1.898   5.811   0.929  0.0442  0.8588 -1.5177
  814SOL     OW12355   2.344   3.057   0.995 -0.0024 -0.2489 -0.0974
  814SOL    HW112356   2.426   3.089   0.948 -0.0099  2.7198  1.7868
  814SOL    HW212357   2.361   3.053   1.093 -1.9574 -0.0871  0.2703
  815SOL     OW12358   4.269   2.571   1.165 -0.2393  0.1250  0.3779
  815SOL    HW112359   4.190   2.548   1.222 -0.6793  0.4059 -0.1075
  815SOL    HW212360   4.347   2.513   1.191 -1.1199 -1.4235 -0.3527
  816SOL     OW12361   2.924   3.338   0.249  0.1798  0.4564  0.3907
  816SOL    HW112362   2.949   3.243   0.265 -3.4022 -0.7950 -0.9050
  816SOL    HW212363   2.896   3.381   0.335 -0.6131 -0.4549  0.5982
  817SOL     OW12364   2.906   0.421   1.901 -0.4643 -0.3737  0.1661
  817SOL    HW112365   2.835   0.376   1.956 -0.3169  1.2539  1.7269
  817SOL    HW212366   2.886   0.408   1.804 -0.9163 -3.0010  0.5629
  818SOL     OW12367   1.974   3.767   0.917 -0.0263  0.4136 -0.4115
  818SOL    HW112368   1.948   3.670   0.915  2.9481 -0.3963 -1.2897
  818SOL    HW212369   1.936   3.813   0.837 -2.4620  0.3023  0.6118
  819SOL     OW12370   3.385   0.979   2.066 -0.1361 -0.2693  0.9232
  819SOL    HW112371   3.299   0.952   2.021  0.5110  1.4814 -1.4906
  819SOL    HW212372   3.364   1.035   2.146 -1.2956 -1.4619  1.4704
  820SOL     OW12373   9.252   4.155   2.629 -0.5430 -0.5817  0.8187
  820SOL    HW112374   9.297   4.240   2.657  0.2390 -1.6280  2.7773
  820SOL    HW212375   9.197   4.120   2.704 -0.3720 -2.1350  0.2318
  821SOL     OW12376   0.730   5.444   0.077  0.2623  0.3543  0.6089
  821SOL    HW112377   0.751   5.349   0.101  2.0823  0.3022 -1.0533
  821SOL    HW212378   0.775   5.506   0.141  0.6624  0.1301  0.5436
  822SOL     OW12379   4.388   0.635   1.595 -0.2450  0.8791  0.4086
  822SOL    HW112380   4.435   0.720   1.571 -0.8006  0.9512 -0.4520
  822SOL    HW212381   4.318   0.653   1.665  1.3037  0.6883  2.0453
  823SOL     OW12382   4.008   8.333   0.820 -0.7535  0.5687  0.4942
  823SOL    HW112383   4.063   8.271   0.875 -0.4143 -0.0891 -0.5817
  823SOL    HW212384   4.015   8.308   0.724  0.2830  2.9755 -0.0746
  824SOL     OW12385   9.672   4.286   0.888  0.1184 -0.0729  0.6649
  824SOL    HW112386   9.761   4.244   0.903 -0.3959 -1.7204 -0.6988
  824SOL    HW212387   9.602   4.236   0.939 -0.2162  0.4153  0.6954
  825SOL     OW12388   3.175   5.647   1.593  0.6848 -0.0491 -0.2158
  825SOL    HW112389   3.088   5.604   1.573  0.6987  0.1955 -0.8155
  825SOL    HW212390   3.239   5.579   1.630  0.0584 -0.1010  0.7741
  826SOL     OW12391   3.668   9.746   1.841 -0.0787  0.1426 -0.4972
  826SOL    HW112392   3.694   9.776   1.933  0.0692  4.2170 -1.7454
  826SOL    HW212393   3.601   9.672   1.847  0.3235 -0.0093  2.8513
  827SOL     OW12394   3.569   1.409   1.736 -0.5168  0.3929  0.0345
  827SOL    HW112395   3.663   1.441   1.751 -0.8725  0.0027  3.6865
  827SOL    HW212396   3.571   1.317   1.697  0.6336  0.4926 -0.1758
  828SOL     OW12397   3.408   4.249   0.821 -0.6016  1.1327 -0.7731
  828SOL    HW112398   3.337   4.214   0.882  0.1935  0.9540  0.0530
  828SOL    HW212399   3.498   4.240   0.865 -0.1188  1.8370 -1.6003
  829SOL     OW12400   3.771   9.894   0.975  0.2211  0.2338  0.0624
  829SOL    HW112401   3.800   9.986   1.001 -1.4538  0.4646  1.2282
  829SOL    HW212402   3.674   9.896   0.949  0.5019 -0.9762 -1.1317
  830SOL     OW12403   2.586   6.658   0.187  0.4561  0.6736 -0.4462
  830SOL    HW112404   2.577   6.744   0.236 -0.7937 -0.1594  0.8493
  830SOL    HW212405   2.575   6.582   0.251  2.4416 -0.4729 -1.4011
  831SOL     OW12406   0.602   5.380   2.491 -0.2834 -0.2996 -0.1855
  831SOL    HW112407   0.522   5.435   2.465 -0.1828 -0.0892 -0.0483
  831SOL    HW212408   0.574   5.285   2.504 -0.7735  0.0320  1.2118
  832SOL     OW12409   3.190   5.935   2.063  0.0745 -0.1162 -0.2971
  832SOL    HW112410   3.123   6.007   2.047  1.4119  1.1729 -0.1529
  832SOL    HW212411   3.228   5.904   1.976 -1.1363 -1.2895 -0.4295
  833SOL     OW12412   1.409   3.794   1.601 -0.5912  0.5469  0.4140
  833SOL    HW112413   1.369   3.703   1.604  0.4866  0.1087  4.1189
  833SOL    HW212414   1.358   3.855   1.663  0.7171  1.5741  0.4984
  834SOL     OW12415   2.003   2.703   1.320 -0.0948  0.2453 -0.1332
  834SOL    HW112416   1.961   2.717   1.230  2.1129 -0.5198 -1.3142
  834SOL    HW212417   2.059   2.619   1.318  1.1204  0.9913  1.5191
  835SOL     OW12418   4.697   0.250   2.113 -0.9228 -0.6047  0.0491
  835SOL    HW112419   4.636   0.181   2.152 -1.4267 -1.1066 -1.5555
  835SOL    HW212420   4.778   0.204   2.075 -1.4862 -0.3836 -1.4510
  836SOL     OW12421   3.234   2.962   0.884 -0.2678  0.7564  0.4641
  836SOL    HW112422   3.168   3.013   0.938 -0.2188  1.6621 -0.3126
  836SOL    HW212423   3.326   2.976   0.921 -0.7714 -2.6237  3.1544
  837SOL     OW12424   3.136   1.932   1.601 -0.3950  0.1426  0.3985
  837SOL    HW112425   3.125   1.905   1.505  0.7664 -2.2188  0.8818
  837SOL    HW212426   3.204   2.004   1.608 -0.7034  0.5467 -0.5716
  838SOL     OW12427   3.152   0.369   1.988 -0.4968 -0.7220  0.1348
  838SOL    HW112428   3.212   0.449   1.990  1.1306 -1.9163  0.3123
  838SOL    HW212429   3.061   0.396   1.956  0.2172  1.0688 -0.4346
  839SOL     OW12430   2.191   6.129   2.389 -0.3349  0.7332  0.6942
  839SOL    HW112431   2.162   6.212   2.436 -2.1898 -0.6754  2.1135
  839SOL    HW212432   2.258   6.080   2.446  0.0302  0.7575  0.2912
  840SOL     OW12433   3.403   8.219   0.496  0.4424 -0.2566 -0.5132
  840SOL    HW112434   3.365   8.248   0.584 -1.8442 -0.9332 -1.2536
  840SOL    HW212435   3.478   8.154   0.512  2.1140  1.9579  0.9853
  841SOL     OW12436   3.552   7.590   0.796 -1.0799  0.1504 -0.3901
  841SOL    HW112437   3.468   7.552   0.757 -0.8212  0.7458 -1.5280
  841SOL    HW212438   3.532   7.631   0.885 -1.7550 -0.7912 -0.1015
  842SOL     OW12439   2.022   3.383   2.136  1.1755  0.0774 -0.1313
  842SOL    HW112440   2.003   3.476   2.166 -1.8582 -0.7466  0.6895
  842SOL    HW212441   2.075   3.335   2.207  0.5801  0.4375  0.5642
  843SOL     OW12442   2.735   6.873   1.186  0.1405  0.3143 -0.4587
  843SOL    HW112443   2.785   6.943   1.237  0.2481 -1.7314  2.3245
  843SOL    HW212444   2.740   6.786   1.235 -1.1490 -1.3472 -3.1659
  844SOL     OW12445   2.484   7.318   0.417 -0.1114 -0.2520 -0.4947
  844SOL    HW112446   2.452   7.349   0.327  0.3807 -1.5199 -1.1202
  844SOL    HW212447   2.462   7.221   0.429  0.4024 -0.2538  0.4770
  845SOL     OW12448   3.275   4.983   2.315 -0.1313 -0.4790 -0.5572
  845SOL    HW112449   3.369   5.010   2.292 -0.1302 -0.1995 -0.2262
  845SOL    HW212450   3.263   4.985   2.414 -1.0084  1.2200 -0.6850
  846SOL     OW12451   3.356   2.950   2.045 -0.2610 -0.0995 -0.2551
  846SOL    HW112452   3.420   3.026   2.034  2.0717 -2.0191 -0.3313
  846SOL    HW212453   3.342   2.932   2.142 -1.1715  0.6809 -0.2291
  847SOL     OW12454   2.875   8.941   1.842 -0.2361 -0.0217  0.1734
  847SOL    HW112455   2.932   8.951   1.923 -1.6384  1.3492  1.0270
  847SOL    HW212456   2.873   8.845   1.813  0.3941 -0.4902  1.6716
  848SOL     OW12457   2.810   1.780   1.233 -0.0125 -0.4362  0.5727
  848SOL    HW112458   2.833   1.810   1.326 -2.9142  0.8926  0.8864
  848SOL    HW212459   2.839   1.684   1.222  3.4718  0.4009  1.6588
  849SOL     OW12460   0.309   5.020   1.792 -0.6400 -0.5463  0.3935
  849SOL    HW112461   0.351   5.099   1.747 -2.1488  0.8134  1.2969
  849SOL    HW212462   0.379   4.969   1.843  0.6599 -0.8110 -1.6209
  850SOL     OW12463   3.907   8.551   2.068 -0.4892 -0.4328  0.1063
  850SOL    HW112464   3.979   8.588   2.009 -1.1327  1.1903  0.3105
  850SOL    HW212465   3.935   8.561   2.164 -1.2072  0.7492  0.2122
  851SOL     OW12466   3.245   8.438   0.823  0.6529 -0.1830 -1.0143
  851SOL    HW112467   3.249   8.513   0.757  2.3140 -0.2289 -0.9782
  851SOL    HW212468   3.262   8.351   0.777 -1.3742 -0.5760 -1.0723
  852SOL     OW12469   4.229   1.085   1.282  0.2379 -0.0131  0.4120
  852SOL    HW112470   4.208   1.012   1.217 -1.8728 -0.6739  1.7807
  852SOL    HW212471   4.207   1.054   1.375  2.2392  1.2736  1.3549
  853SOL     OW12472   1.270   6.156   1.663  0.4392  0.4567 -0.1832
  853SOL    HW112473   1.303   6.064   1.642 -0.3777  0.1508 -0.1704
  853SOL    HW212474   1.210   6.187   1.589 -1.7618 -0.2757  1.2320
  854SOL     OW12475   3.770   9.920   2.057 -0.3117 -0.2518 -0.5853
  854SOL    HW112476   3.825   9.993   2.015 -0.7408 -0.3858 -1.3936
  854SOL    HW212477   3.730   9.953   2.142  0.1484  0.1977 -0.5415
  855SOL     OW12478   5.197   2.843   1.468 -0.0542  0.7716  0.2211
  855SOL    HW112479   5.239   2.753   1.462 -1.0840  0.3667 -1.2517
  855SOL    HW212480   5.134   2.846   1.545  0.4688  0.4451  0.6629
  856SOL     OW12481   3.511   8.641   1.942  0.4598 -0.7538 -0.4313
  856SOL    HW112482   3.606   8.651   1.911  0.4522 -2.5143 -1.1045
  856SOL    HW212483   3.476   8.552   1.912 -1.2926 -0.2611  0.1223
  857SOL     OW12484   1.394   4.989   2.303 -0.4894 -0.4840 -1.0829
  857SOL    HW112485   1.367   4.904   2.258 -3.8672 -0.1288  0.1413
  857SOL    HW212486   1.341   5.065   2.265 -0.8529  0.3443  1.0334
  858SOL     OW12487   2.581   3.881   1.643 -0.3007  0.6034  0.1563
  858SOL    HW112488   2.681   3.892   1.649 -0.2998  0.9690 -0.5284
  858SOL    HW212489   2.557   3.787   1.669  0.1495  0.7307  1.0688
  859SOL     OW12490   0.383   5.469   0.470  0.0752 -0.4392  0.4912
  859SOL    HW112491   0.399   5.371   0.460  1.0424 -0.2686  0.4026
  859SOL    HW212492   0.357   5.489   0.565 -2.0431 -1.0414  0.0685
  860SOL     OW12493   9.470   4.673   1.187  0.1116 -0.5812 -0.3900
  860SOL    HW112494   9.549   4.720   1.227 -0.7109  1.8840 -1.5253
  860SOL    HW212495   9.496   4.632   1.099 -0.4671  2.6300 -2.1425
  861SOL     OW12496   2.423   5.842   2.370  0.9110 -0.4750  0.7085
  861SOL    HW112497   2.417   5.748   2.336  1.8509 -0.1111 -0.5090
  861SOL    HW212498   2.377   5.849   2.458  0.4364 -1.9752  0.5879
  862SOL     OW12499   1.632   6.061   0.857 -0.1857  0.2891  0.3512
  862SOL    HW112500   1.686   5.982   0.885 -0.4230 -0.1065 -0.2983
  862SOL    HW212501   1.647   6.136   0.921  2.0749  0.5961 -0.5048
  863SOL     OW12502   9.562   5.638   0.310  0.3369  0.2932 -0.0025
  863SOL    HW112503   9.505   5.626   0.228 -1.2389  0.6610  1.0282
  863SOL    HW212504   9.606   5.551   0.332 -1.8859 -0.7048  0.6758
  864SOL     OW12505   3.343   3.899   1.676 -0.5225 -0.0720  0.2036
  864SOL    HW112506   3.374   3.992   1.657 -0.1671 -0.1067  0.5964
  864SOL    HW212507   3.266   3.902   1.740  0.0749 -0.0897  0.9292
  865SOL     OW12508   4.155   3.044   2.734  0.0186 -0.1331  0.3595
  865SOL    HW112509   4.132   3.139   2.713 -0.0119  0.2779  2.1695
  865SOL    HW212510   4.226   3.012   2.672  2.0883  2.0212  1.5582
  866SOL     OW12511   2.596   2.501   1.232  0.3579  0.2819 -0.4619
  866SOL    HW112512   2.645   2.424   1.273  0.6687  0.6662 -0.1068
  866SOL    HW212513   2.588   2.486   1.133 -1.8719 -1.4622 -0.0568
  867SOL     OW12514   1.874   2.942   0.906  0.0461  0.5748 -0.2532
  867SOL    HW112515   1.957   2.990   0.878 -1.4227  2.5315 -1.3959
  867SOL    HW212516   1.798   2.971   0.847 -1.8731  0.3552  2.0538
  868SOL     OW12517   3.900   3.529   2.721 -0.8738  0.3819  0.4649
  868SOL    HW112518   3.807   3.556   2.697 -1.5370 -1.5545  0.7394
  868SOL    HW212519   3.902   3.494   2.815  0.1007  0.2770  0.4138
  869SOL     OW12520   1.839   3.055   1.592  0.3738 -0.6986 -0.8976
  869SOL    HW112521   1.840   3.103   1.505  2.1873  0.8720 -0.0373
  869SOL    HW212522   1.895   2.972   1.585  0.2542 -0.7478 -1.2977
  870SOL     OW12523   1.446   5.443   1.527  0.6103 -0.3316  0.8837
  870SOL    HW112524   1.455   5.415   1.432  1.5797 -0.7221  1.0924
  870SOL    HW212525   1.389   5.526   1.532 -0.2160 -0.8462  0.0591
  871SOL     OW12526   1.943   6.210   1.508 -0.2386 -0.2403 -0.1440
  871SOL    HW112527   1.970   6.282   1.444 -1.0223 -0.7844 -1.1012
  871SOL    HW212528   2.020   6.149   1.524 -0.3513 -0.7510 -1.4639
  872SOL     OW12529   5.255   3.097   1.120 -0.0216  0.4726 -0.1501
  872SOL    HW112530   5.187   3.149   1.068 -0.9469 -1.4661 -0.9071
  872SOL    HW212531   5.241   3.112   1.217 -1.0454  0.7050 -0.3280
  873SOL     OW12532   1.735   5.912   0.110 -0.6313 -0.1478  0.7705
  873SOL    HW112533   1.682   5.985   0.152 -0.1926  0.5878  0.0559
  873SOL    HW212534   1.673   5.840   0.078 -1.2119  0.7174 -0.0825
  874SOL     OW12535   4.139   1.618   1.444  0.2450  0.3970 -0.1259
  874SOL    HW112536   4.106   1.531   1.408 -0.8109  0.2653  1.1305
  874SOL    HW212537   4.238   1.614   1.454  0.1030 -1.0167  0.8613
  875SOL     OW12538   3.071   1.823   0.192  0.0138 -0.0764  0.3541
  875SOL    HW112539   3.153   1.816   0.135 -0.8222 -2.1996 -0.6663
  875SOL    HW212540   3.077   1.904   0.250  2.1303  0.6340 -0.8024
  876SOL     OW12541   4.159   3.403   1.404  0.0958 -0.3290  0.2852
  876SOL    HW112542   4.177   3.435   1.498 -2.5691 -0.4120  0.8791
  876SOL    HW212543   4.143   3.304   1.405  0.0158 -0.3210 -0.2496
  877SOL     OW12544   3.473   3.317   0.963  0.7279 -0.1540  0.1790
  877SOL    HW112545   3.490   3.257   0.885  0.4494  2.3875 -1.9440
  877SOL    HW212546   3.530   3.399   0.954 -0.4292  0.8618  1.8637
  878SOL     OW12547   4.009   3.686   2.518 -0.0740  0.9029 -0.0618
  878SOL    HW112548   3.986   3.624   2.593  0.2389  1.1563  0.2476
  878SOL    HW212549   3.925   3.721   2.477 -0.2743  2.8361  1.9057
  879SOL     OW12550   3.468   0.918   1.207  0.3116 -0.2787 -0.2169
  879SOL    HW112551   3.549   0.945   1.259 -0.2523  0.0124  0.5295
  879SOL    HW212552   3.495   0.859   1.131  1.4037  1.1480 -0.9601
  880SOL     OW12553   1.617   4.974   0.336 -0.1218 -0.0338 -0.0205
  880SOL    HW112554   1.520   4.981   0.312 -0.0921 -0.3171 -0.2177
  880SOL    HW212555   1.653   5.066   0.354 -0.3135  0.1145 -0.3882
  881SOL     OW12556   4.058   0.660   1.474 -0.3381 -0.2586 -0.1079
  881SOL    HW112557   4.115   0.591   1.520  1.3392 -0.1652 -1.9699
  881SOL    HW212558   4.109   0.746   1.468 -1.3593  0.3363 -0.2532
  882SOL     OW12559   2.726   6.935   2.054 -0.3364 -0.5164  0.4551
  882SOL    HW112560   2.693   6.937   1.960  0.9357 -0.2394  0.0082
  882SOL    HW212561   2.825   6.945   2.055 -0.3691 -0.1974  1.8441
  883SOL     OW12562   3.608   1.530   2.806  0.2066 -0.6977  0.0244
  883SOL    HW112563   3.706   1.519   2.786  0.9430  1.8713  1.9302
  883SOL    HW212564   3.597   1.594   2.882 -3.0527  0.2227 -1.1525
  884SOL     OW12565   3.387   6.009   2.804 -0.5662  0.0453  0.0577
  884SOL    HW112566   3.445   5.928   2.799  0.1346  0.4853  0.9794
  884SOL    HW212567   3.414   6.074   2.733  0.6790  0.6342  1.0457
  885SOL     OW12568   1.462   4.150   1.329  0.2191  0.0156  0.6922
  885SOL    HW112569   1.362   4.148   1.335  0.2549 -0.3930  1.2379
  885SOL    HW212570   1.492   4.240   1.297 -0.3725 -0.2120 -0.5233
  886SOL     OW12571   4.144   1.489   2.207 -0.8183 -0.7286  0.2247
  886SOL    HW112572   4.172   1.493   2.111 -1.7189  0.4761 -0.0028
  886SOL    HW212573   4.058   1.539   2.219  0.1173  0.5466  1.9415
  887SOL     OW12574   4.224   4.509   0.992  0.9240 -0.1209  0.1661
  887SOL    HW112575   4.138   4.466   1.021  1.1779  0.7395  2.2797
  887SOL    HW212576   4.208   4.607   0.977  1.0799 -0.3346 -1.4625
  888SOL     OW12577   0.955   4.609   2.773  0.4457 -0.4453 -0.3911
  888SOL    HW112578   0.964   4.688   2.712 -2.2727  0.2490  0.0100
  888SOL    HW212579   0.937   4.640   2.866 -1.7522 -1.4945 -0.4200
  889SOL     OW12580   3.114   4.790   1.506 -0.4311 -0.0533  0.1158
  889SOL    HW112581   3.040   4.822   1.448 -1.6788 -0.7650  1.3057
  889SOL    HW212582   3.201   4.829   1.474 -1.1166 -0.3507 -2.1419
  890SOL     OW12583   4.031   1.386   1.331 -0.5129 -0.3770 -1.0758
  890SOL    HW112584   3.980   1.300   1.334  0.3585 -0.8698 -0.0604
  890SOL    HW212585   4.047   1.413   1.236  0.2051 -1.9344 -1.4085
  891SOL     OW12586   1.939   3.506   0.897  0.6638 -0.2012  0.8373
  891SOL    HW112587   1.981   3.434   0.841  1.6713  0.1934  1.0617
  891SOL    HW212588   1.895   3.465   0.977  0.2829 -0.6596  0.3945
  892SOL     OW12589   3.268   2.303   2.535  0.0750  0.0056  0.1786
  892SOL    HW112590   3.187   2.343   2.492  1.3665  1.4609 -0.9148
  892SOL    HW212591   3.323   2.375   2.577  1.3520 -0.8637  0.0289
  893SOL     OW12592   1.956   5.306   0.158  0.5614  0.4750  0.4460
  893SOL    HW112593   2.035   5.260   0.198 -0.3657 -0.2887  1.4205
  893SOL    HW212594   1.979   5.339   0.066  0.9620 -2.8606 -0.7288
  894SOL     OW12595   4.575   2.788   0.706  0.1446 -0.1406  0.1868
  894SOL    HW112596   4.476   2.784   0.694  0.0307  0.4383  0.8875
  894SOL    HW212597   4.620   2.779   0.617 -0.5601  0.4990 -0.2397
  895SOL     OW12598   2.170   3.146   0.521 -0.2878 -0.0661 -0.0053
  895SOL    HW112599   2.126   3.087   0.589  0.3557 -0.4157  0.1155
  895SOL    HW212600   2.231   3.092   0.464  2.9117  0.9814  2.2719
  896SOL     OW12601   3.586   9.567   2.275 -0.2663  0.1237 -0.5920
  896SOL    HW112602   3.684   9.555   2.255 -0.0239 -0.6579  1.0310
  896SOL    HW212603   3.566   9.533   2.366 -2.4112 -1.4174 -1.5850
  897SOL     OW12604   3.162   9.947   0.523 -0.4463 -0.1038 -0.1236
  897SOL    HW112605   3.229   9.891   0.571  0.5084 -0.1658 -1.5029
  897SOL    HW212606   3.111  10.003   0.588  0.6623 -0.3663  0.9616
  898SOL     OW12607   1.247   3.675   2.149 -0.3911  0.1534 -0.4244
  898SOL    HW112608   1.204   3.745   2.207 -0.5433  1.4068 -2.0049
  898SOL    HW212609   1.335   3.710   2.115 -0.0188 -0.8076 -0.4602
  899SOL     OW12610   2.518   7.371   2.471  0.6677 -0.3233  0.4656
  899SOL    HW112611   2.616   7.352   2.463  1.0819  0.8358  2.4857
  899SOL    HW212612   2.496   7.395   2.565 -1.6044 -0.7051  0.0680
  900SOL     OW12613   1.518   3.782   0.930  0.5386 -0.1625 -0.1787
  900SOL    HW112614   1.553   3.697   0.891 -0.6604 -0.5968 -0.3427
  900SOL    HW212615   1.437   3.811   0.879 -0.2484 -0.0132  1.1289
  901SOL     OW12616   3.674   2.492   0.792  0.2093  0.1838  0.0185
  901SOL    HW112617   3.615   2.411   0.786  0.4593  0.1027 -1.5286
  901SOL    HW212618   3.678   2.523   0.886 -2.3281  0.1831  0.1666
  902SOL     OW12619   1.023   3.904   1.110 -0.3776  0.3527  0.0352
  902SOL    HW112620   1.005   3.817   1.063  1.4733  0.8815 -1.7432
  902SOL    HW212621   1.107   3.897   1.163  0.6508  1.4876 -1.3780
  903SOL     OW12622   0.484   5.629   1.593  0.1430 -0.6054  0.3928
  903SOL    HW112623   0.554   5.699   1.608  0.3790 -0.5313 -0.9946
  903SOL    HW212624   0.475   5.612   1.495  0.3571 -2.7801  0.7300
  904SOL     OW12625   0.596   5.010   0.297  0.7342  0.5163 -0.2594
  904SOL    HW112626   0.666   5.010   0.369  0.3083 -0.4689  0.1548
  904SOL    HW212627   0.591   4.919   0.256 -0.9887  0.3219  0.3704
  905SOL     OW12628   2.333   6.440   0.511  0.2244  0.8856  0.6108
  905SOL    HW112629   2.369   6.475   0.598  1.7777 -3.3848  1.8217
  905SOL    HW212630   2.241   6.403   0.526  0.4514  0.2444  0.4623
  906SOL     OW12631   2.708   6.235   0.326  0.3032  0.0771  0.1715
  906SOL    HW112632   2.780   6.244   0.395  0.1328 -1.6398  0.6012
  906SOL    HW212633   2.630   6.186   0.366 -0.1249 -0.1962 -0.9873
  907SOL     OW12634   2.298   6.063   1.772  0.0976 -0.0920  0.2885
  907SOL    HW112635   2.233   6.024   1.837  1.7864 -0.1230  2.0325
  907SOL    HW212636   2.372   5.998   1.755  1.5597  1.2948  1.1721
  908SOL     OW12637   4.178   2.468   0.311  0.1206  0.1765 -0.1240
  908SOL    HW112638   4.118   2.498   0.386  0.2152  0.0824 -0.0109
  908SOL    HW212639   4.218   2.379   0.334  0.2072  0.1820 -0.2540
  909SOL     OW12640   4.423   0.138   1.068 -0.2751  0.1876  0.5125
  909SOL    HW112641   4.432   0.094   1.158  0.4928  2.6744  1.7146
  909SOL    HW212642   4.387   0.231   1.081  1.1225  1.0499 -1.6232
  910SOL     OW12643   0.425   5.241   0.286  0.1548  0.2048 -0.0441
  910SOL    HW112644   0.381   5.251   0.197  0.3822 -1.0300 -0.3099
  910SOL    HW212645   0.497   5.172   0.280  0.3775  0.3324  1.0238
  911SOL     OW12646   1.866   4.539   0.078 -0.6712  0.8370  0.3504
  911SOL    HW112647   1.813   4.603   0.133  0.2051  0.1734  2.0147
  911SOL    HW212648   1.961   4.568   0.075 -0.0373 -0.9774  2.0873
  912SOL     OW12649   2.018   6.241   1.150 -0.7193 -0.1174  0.2332
  912SOL    HW112650   2.034   6.332   1.190 -2.6199 -0.0119  0.8299
  912SOL    HW212651   2.054   6.171   1.212 -2.1419  0.1206  1.3761
  913SOL     OW12652   4.324   3.432   1.943  0.0895  0.3401  0.2875
  913SOL    HW112653   4.361   3.357   1.997 -1.3557 -0.2767  0.4555
  913SOL    HW212654   4.268   3.490   2.002 -3.0831 -1.4167 -0.8810
  914SOL     OW12655   2.160   7.349   1.167 -0.4602  0.0244  0.1827
  914SOL    HW112656   2.229   7.320   1.100  1.6087  0.1441  2.1780
  914SOL    HW212657   2.160   7.449   1.173 -2.5963  0.1635 -1.5872
  915SOL     OW12658   2.473   4.634   1.919 -0.3887 -0.1005  0.3393
  915SOL    HW112659   2.563   4.663   1.886 -1.2635  1.5853 -0.6710
  915SOL    HW212660   2.448   4.548   1.874  0.2861 -0.0586 -0.1303
  916SOL     OW12661   3.549   0.769   2.164 -0.1752 -1.0318 -0.1458
  916SOL    HW112662   3.629   0.733   2.117  1.5381  0.4250  1.5728
  916SOL    HW212663   3.515   0.849   2.116  1.1965  0.0802  0.6843
  917SOL     OW12664   3.716   0.264   0.249 -0.4764  0.0121 -0.9591
  917SOL    HW112665   3.657   0.227   0.321  1.4085  0.7414  1.0345
  917SOL    HW212666   3.727   0.196   0.177 -1.1740 -1.3547  0.1989
  918SOL     OW12667   9.759   4.080   0.234  0.4271 -0.0349 -0.2533
  918SOL    HW112668   9.666   4.043   0.238  0.7214 -1.4145 -3.9874
  918SOL    HW212669   9.755   4.180   0.232 -1.1811 -0.1072 -2.8272
  919SOL     OW12670   2.345   6.275   2.209 -0.0801  0.0419 -0.8173
  919SOL    HW112671   2.283   6.211   2.255  0.1992  1.2461  1.2872
  919SOL    HW212672   2.439   6.257   2.239 -0.1047  2.0107  0.4675
  920SOL     OW12673   1.445   5.716   1.141 -0.4890  0.3049  0.4395
  920SOL    HW112674   1.387   5.756   1.213 -0.9266 -0.9698  0.8102
  920SOL    HW212675   1.414   5.623   1.121  0.1290  0.3625 -0.8517
  921SOL     OW12676   3.177   0.449   2.655  0.4473 -0.2635  0.3670
  921SOL    HW112677   3.119   0.369   2.641 -0.1050 -0.1713  1.9655
  921SOL    HW212678   3.125   0.519   2.704  1.0429  0.9321 -0.6745
  922SOL     OW12679   9.995   5.142   2.515  0.5366  0.6615  0.0675
  922SOL    HW112680  10.013   5.187   2.602  1.7090  0.8358 -0.2553
  922SOL    HW212681  10.079   5.100   2.481 -0.1177 -0.1716 -0.5435
  923SOL     OW12682   3.236   2.203   2.019 -0.0333 -0.2105  0.3093
  923SOL    HW112683   3.302   2.221   1.946  0.2927 -2.5393 -0.0142
  923SOL    HW212684   3.247   2.271   2.092  1.4002  0.5792 -0.6179
  924SOL     OW12685   0.017   5.370   1.468  0.0532 -0.0697 -0.6139
  924SOL    HW112686   0.018   5.313   1.550 -0.6041 -0.2492 -0.7296
  924SOL    HW212687  -0.031   5.456   1.487  1.5538  0.7079 -0.2703
  925SOL     OW12688   2.146   4.234   1.882 -0.6768 -0.4545  0.8775
  925SOL    HW112689   2.212   4.165   1.912  1.2717  1.4824  1.1364
  925SOL    HW212690   2.183   4.325   1.898 -2.9796  0.6722  0.0044
  926SOL     OW12691   2.010   2.452   0.634  0.1755 -0.6162 -0.2876
  926SOL    HW112692   2.084   2.413   0.580 -0.1172  1.6681 -2.4568
  926SOL    HW212693   2.021   2.552   0.640 -0.1360 -0.7141  3.4282
  927SOL     OW12694   1.914   6.661   0.283  0.9111 -0.3302 -0.1591
  927SOL    HW112695   1.889   6.740   0.339  0.7528 -0.2379 -0.3599
  927SOL    HW212696   2.013   6.656   0.274  0.9183 -0.1056 -0.2166
  928SOL     OW12697   4.497   3.135   0.886 -0.4466 -0.3665 -0.2037
  928SOL    HW112698   4.510   3.225   0.929 -0.0244 -0.1915 -0.6928
  928SOL    HW212699   4.404   3.128   0.851 -0.3154  0.0937 -0.6512
  929SOL     OW12700   1.670   6.342   0.606  0.9140 -0.2807  0.1151
  929SOL    HW112701   1.602   6.289   0.556  0.9178 -0.9168  0.7719
  929SOL    HW212702   1.710   6.411   0.546 -1.8340  1.5440  0.3087
  930SOL     OW12703   3.123   6.728   0.135 -0.3158 -0.9530  0.2600
  930SOL    HW112704   3.087   6.796   0.199 -0.3774 -1.8443  1.1779
  930SOL    HW212705   3.072   6.643   0.144  0.3168 -1.3980 -0.2806
  931SOL     OW12706   3.018   9.930   0.967  1.2180 -0.0229 -0.3488
  931SOL    HW112707   2.987   9.997   0.899  1.5521  0.5786  0.0801
  931SOL    HW212708   3.089   9.872   0.927  1.4304  0.3441 -0.5094
  932SOL     OW12709   3.883   0.736   2.657 -0.2039  0.5953 -0.0685
  932SOL    HW112710   3.819   0.724   2.733  0.5849  4.1883  1.2869
  932SOL    HW212711   3.975   0.712   2.687 -0.0181  1.2559 -0.0913
  933SOL     OW12712   0.571   5.651   0.406 -0.5876 -0.1852  0.3633
  933SOL    HW112713   0.568   5.707   0.488  0.0979  0.6097 -0.1471
  933SOL    HW212714   0.495   5.586   0.407 -1.1537  0.4825  1.1462
  934SOL     OW12715   4.173   1.542   0.835 -0.2267 -0.6423 -0.2029
  934SOL    HW112716   4.261   1.504   0.807  0.6922 -0.2063  1.9961
  934SOL    HW212717   4.123   1.474   0.889 -0.9694 -0.6530 -0.8887
  935SOL     OW12718   1.764   3.569   1.998  0.1707 -0.7455  0.0980
  935SOL    HW112719   1.750   3.524   2.086  0.8009 -1.4451 -0.1534
  935SOL    HW212720   1.857   3.605   1.992  0.4862 -1.6681 -0.7075
  936SOL     OW12721   4.261   9.450   2.124  0.4559 -0.2927 -0.0360
  936SOL    HW112722   4.344   9.397   2.106  1.2220  0.0532  2.2834
  936SOL    HW212723   4.184   9.387   2.138  0.3606 -0.6215 -1.9191
  937SOL     OW12724   1.567   3.139   1.464  0.7141 -0.3099 -0.0650
  937SOL    HW112725   1.573   3.074   1.540  0.0989 -0.7599 -0.3943
  937SOL    HW212726   1.519   3.221   1.494  0.6004 -0.4276  0.0775
  938SOL     OW12727   1.907   6.521   2.622 -0.0754 -0.4160  0.6274
  938SOL    HW112728   1.831   6.477   2.574 -0.2556 -0.4411  0.9279
  938SOL    HW212729   1.878   6.543   2.716 -0.3761  1.3903  0.1304
  939SOL     OW12730   2.350   2.799   1.942  0.1149  0.1149 -0.5049
  939SOL    HW112731   2.412   2.855   1.886  0.8750  0.0257  0.2316
  939SOL    HW212732   2.267   2.851   1.961  0.2191  0.4720 -0.9915
  940SOL     OW12733   0.436   5.644   2.155 -0.4927  0.6537 -0.0317
  940SOL    HW112734   0.394   5.596   2.232  0.8244 -0.1329  0.2080
  940SOL    HW212735   0.517   5.694   2.187  0.5850 -0.4011 -1.0582
  941SOL     OW12736   4.506   9.289   2.170  0.1624 -0.1095 -0.5657
  941SOL    HW112737   4.578   9.274   2.237  0.1431 -0.9520 -0.7350
  941SOL    HW212738   4.422   9.245   2.200  0.0778 -0.2553 -1.0115
  942SOL     OW12739   3.049   4.648   2.057 -0.0073  0.4632  0.0321
  942SOL    HW112740   2.958   4.638   2.097 -0.5080 -0.2837 -1.2565
  942SOL    HW212741   3.118   4.626   2.126 -0.8836 -2.2611  0.1315
  943SOL     OW12742   2.305   4.352   1.473  0.0215  0.5310  0.1629
  943SOL    HW112743   2.371   4.340   1.399 -0.2929  0.4258 -0.1024
  943SOL    HW212744   2.253   4.268   1.486  0.5736  0.3134  0.9914
  944SOL     OW12745   3.603   8.014   1.721 -0.1430  0.0956  0.1411
  944SOL    HW112746   3.625   7.942   1.656 -1.0257 -0.8254  0.8610
  944SOL    HW212747   3.583   8.099   1.671 -0.4153 -0.4969 -0.7687
  945SOL     OW12748   1.744   4.814   0.744 -0.2381 -0.1627  0.2394
  945SOL    HW112749   1.839   4.838   0.764 -0.1875 -0.4887  0.3889
  945SOL    HW212750   1.739   4.718   0.717 -0.6501 -0.3967  1.1393
  946SOL     OW12751   3.284   1.738   2.832  0.1117  0.0864 -0.2598
  946SOL    HW112752   3.297   1.789   2.747 -0.4871  0.7370  0.0458
  946SOL    HW212753   3.373   1.726   2.877  0.2348  0.9892 -0.2515
  947SOL     OW12754   4.013   4.459   0.600  0.2727  0.4208 -0.3086
  947SOL    HW112755   3.971   4.484   0.687  0.7738 -0.6509  0.2475
  947SOL    HW212756   4.099   4.410   0.617 -0.0977 -0.6355 -1.3832
  948SOL     OW12757   2.278   6.682   0.980 -0.2410  0.6515 -0.6540
  948SOL    HW112758   2.307   6.687   1.076 -2.0500  1.1759 -0.1287
  948SOL    HW212759   2.293   6.770   0.936  1.9227  0.0137 -1.2671
  949SOL     OW12760   9.037   5.174   1.523 -0.1250  0.6289  0.3228
  949SOL    HW112761   9.001   5.239   1.456  1.0549  0.7690 -0.1914
  949SOL    HW212762   9.112   5.123   1.482 -1.6465 -1.7419  0.4162
  950SOL     OW12763   3.108   4.894   1.975  0.5669 -0.2279  0.0327
  950SOL    HW112764   3.082   4.805   2.014  2.5842 -0.1891  1.5472
  950SOL    HW212765   3.205   4.895   1.955  0.2048  1.0119 -1.7791
  951SOL     OW12766   3.002   2.204   1.882 -0.2059 -0.5914 -0.2910
  951SOL    HW112767   2.968   2.294   1.908  1.8137  0.0376  0.2858
  951SOL    HW212768   3.093   2.190   1.922 -0.8257 -3.2081  0.2814
  952SOL     OW12769   4.044   8.469   1.351 -0.3186  0.3253 -0.6395
  952SOL    HW112770   4.055   8.393   1.415  0.9050  0.5772 -0.5450
  952SOL    HW212771   4.124   8.475   1.291 -1.5155 -0.0209 -2.3352
  953SOL     OW12772   4.726   2.714   2.432  0.3979 -0.7082 -0.1644
  953SOL    HW112773   4.720   2.700   2.531  0.5908 -1.0747 -0.2024
  953SOL    HW212774   4.812   2.675   2.399  0.0258 -1.1780 -0.5801
  954SOL     OW12775   4.547   1.424   2.149 -0.0562  0.0422 -0.2765
  954SOL    HW112776   4.511   1.492   2.212 -0.5842 -0.3371 -0.1676
  954SOL    HW212777   4.605   1.469   2.081 -1.9324  0.8901 -1.3627
  955SOL     OW12778   3.506   1.741   0.162 -0.2603 -0.1490 -0.0679
  955SOL    HW112779   3.462   1.778   0.244  1.0577 -1.5038  1.2847
  955SOL    HW212780   3.580   1.801   0.133  0.0137 -0.2450  0.4254
  956SOL     OW12781   1.082   3.786   2.365  0.2227 -0.1066  0.2480
  956SOL    HW112782   1.004   3.841   2.333  0.0299  0.6410  1.9466
  956SOL    HW212783   1.064   3.689   2.348 -1.1403  0.0513  0.7228
  957SOL     OW12784   3.268   6.432   1.434 -0.1051  0.2083  0.1818
  957SOL    HW112785   3.322   6.484   1.500 -1.2550  1.7009 -0.0027
  957SOL    HW212786   3.280   6.334   1.450  1.4380  0.5361  1.1049
  958SOL     OW12787   0.525   4.279   2.472  0.2532  0.0755  0.3262
  958SOL    HW112788   0.585   4.232   2.537  0.2351 -1.9113 -1.0404
  958SOL    HW212789   0.443   4.311   2.519  1.5005  1.1148  1.8209
  959SOL     OW12790   2.125   5.051   2.165  0.5815 -0.0287  0.0947
  959SOL    HW112791   2.026   5.039   2.174  0.5143  0.1995 -0.3151
  959SOL    HW212792   2.161   4.987   2.097  0.8706 -0.7836  0.9442
  960SOL     OW12793   1.342   3.339   2.105  0.1242  0.0723  0.0325
  960SOL    HW112794   1.346   3.429   2.063 -0.8722 -0.2702 -0.8548
  960SOL    HW212795   1.431   3.295   2.099  1.3496  2.0249  2.8982
  961SOL     OW12796   1.854   3.171   2.651 -0.0624 -0.0216  0.1857
  961SOL    HW112797   1.795   3.130   2.581  0.9859 -1.7157  0.2653
  961SOL    HW212798   1.948   3.176   2.617  0.3881 -0.5255  1.3357
  962SOL     OW12799   3.227   1.560   2.413 -0.3883  0.0522 -0.3742
  962SOL    HW112800   3.322   1.592   2.417 -0.1810 -0.6512  0.7833
  962SOL    HW212801   3.196   1.557   2.318  0.8418  0.0125 -0.7835
  963SOL     OW12802   3.404   4.616   0.884  0.0695  0.3503  0.6098
  963SOL    HW112803   3.316   4.638   0.841  1.7621  0.3332 -2.9927
  963SOL    HW212804   3.404   4.520   0.911 -0.4956 -0.0233 -0.6827
  964SOL     OW12805   2.628   5.033   0.379 -0.1647  0.1871 -0.3080
  964SOL    HW112806   2.534   5.060   0.359 -1.0217 -2.0125  0.5365
  964SOL    HW212807   2.644   4.940   0.345  0.6813 -0.6899  2.3369
  965SOL     OW12808   3.174   3.517   0.259  0.3115  0.0331 -0.1976
  965SOL    HW112809   3.100   3.453   0.279 -0.9353  1.3368 -0.5375
  965SOL    HW212810   3.262   3.475   0.282 -0.4090 -2.1078 -1.2171
  966SOL     OW12811   4.416   4.723   1.981 -0.0223  0.3076  0.0997
  966SOL    HW112812   4.479   4.645   1.977 -0.8263 -0.2382 -2.9595
  966SOL    HW212813   4.335   4.697   2.033 -0.0199 -0.7265 -0.3984
  967SOL     OW12814   1.366   4.134   2.529 -0.4215 -0.3796 -0.2239
  967SOL    HW112815   1.306   4.178   2.462 -1.4653 -1.0463  0.2571
  967SOL    HW212816   1.417   4.204   2.578 -2.0974  0.3298  0.5631
  968SOL     OW12817   3.950   5.433   2.521  0.4191  0.1301  0.0972
  968SOL    HW112818   3.858   5.461   2.493 -1.0683 -3.4296  1.1045
  968SOL    HW212819   4.000   5.398   2.442 -0.6677 -1.8579  0.2502
  969SOL     OW12820   0.689   5.679   1.949  0.1748 -0.1645 -0.0250
  969SOL    HW112821   0.592   5.684   1.970  0.5968  1.2956  1.7187
  969SOL    HW212822   0.721   5.585   1.964 -0.8289 -0.5145 -0.0191
  970SOL     OW12823   2.053   3.697   1.186 -0.0612 -1.1486  0.1865
  970SOL    HW112824   2.003   3.612   1.203 -2.0199  0.2533  1.7121
  970SOL    HW212825   2.027   3.733   1.096 -0.6788 -1.2046  0.3380
  971SOL     OW12826   4.056   3.277   2.635 -0.1423  0.0309 -0.0929
  971SOL    HW112827   3.997   3.357   2.645  1.5070  1.3738 -0.9708
  971SOL    HW212828   4.151   3.306   2.622  0.3664 -2.0318 -1.2534
  972SOL     OW12829   2.728   4.138   1.850 -0.0560  0.1695 -0.5821
  972SOL    HW112830   2.633   4.141   1.820 -0.3318  1.0605  0.3618
  972SOL    HW212831   2.766   4.230   1.849  0.8816 -0.2144 -1.1885
  973SOL     OW12832   3.123   7.317   2.054 -0.3873  0.6984  0.6157
  973SOL    HW112833   3.141   7.386   2.124 -2.3461  2.1808 -0.3266
  973SOL    HW212834   3.190   7.326   1.980  1.6739 -0.8523  2.1994
  974SOL     OW12835   2.219   6.615   2.248 -0.0509 -0.1688  0.4732
  974SOL    HW112836   2.136   6.559   2.242  0.1725 -0.3310 -1.7071
  974SOL    HW212837   2.294   6.567   2.201  1.6211 -0.5897  3.4703
  975SOL     OW12838   1.468   3.369   1.559  1.3601 -0.4422  0.0908
  975SOL    HW112839   1.386   3.375   1.615  0.1312  0.0891 -1.7064
  975SOL    HW212840   1.540   3.425   1.600 -1.0544  3.9968 -1.3629
  976SOL     OW12841   2.270   1.960   0.869  0.0422  0.3170 -0.4067
  976SOL    HW112842   2.175   1.989   0.859 -0.5213 -2.4731 -4.0647
  976SOL    HW212843   2.330   2.026   0.825 -0.2316  1.5474  1.0119
  977SOL     OW12844   3.036   1.775   2.494  0.2479 -0.1801 -0.5747
  977SOL    HW112845   3.086   1.693   2.468 -1.4995 -1.5886  0.4138
  977SOL    HW212846   2.963   1.793   2.428  1.6790  1.6011 -1.7487
  978SOL     OW12847   3.605   1.601   1.191  0.1048  0.1288 -0.3013
  978SOL    HW112848   3.552   1.580   1.108 -0.3991  1.4982 -0.3406
  978SOL    HW212849   3.692   1.642   1.165  0.5215 -0.6796 -0.1879
  979SOL     OW12850   2.845   6.831   0.488 -0.5236  0.2201 -0.2713
  979SOL    HW112851   2.762   6.823   0.433 -0.0285  1.0669 -1.1561
  979SOL    HW212852   2.821   6.849   0.584 -1.3668 -0.3195 -0.3783
  980SOL     OW12853   4.435   0.368   1.687  0.0849  0.3107 -0.3929
  980SOL    HW112854   4.477   0.348   1.776  0.2587 -1.3250 -0.8360
  980SOL    HW212855   4.406   0.464   1.686  2.2274  1.0184  0.5647
  981SOL     OW12856   2.767   1.837   1.506  0.2225  0.4587 -0.1064
  981SOL    HW112857   2.792   1.923   1.549  1.5058 -0.1947  0.4937
  981SOL    HW212858   2.768   1.764   1.575  0.8855 -0.3509 -0.9601
  982SOL     OW12859   2.493   6.500   1.510  0.0459  0.3562 -0.6289
  982SOL    HW112860   2.562   6.495   1.582 -0.3282  2.4709 -0.0818
  982SOL    HW212861   2.526   6.454   1.428  1.7328  0.5604 -0.0697
  983SOL     OW12862   3.429   2.899   1.762 -0.2860 -0.0571 -0.5317
  983SOL    HW112863   3.419   2.929   1.857  0.1115  1.7980 -1.0589
  983SOL    HW212864   3.524   2.875   1.744 -0.3234 -0.2111 -0.5286
  984SOL     OW12865   0.027   5.363   0.206  0.2165 -0.2471  0.3416
  984SOL    HW112866  -0.043   5.396   0.143 -0.5556 -1.3300  0.6318
  984SOL    HW212867   0.095   5.435   0.220 -2.1268  1.7087  1.9816
  985SOL     OW12868   1.806   5.405   0.652 -0.4542 -0.5888 -0.0147
  985SOL    HW112869   1.906   5.401   0.649 -0.3785  0.9719 -0.0175
  985SOL    HW212870   1.770   5.320   0.690  0.9500 -0.4369  1.6945
  986SOL     OW12871   1.988   2.681   1.826 -0.0212  0.5708 -0.6001
  986SOL    HW112872   1.959   2.726   1.910 -0.4285  1.3763 -1.1645
  986SOL    HW212873   1.908   2.649   1.775  0.1419  1.4523 -1.4275
  987SOL     OW12874   4.397   1.396   0.856 -0.7392  0.2260 -0.0630
  987SOL    HW112875   4.482   1.448   0.865 -1.7124  2.2322 -1.8267
  987SOL    HW212876   4.387   1.334   0.933  0.6167  2.5350  2.0542
  988SOL     OW12877   3.085   3.277   2.588 -0.2123 -0.0245 -0.3097
  988SOL    HW112878   3.144   3.198   2.602 -0.0920 -0.0284 -0.8135
  988SOL    HW212879   3.086   3.335   2.669  1.1686  0.4319 -0.6384
  989SOL     OW12880   3.518   8.447   2.139 -0.4606  0.6178  0.1767
  989SOL    HW112881   3.424   8.438   2.107 -0.5856  1.2058  0.3788
  989SOL    HW212882   3.538   8.543   2.158  0.1985  0.5035  0.0727
  990SOL     OW12883   3.901   0.410   1.402 -0.4089  0.2771  0.3130
  990SOL    HW112884   3.947   0.495   1.430 -0.5821  0.6800 -0.5908
  990SOL    HW212885   3.824   0.392   1.463  0.5977 -0.1035  1.4969
  991SOL     OW12886   2.247   4.330   0.230  0.3185 -0.4014  0.8172
  991SOL    HW112887   2.220   4.426   0.220 -3.4199 -1.3444  1.3668
  991SOL    HW212888   2.203   4.275   0.159  2.3738 -1.7782  0.5445
  992SOL     OW12889   4.456   2.040   2.097  0.2431  0.7976  0.3643
  992SOL    HW112890   4.482   2.136   2.086  0.8585  0.4776 -1.0400
  992SOL    HW212891   4.536   1.986   2.122  0.5059  0.1886 -1.7117
  993SOL     OW12892   3.984   2.001   0.457 -0.0368 -0.0014  0.3498
  993SOL    HW112893   3.917   1.928   0.471 -1.2010  1.3407  1.9835
  993SOL    HW212894   3.946   2.069   0.394  0.3236  0.0760  0.2163
  994SOL     OW12895   2.498   5.591   1.614 -0.1734  0.2524  0.1908
  994SOL    HW112896   2.526   5.512   1.669  2.0124  1.1660  0.4241
  994SOL    HW212897   2.454   5.558   1.530  0.3343 -1.2282  0.4832
  995SOL     OW12898   4.561   8.609   0.912 -0.2627  0.1740 -0.0828
  995SOL    HW112899   4.529   8.542   0.844 -2.3564 -0.0019  1.0149
  995SOL    HW212900   4.652   8.642   0.887  0.2761 -2.1514 -1.3164
  996SOL     OW12901   3.649   5.949   2.319 -0.7526 -0.4247 -0.5065
  996SOL    HW112902   3.635   5.902   2.231  2.1463 -1.3640 -0.5243
  996SOL    HW212903   3.699   5.889   2.380 -1.6185  0.7368  1.3707
  997SOL     OW12904   3.381   9.339   2.359  0.3616  0.0486 -0.6665
  997SOL    HW112905   3.445   9.366   2.430 -1.8578 -1.1182  1.8581
  997SOL    HW212906   3.340   9.420   2.317 -0.0029  0.7115  0.9677
  998SOL     OW12907   9.752   5.087   1.851  0.5000 -0.4661  0.1230
  998SOL    HW112908   9.652   5.096   1.851  0.4659 -0.8011 -0.5144
  998SOL    HW212909   9.791   5.154   1.914 -0.1078 -0.0272  0.0461
  999SOL     OW12910   3.586   0.248   2.122 -0.1843  0.0577 -0.1083
  999SOL    HW112911   3.559   0.323   2.184  0.8225  1.3014 -1.1436
  999SOL    HW212912   3.521   0.173   2.130 -1.0456  0.9231  1.1808
 1000SOL     OW12913   2.462   6.187   1.200  0.5508 -1.1695  0.0172
 1000SOL    HW112914   2.440   6.127   1.277  0.5038  1.0236  1.7614
 1000SOL    HW212915   2.378   6.213   1.152 -0.2631  2.8667  3.3930
 1001SOL     OW12916   4.361   9.457   1.094  0.4172  0.3608 -0.1680
 1001SOL    HW112917   4.359   9.368   1.138  0.5864  1.3191  1.8571
 1001SOL    HW212918   4.383   9.447   0.997 -1.2351 -1.9173 -0.3323
 1002SOL     OW12919   1.915   5.563   0.330  0.4434  0.3714  0.2676
 1002SOL    HW112920   1.815   5.568   0.333  0.4773  1.0180  0.4075
 1002SOL    HW212921   1.943   5.489   0.270 -0.1269 -0.1833  0.6737
 1003SOL     OW12922   1.724   5.763   1.183  0.3094 -0.3350 -0.1971
 1003SOL    HW112923   1.736   5.791   1.278  3.7341  0.7448 -0.9103
 1003SOL    HW212924   1.626   5.746   1.166 -0.7183  2.2404  2.7130
 1004SOL     OW12925   0.234   5.305   2.361 -0.1446 -0.0923 -0.0869
 1004SOL    HW112926   0.234   5.206   2.372 -0.0621 -0.2840 -1.5914
 1004SOL    HW212927   0.248   5.349   2.449  0.0953 -1.4254  0.5539
 1005SOL     OW12928   8.871   4.557   1.084  0.2022  0.0210  0.3232
 1005SOL    HW112929   8.896   4.611   1.004  0.0445  1.0710  0.9697
 1005SOL    HW212930   8.777   4.523   1.074  0.6850 -1.0970 -0.5858
 1006SOL     OW12931   0.487   5.294   0.888 -0.1249  0.0704  0.3321
 1006SOL    HW112932   0.391   5.264   0.889 -0.2311  0.3190 -1.0241
 1006SOL    HW212933   0.539   5.241   0.955 -1.5664  1.1929  2.4011
 1007SOL     OW12934   3.402   4.692   2.209 -0.1780  0.6144  0.1604
 1007SOL    HW112935   3.436   4.723   2.298  3.7491  0.1311 -1.0547
 1007SOL    HW212936   3.374   4.596   2.215 -0.9747  0.8960  1.1108
 1008SOL     OW12937   2.801   9.691   1.064  0.3469  0.8947  0.4745
 1008SOL    HW112938   2.772   9.663   1.155  2.2322  0.6854  1.0380
 1008SOL    HW212939   2.864   9.768   1.071  0.6071  0.7951 -0.6409
 1009SOL     OW12940   4.818   3.192   0.021 -0.1092  0.2192 -0.4884
 1009SOL    HW112941   4.819   3.206   0.120 -1.2857 -0.6508 -0.3446
 1009SOL    HW212942   4.837   3.096  -0.001 -2.3353 -0.1590 -0.9568
 1010SOL     OW12943   0.464   4.770   1.458  0.2026  0.0592  0.3595
 1010SOL    HW112944   0.432   4.683   1.496 -1.9695 -0.0924 -1.6954
 1010SOL    HW212945   0.388   4.835   1.454  0.4978  0.2694 -3.0483
 1011SOL     OW12946   1.184   4.394   0.437 -0.3485  0.0504 -0.9936
 1011SOL    HW112947   1.135   4.359   0.517  2.0349  0.0675  0.5308
 1011SOL    HW212948   1.200   4.319   0.373  1.8935 -1.0455  0.7663
 1012SOL     OW12949   1.882   2.347   2.685  0.1569  0.5441 -0.0329
 1012SOL    HW112950   1.876   2.247   2.675 -0.2839  0.5669  0.0146
 1012SOL    HW212951   1.829   2.376   2.765 -2.5789  1.1861 -2.0190
 1013SOL     OW12952   4.338   2.136   2.706  0.4332  0.4994  0.0943
 1013SOL    HW112953   4.362   2.190   2.625 -1.1340  0.9040 -0.0986
 1013SOL    HW212954   4.376   2.180   2.788  0.8994  0.7835 -0.2706
 1014SOL     OW12955   2.809   3.222   2.550  0.2164  0.0835 -0.9176
 1014SOL    HW112956   2.749   3.284   2.499 -0.8414 -2.2597 -2.6074
 1014SOL    HW212957   2.902   3.258   2.551 -0.2467  1.3633 -2.4403
 1015SOL     OW12958   5.184   1.677   0.386 -0.0847 -0.4812  0.3680
 1015SOL    HW112959   5.141   1.713   0.303 -0.4443  0.2459  0.8655
 1015SOL    HW212960   5.144   1.722   0.466  1.3610 -0.0642  0.8604
 1016SOL     OW12961   2.879   7.411   0.950  0.1828  0.2619 -0.5072
 1016SOL    HW112962   2.898   7.349   1.026  1.0457  1.4032  0.2093
 1016SOL    HW212963   2.781   7.412   0.931  0.2955 -2.4746 -1.5047
 1017SOL     OW12964   2.898   4.057   0.590 -0.5804 -0.5824 -0.2365
 1017SOL    HW112965   2.997   4.075   0.585 -0.6155  0.8721  3.0283
 1017SOL    HW212966   2.858   4.068   0.499  2.4771 -2.8398 -1.9897
 1018SOL     OW12967   4.215   2.050   2.224 -0.3576  0.3633  0.3549
 1018SOL    HW112968   4.173   2.071   2.136  2.6348  0.4273 -1.1522
 1018SOL    HW212969   4.314   2.036   2.211  0.1958  0.6143  3.7447
 1019SOL     OW12970   3.576   1.919   2.499  0.3531  0.3005 -0.3126
 1019SOL    HW112971   3.626   1.967   2.571  0.8237  2.3057 -1.9621
 1019SOL    HW212972   3.493   1.969   2.476 -0.4479 -0.9923 -0.3167
 1020SOL     OW12973   9.744   4.765   0.522 -0.7287 -0.6290  0.0945
 1020SOL    HW112974   9.787   4.710   0.594  0.3967  0.2178  0.0854
 1020SOL    HW212975   9.729   4.707   0.441  1.1501 -0.7800 -0.1872
 1021SOL     OW12976   1.630   2.860   2.259  0.2416  0.3890 -0.2699
 1021SOL    HW112977   1.546   2.808   2.270  0.7102 -0.4941 -0.7980
 1021SOL    HW212978   1.626   2.942   2.316  0.2916 -1.1989  2.1324
 1022SOL     OW12979   3.495   1.679   2.411 -0.5306  0.0790  0.1348
 1022SOL    HW112980   3.536   1.761   2.451 -1.0835  1.2212 -1.5792
 1022SOL    HW212981   3.563   1.605   2.408 -0.0368  0.4596  1.6988
 1023SOL     OW12982   1.022   3.501   2.290 -0.4801  0.1771  0.1817
 1023SOL    HW112983   1.097   3.468   2.347  0.5408  1.3969 -0.4347
 1023SOL    HW212984   0.956   3.427   2.276  1.6766 -1.5871 -1.0685
 1024SOL     OW12985   1.817   2.737   1.080 -0.8384  0.4187 -0.0001
 1024SOL    HW112986   1.868   2.815   1.043 -1.1771  0.7394  0.1965
 1024SOL    HW212987   1.854   2.652   1.044  1.4968  0.4943  2.1109
 1025SOL     OW12988   1.981   3.578   0.556 -0.1679  0.0411  0.3419
 1025SOL    HW112989   1.892   3.580   0.603 -0.9775  1.4846 -1.2130
 1025SOL    HW212990   1.967   3.592   0.458  1.9999  3.1767  0.4317
 1026SOL     OW12991   3.141   1.375   0.913 -0.6201 -0.0263  0.1873
 1026SOL    HW112992   3.188   1.450   0.867 -1.0134  0.1557  0.0818
 1026SOL    HW212993   3.207   1.319   0.963 -0.4437  0.9040  1.0010
 1027SOL     OW12994   1.880   6.119   2.055  0.0898 -0.6126 -0.2845
 1027SOL    HW112995   1.818   6.129   1.977 -2.2684  0.4847  1.6749
 1027SOL    HW212996   1.873   6.027   2.092 -0.6719 -0.3884  0.1459
 1028SOL     OW12997   3.324   0.735   0.710  0.3006 -0.2290 -0.5820
 1028SOL    HW112998   3.345   0.824   0.750 -0.4503  0.7560 -2.3174
 1028SOL    HW212999   3.377   0.723   0.625 -1.6823 -0.2214 -1.8442
 1029SOL     OW13000   0.366   4.285   1.409  0.4180  0.2241 -0.5430
 1029SOL    HW113001   0.352   4.208   1.471 -3.3678  2.0038  0.9736
 1029SOL    HW213002   0.353   4.256   1.315  3.2077 -1.8557 -0.3306
 1030SOL     OW13003   1.430   2.813   1.578 -0.3550 -0.2440  0.2083
 1030SOL    HW113004   1.435   2.887   1.646  0.4523 -0.8275  0.8001
 1030SOL    HW213005   1.445   2.726   1.624 -1.8177 -0.8293 -0.4051
 1031SOL     OW13006   9.117   4.490   0.694  0.3805  0.0303  0.2873
 1031SOL    HW113007   9.200   4.523   0.740 -0.3140  0.8826  0.9513
 1031SOL    HW213008   9.055   4.567   0.680  0.2233 -0.3742 -1.3352
 1032SOL     OW13009   3.631   3.660   0.583  0.3948 -0.0568 -0.4934
 1032SOL    HW113010   3.684   3.734   0.541 -1.5519  1.7114  0.0601
 1032SOL    HW213011   3.686   3.615   0.653  1.4490  1.1711 -0.5174
 1033SOL     OW13012   2.114   6.241   0.763 -0.8454  0.2656  0.0902
 1033SOL    HW113013   2.111   6.215   0.667 -0.3025  0.8349 -0.0780
 1033SOL    HW213014   2.206   6.227   0.799 -1.2508 -0.7393  0.7492
 1034SOL     OW13015   3.030   3.612   0.858 -0.0267  0.7381  0.3694
 1034SOL    HW113016   3.058   3.662   0.777 -0.3944 -1.8907 -1.4629
 1034SOL    HW213017   3.104   3.551   0.888 -1.1358 -0.8856 -0.1308
 1035SOL     OW13018   0.029   5.768   0.223 -0.5836  0.9873 -0.2245
 1035SOL    HW113019  -0.037   5.808   0.287  1.4927  0.7055  2.1609
 1035SOL    HW213020   0.122   5.788   0.254  0.4848  0.6039 -3.0438
 1036SOL     OW13021   3.646   9.133   0.853  0.4678 -0.6161 -0.4698
 1036SOL    HW113022   3.649   9.049   0.908 -1.3553 -1.4961 -1.6540
 1036SOL    HW213023   3.571   9.191   0.885  0.6852 -0.1938 -0.7204
 1037SOL     OW13024   4.261   0.828   0.531  0.6573  0.5270  0.6594
 1037SOL    HW113025   4.238   0.924   0.517  0.8958  0.6794  1.3076
 1037SOL    HW213026   4.297   0.815   0.623  1.8148  0.0382  0.1548
 1038SOL     OW13027   1.433   3.598   0.650 -0.6009  0.1695 -0.3670
 1038SOL    HW113028   1.491   3.593   0.569  0.0145 -0.3826  0.0951
 1038SOL    HW213029   1.465   3.531   0.718  0.0314  1.8522  1.0523
 1039SOL     OW13030   4.940   1.399   0.220  0.1027 -0.3015  0.1499
 1039SOL    HW113031   4.947   1.442   0.310 -2.6095  2.1302 -0.7448
 1039SOL    HW213032   4.861   1.337   0.219 -1.1101  1.2412 -1.1475
 1040SOL     OW13033   4.990   1.555   1.979  0.0069  0.0353  0.2662
 1040SOL    HW113034   4.900   1.540   1.938  0.7683 -4.1578 -0.1446
 1040SOL    HW213035   5.055   1.580   1.908  0.0470 -1.2319 -0.1588
 1041SOL     OW13036   2.087   2.078   1.944 -0.0596 -0.3136  0.2800
 1041SOL    HW113037   2.054   1.991   1.980  2.8976 -0.8132  1.9965
 1041SOL    HW213038   2.081   2.148   2.015  1.5165 -0.1879  0.3216
 1042SOL     OW13039   3.807   2.171   0.686 -0.5963 -0.3652 -1.0391
 1042SOL    HW113040   3.826   2.073   0.695 -0.1531 -0.1576  0.5131
 1042SOL    HW213041   3.709   2.187   0.695 -0.4204 -0.4269  1.4206
 1043SOL     OW13042   2.781   5.175   1.979 -0.3505 -0.4295  0.1766
 1043SOL    HW113043   2.698   5.135   1.942 -1.0186  1.0313  0.0531
 1043SOL    HW213044   2.777   5.175   2.079 -0.0743 -1.2124  0.1925
 1044SOL     OW13045   4.849   1.596   2.787  0.3388  0.5095 -0.9711
 1044SOL    HW113046   4.929   1.536   2.791  0.4263  0.7327  1.3472
 1044SOL    HW213047   4.816   1.614   2.880 -0.3162  3.2048 -1.6786
 1045SOL     OW13048   4.673   2.621   0.901 -0.6630  0.0259  0.2702
 1045SOL    HW113049   4.613   2.674   0.840 -0.7851  2.6386  2.5297
 1045SOL    HW213050   4.766   2.658   0.896 -0.4294 -0.5007  0.7684
 1046SOL     OW13051   4.691   2.081   0.784  0.0703 -0.0610  0.0836
 1046SOL    HW113052   4.678   2.021   0.706 -0.1972  1.1056 -0.7884
 1046SOL    HW213053   4.763   2.147   0.764  1.6757 -1.2522  1.7491
 1047SOL     OW13054   1.899   4.215   1.237 -1.1222  0.4056  0.1210
 1047SOL    HW113055   1.886   4.120   1.267 -0.9649  0.3537  0.0231
 1047SOL    HW213056   1.912   4.217   1.138 -1.0963  0.5278  0.1277
 1048SOL     OW13057   3.067   8.384   0.442 -0.1746  0.1493  0.5863
 1048SOL    HW113058   3.096   8.289   0.446 -0.8546 -0.0780  0.1727
 1048SOL    HW213059   3.084   8.421   0.351 -0.2512  0.3170  0.6384
 1049SOL     OW13060   3.876   3.324   0.752 -0.0675  0.2882 -0.0478
 1049SOL    HW113061   3.913   3.349   0.841  0.8703  1.2722 -0.7059
 1049SOL    HW213062   3.922   3.241   0.718 -0.7930 -0.3931  0.6026
 1050SOL     OW13063   3.740   1.483   2.045 -0.3770 -0.7276  0.2684
 1050SOL    HW113064   3.767   1.390   2.022  0.4122 -0.7982  1.4407
 1050SOL    HW213065   3.797   1.547   1.993 -0.9973 -0.8917 -0.6228
 1051SOL     OW13066   3.494   8.389   0.324  0.1168 -0.2564 -0.4641
 1051SOL    HW113067   3.451   8.337   0.399  0.3918 -1.4601 -1.1252
 1051SOL    HW213068   3.476   8.342   0.237  2.6912 -0.7523 -0.7650
 1052SOL     OW13069   4.451   4.022   2.623  0.0302  0.0059 -0.1561
 1052SOL    HW113070   4.389   3.975   2.560 -1.2683  0.7571  0.5441
 1052SOL    HW213071   4.525   4.065   2.571 -0.2591 -0.5643 -1.0427
 1053SOL     OW13072   9.477   5.449   2.715 -0.0144  0.4991  0.2828
 1053SOL    HW113073   9.508   5.438   2.809 -1.1746 -1.1924  0.4881
 1053SOL    HW213074   9.555   5.465   2.655  1.0476 -1.6079  1.0792
 1054SOL     OW13075   2.802   3.667   2.819 -0.6292  0.4359  0.4327
 1054SOL    HW113076   2.869   3.702   2.885 -1.2065 -0.9398  1.7912
 1054SOL    HW213077   2.810   3.567   2.814 -1.6212  0.3947 -0.4621
 1055SOL     OW13078   2.687   3.782   2.132 -0.5546 -0.2159 -0.3564
 1055SOL    HW113079   2.629   3.861   2.155 -0.1682 -0.3406  1.0853
 1055SOL    HW213080   2.672   3.710   2.199  1.1598 -0.3071 -0.0636
 1056SOL     OW13081   4.038   9.423   1.904  0.1103 -0.0094  0.4696
 1056SOL    HW113082   4.086   9.508   1.882  0.5989 -0.1455  1.0268
 1056SOL    HW213083   4.032   9.367   1.821 -1.0183  0.9557 -0.1266
 1057SOL     OW13084   3.541   9.350   2.076 -0.3973  0.0536  0.6240
 1057SOL    HW113085   3.595   9.415   2.130 -0.8516 -0.4137  1.6640
 1057SOL    HW213086   3.445   9.357   2.102 -0.4788 -0.8818  0.5958
 1058SOL     OW13087   3.242   2.089   0.483 -0.4227 -0.1481  0.3362
 1058SOL    HW113088   3.195   2.111   0.569 -0.4034 -0.8741  0.5378
 1058SOL    HW213089   3.323   2.148   0.473 -1.3622  1.1176 -0.0173
 1059SOL     OW13090   3.139   4.116   2.425 -0.1842  0.2734  0.2062
 1059SOL    HW113091   3.076   4.127   2.347 -0.4594 -1.7291  0.1188
 1059SOL    HW213092   3.232   4.135   2.395 -0.3835  0.2784 -0.4292
 1060SOL     OW13093   9.933   3.922   0.560 -0.6662  0.4233 -0.3032
 1060SOL    HW113094   9.973   3.926   0.468 -1.8803  1.5750 -0.7935
 1060SOL    HW213095   9.894   3.832   0.575 -1.3601  0.5387 -1.3140
 1061SOL     OW13096   2.864   3.865   1.612 -0.7385  0.2588 -0.4836
 1061SOL    HW113097   2.913   3.949   1.590 -0.1566  0.4476  1.4526
 1061SOL    HW213098   2.850   3.860   1.711 -0.7242 -1.9419 -0.5784
 1062SOL     OW13099   9.767   4.826   2.017 -0.5130 -0.9046  0.0961
 1062SOL    HW113100   9.746   4.911   1.969  0.0754  0.0474  1.4816
 1062SOL    HW213101   9.757   4.749   1.954  1.0953  0.3730 -1.7882
 1063SOL     OW13102   4.970   2.797   0.129  0.4284  0.1609  0.0862
 1063SOL    HW113103   5.017   2.881   0.158  0.2429 -0.4031  2.0828
 1063SOL    HW213104   4.887   2.821   0.079 -0.1382  1.1641  1.4964
 1064SOL     OW13105   2.125   4.187   0.017  1.0634 -0.5641 -0.6482
 1064SOL    HW113106   2.168   4.097   0.010  0.3881 -0.8761 -0.8349
 1064SOL    HW213107   2.030   4.181  -0.013 -0.2638 -0.7356  3.3207
 1065SOL     OW13108   2.178   5.303   0.335  0.3571 -0.0473  0.3385
 1065SOL    HW113109   2.208   5.234   0.400  1.5494  1.2794  1.2456
 1065SOL    HW213110   2.253   5.368   0.318 -0.2602  0.2124 -1.5790
 1066SOL     OW13111   2.476   2.643   1.575  0.1504  0.6356  0.1387
 1066SOL    HW113112   2.543   2.572   1.597 -1.0997 -1.0787 -1.4620
 1066SOL    HW213113   2.393   2.629   1.629 -0.4391  0.3418 -0.8324
 1067SOL     OW13114   3.014   0.188   1.649 -0.1097 -0.7939  0.0151
 1067SOL    HW113115   2.996   0.143   1.737 -0.6428  0.6348  0.6500
 1067SOL    HW213116   3.112   0.190   1.632  0.1386  0.4603  1.4283
 1068SOL     OW13117   2.013   5.233   1.793  0.2221  0.2701 -0.1937
 1068SOL    HW113118   1.928   5.258   1.840 -0.6309 -0.8090 -1.1332
 1068SOL    HW213119   2.011   5.136   1.770  0.9136  0.6332 -1.8681
 1069SOL     OW13120   5.062   3.413   0.309  0.2082  0.3942 -0.1684
 1069SOL    HW113121   5.126   3.472   0.358  1.6519 -0.3949 -1.0602
 1069SOL    HW213122   5.038   3.455   0.222 -0.6977  0.8129  0.2828
 1070SOL     OW13123   4.449   2.324   2.506  0.0804  0.7498 -0.0749
 1070SOL    HW113124   4.485   2.275   2.427  1.1507 -0.1744  0.9605
 1070SOL    HW213125   4.416   2.414   2.477 -1.1365 -0.2437 -1.8573
 1071SOL     OW13126   2.019   4.797   1.761  0.2601  0.7697 -0.1873
 1071SOL    HW113127   1.984   4.871   1.704 -1.2742 -0.5299 -0.9764
 1071SOL    HW213128   1.989   4.811   1.855 -0.8467  0.6475 -0.5174
 1072SOL     OW13129   3.226   9.153   1.957 -0.3575  0.1250 -0.5420
 1072SOL    HW113130   3.254   9.148   1.862 -0.5429 -0.2242 -0.5766
 1072SOL    HW213131   3.281   9.222   2.004 -0.2173  0.2447 -0.8819
 1073SOL     OW13132   3.901   3.024   0.004  0.6020 -0.2948  0.0167
 1073SOL    HW113133   3.917   3.023   0.103  0.5786 -0.1755  0.0223
 1073SOL    HW213134   3.978   3.066  -0.042  1.3828 -1.9120 -0.1661
 1074SOL     OW13135   1.759   5.859   1.434 -0.2997  0.2410  0.0749
 1074SOL    HW113136   1.828   5.828   1.500 -0.4055  0.1468  0.1426
 1074SOL    HW213137   1.668   5.837   1.469 -0.3329 -0.3677 -0.3855
 1075SOL     OW13138   2.645   6.147   0.997 -1.0029  0.0441 -0.4293
 1075SOL    HW113139   2.601   6.148   1.086 -0.7938 -0.9952 -0.3085
 1075SOL    HW213140   2.597   6.084   0.936 -0.9004  0.4420 -0.9264
 1076SOL     OW13141   3.887   8.055   1.417  0.1586  0.6079  0.3858
 1076SOL    HW113142   3.811   8.011   1.466 -0.6093  1.5406  0.0528
 1076SOL    HW213143   3.931   8.121   1.477  0.6170  0.1698  0.5314
 1077SOL     OW13144   4.286   4.830   0.154  0.5372 -0.0082 -0.2161
 1077SOL    HW113145   4.201   4.874   0.184 -0.2459 -0.3964 -1.8304
 1077SOL    HW213146   4.315   4.870   0.068  0.5465 -1.7033 -1.0219
 1078SOL     OW13147   4.098   2.085   0.014 -0.2742 -0.1838  0.2142
 1078SOL    HW113148   4.064   2.133   0.094  2.3252  0.6769  0.8619
 1078SOL    HW213149   4.159   2.145  -0.038  0.0823 -1.5673 -1.0201
 1079SOL     OW13150   2.214   7.169   1.818  0.0026  0.2527  0.1871
 1079SOL    HW113151   2.269   7.149   1.898 -1.3701  1.9326  1.5838
 1079SOL    HW213152   2.178   7.083   1.780  0.9127 -0.5689  1.1693
 1080SOL     OW13153   3.913   9.862   0.094  0.0945 -0.4693 -0.4994
 1080SOL    HW113154   3.997   9.867   0.040  2.3260 -1.2144  2.7708
 1080SOL    HW213155   3.885   9.767   0.103  0.5150 -0.4770  0.7851
 1081SOL     OW13156   1.334   4.236   1.739 -0.6828  0.3783  0.3220
 1081SOL    HW113157   1.250   4.183   1.748 -1.2269  1.3325  0.9506
 1081SOL    HW213158   1.319   4.311   1.674 -0.2504  0.4218  0.2704
 1082SOL     OW13159   0.792   4.668   1.824  0.3015  0.3451 -0.0415
 1082SOL    HW113160   0.761   4.717   1.742  2.0309  1.4848 -0.0210
 1082SOL    HW213161   0.815   4.574   1.800  1.9341  1.0067 -1.1162
 1083SOL     OW13162   3.461   0.580   1.032  0.5910  0.1279  0.2371
 1083SOL    HW113163   3.496   0.568   1.125  0.7393  1.1811  0.3203
 1083SOL    HW213164   3.397   0.656   1.030 -0.0090 -0.3937 -0.3683
 1084SOL     OW13165   3.575   5.627   0.376 -0.2659 -0.1811  0.3112
 1084SOL    HW113166   3.497   5.679   0.410 -0.7676 -0.4763 -0.3950
 1084SOL    HW213167   3.606   5.564   0.447  0.3884  1.1117  1.2037
 1085SOL     OW13168   3.491   2.422   1.157  0.8703 -0.4586 -0.3060
 1085SOL    HW113169   3.491   2.343   1.219  0.6841 -0.1657  0.0712
 1085SOL    HW213170   3.409   2.418   1.100  1.8109 -1.5516 -1.5989
 1086SOL     OW13171   2.761   0.267   2.070 -0.4693  0.1108  0.1651
 1086SOL    HW113172   2.729   0.180   2.031  0.7972 -1.0868  1.7437
 1086SOL    HW213173   2.799   0.251   2.161  1.0173  2.1125 -0.0675
 1087SOL     OW13174   2.739   5.962   1.960 -0.1278 -0.1731  0.0923
 1087SOL    HW113175   2.713   5.868   1.938 -0.9000  0.4530 -1.7953
 1087SOL    HW213176   2.733   5.976   2.059 -2.6513 -1.3502  0.1603
 1088SOL     OW13177   0.383   4.637   0.200 -0.3045  0.1010 -0.1842
 1088SOL    HW113178   0.405   4.548   0.162  1.6594 -0.1305  1.4388
 1088SOL    HW213179   0.333   4.626   0.286 -0.0429  0.5566  0.0326
 1089SOL     OW13180   1.010   4.828   2.624 -0.2048  0.1060 -0.2012
 1089SOL    HW113181   1.073   4.894   2.666 -1.2674  0.6157  0.6397
 1089SOL    HW213182   0.922   4.873   2.608 -0.7114 -0.9160 -0.2799
 1090SOL     OW13183   3.191   9.695   1.335 -0.3587  0.3521 -0.3006
 1090SOL    HW113184   3.269   9.723   1.279 -0.4694  2.6569  0.6622
 1090SOL    HW213185   3.136   9.775   1.359 -1.9755 -0.9994  0.6303
 1091SOL     OW13186   1.891   5.527   1.756  0.4208 -0.2773  0.0640
 1091SOL    HW113187   1.986   5.556   1.739  1.1250 -2.4438  0.0937
 1091SOL    HW213188   1.845   5.511   1.669 -0.1359  1.3569  0.0353
 1092SOL     OW13189   4.613   3.002   0.206  0.4015  0.2358  0.1442
 1092SOL    HW113190   4.627   3.039   0.297 -2.6707  1.2102  0.2861
 1092SOL    HW213191   4.575   3.073   0.146  2.3634 -0.3799 -1.9207
 1093SOL     OW13192   3.176   2.778   1.664 -0.1208 -0.0384  0.8533
 1093SOL    HW113193   3.239   2.841   1.711  2.1627  0.5345 -2.7678
 1093SOL    HW213194   3.099   2.830   1.628  1.4950  0.6716 -1.6775
 1094SOL     OW13195   4.636   3.432   2.112 -0.1249 -0.1210 -0.1533
 1094SOL    HW113196   4.591   3.522   2.115 -0.3732 -0.2569  0.3443
 1094SOL    HW213197   4.569   3.362   2.089  0.1433 -0.1361 -0.8912
 1095SOL     OW13198   2.740   2.818   0.339  0.4374  0.1256 -0.0626
 1095SOL    HW113199   2.830   2.786   0.369  0.3952  1.1619  1.1758
 1095SOL    HW213200   2.673   2.745   0.352  0.9837 -0.4655 -0.4881
 1096SOL     OW13201   1.234   5.196   2.209 -0.7275  0.0167 -0.1023
 1096SOL    HW113202   1.152   5.210   2.265 -0.5143  0.9022 -0.0080
 1096SOL    HW213203   1.209   5.203   2.112 -0.4601  1.9543 -0.0350
 1097SOL     OW13204   3.531   2.192   0.689  0.7593  0.4357 -0.6922
 1097SOL    HW113205   3.485   2.251   0.755 -0.5569 -1.1870 -0.1108
 1097SOL    HW213206   3.511   2.224   0.596 -1.7067 -0.2868 -0.4586
 1098SOL     OW13207   0.730   4.429   2.776 -0.0596 -0.2298  0.1263
 1098SOL    HW113208   0.757   4.395   2.866  1.0694 -0.1344 -0.1571
 1098SOL    HW213209   0.809   4.472   2.732 -0.8324  0.5349 -0.5423
 1099SOL     OW13210   2.559   5.080   1.841 -0.1285 -0.0220  0.1941
 1099SOL    HW113211   2.602   5.003   1.793  1.4411  0.4096  0.8723
 1099SOL    HW213212   2.486   5.118   1.784 -0.2950 -1.4184 -0.5482
 1100SOL     OW13213   2.688   0.703   2.724  0.1579  0.1971  0.5514
 1100SOL    HW113214   2.707   0.608   2.698  0.8706  0.0154  1.6993
 1100SOL    HW213215   2.637   0.748   2.651 -2.2552 -1.7407  0.9779
 1101SOL     OW13216   3.613   8.244   2.304  0.3138  0.3616  0.3057
 1101SOL    HW113217   3.592   8.327   2.253 -0.4814  0.5301  0.9054
 1101SOL    HW213218   3.528   8.200   2.334  0.7310 -0.5823  0.1320
 1102SOL     OW13219   2.004   2.278   0.839  0.5965 -1.0086 -0.1753
 1102SOL    HW113220   1.951   2.199   0.808 -1.0991  0.1777 -0.4232
 1102SOL    HW213221   1.998   2.351   0.770 -0.9669  0.6869  1.6784
 1103SOL     OW13222   2.036   6.306   0.518  0.3560 -0.0662 -0.0781
 1103SOL    HW113223   1.956   6.338   0.467  0.6223 -0.8416 -0.9800
 1103SOL    HW213224   2.064   6.217   0.484  0.0032 -0.9946  2.0045
 1104SOL     OW13225   1.447   3.495   2.343  0.1632  0.4566 -0.2841
 1104SOL    HW113226   1.380   3.561   2.378 -1.2749  0.0016 -2.1025
 1104SOL    HW213227   1.400   3.428   2.285  2.1037 -0.2694 -1.0471
 1105SOL     OW13228   1.127   6.514   1.577  0.3060 -0.1014  0.2774
 1105SOL    HW113229   1.151   6.500   1.673  2.3832  0.7299 -0.0978
 1105SOL    HW213230   1.209   6.540   1.526 -0.8926  0.0158 -1.6150
 1106SOL     OW13231   3.757   0.157   0.831  0.2522  0.2078  0.4680
 1106SOL    HW113232   3.728   0.223   0.901 -0.4087 -0.0155  0.4093
 1106SOL    HW213233   3.685   0.087   0.820  0.9286 -0.5008  0.5061
 1107SOL     OW13234   2.212   6.796   2.493  0.3103 -0.7618 -0.2645
 1107SOL    HW113235   2.231   6.734   2.416  1.2839  0.3161 -0.9030
 1107SOL    HW213236   2.183   6.885   2.458  0.2352 -0.4323  0.6285
 1108SOL     OW13237   3.368   3.904   2.588  0.3395  0.0431 -0.4786
 1108SOL    HW113238   3.405   3.986   2.545  1.8330 -0.4487 -0.1687
 1108SOL    HW213239   3.349   3.922   2.685  1.3979 -0.1899 -0.2218
 1109SOL     OW13240   3.585   2.715   2.404 -0.4958  0.0255  0.1096
 1109SOL    HW113241   3.680   2.695   2.428 -0.0871  1.7353 -0.0058
 1109SOL    HW213242   3.560   2.666   2.321  0.2815 -0.4368  0.1487
 1110SOL     OW13243   4.164   3.126   2.183 -0.1663 -0.0261 -0.3151
 1110SOL    HW113244   4.096   3.164   2.247 -0.1230  0.8554 -0.7982
 1110SOL    HW213245   4.241   3.089   2.235  0.3957  1.6999  0.1090
 1111SOL     OW13246   2.169   5.311   1.313 -0.5560 -0.7742  0.3560
 1111SOL    HW113247   2.235   5.319   1.388 -0.5529 -0.2995  0.3054
 1111SOL    HW213248   2.216   5.282   1.230 -0.2382  0.4584  0.0849
 1112SOL     OW13249   2.286   4.002   2.505  0.7566 -0.0291 -0.3356
 1112SOL    HW113250   2.346   3.967   2.577 -0.7365 -0.3341  0.7850
 1112SOL    HW213251   2.191   3.998   2.536  0.3479  2.9536 -1.0459
 1113SOL     OW13252   2.228   1.699   0.231  0.3862  0.9631 -0.1799
 1113SOL    HW113253   2.312   1.752   0.216  0.5146  0.1164 -2.8758
 1113SOL    HW213254   2.226   1.622   0.166 -2.1809  0.6053  0.2715
 1114SOL     OW13255   3.208   6.211   0.714  0.6225  0.3011  0.0256
 1114SOL    HW113256   3.113   6.180   0.714  0.6836  0.1132  0.5550
 1114SOL    HW213257   3.210   6.309   0.692  0.3029  0.3128  0.0332
 1115SOL     OW13258   1.092   3.506   2.007  0.2026 -0.0193  0.4214
 1115SOL    HW113259   1.131   3.424   2.049  3.3555  0.5238 -1.2627
 1115SOL    HW213260   1.123   3.587   2.058 -4.8137  0.1142  3.5388
 1116SOL     OW13261   3.630   8.674   1.546  0.7892 -0.0447  0.1526
 1116SOL    HW113262   3.540   8.645   1.579 -0.3659  1.1311 -1.8626
 1116SOL    HW213263   3.628   8.771   1.525  1.8508 -0.4466 -1.9728
 1117SOL     OW13264   2.812   5.000   1.621  0.7974  0.0852  0.3362
 1117SOL    HW113265   2.880   5.030   1.688  0.7631  1.4548 -0.2330
 1117SOL    HW213266   2.858   4.979   1.534  0.5899  0.2832  0.1789
 1118SOL     OW13267   1.017   5.848   2.549  0.1231  0.3388 -0.0078
 1118SOL    HW113268   0.999   5.790   2.628 -0.6006  1.1615  0.4404
 1118SOL    HW213269   0.998   5.797   2.465 -2.1966  0.4762  0.4148
 1119SOL     OW13270   2.048   5.554   1.517 -0.1026  0.0603 -0.9605
 1119SOL    HW113271   2.108   5.556   1.437 -1.8972 -0.6316 -2.3353
 1119SOL    HW213272   1.954   5.535   1.489 -0.9557  0.9162  1.2013
 1120SOL     OW13273   5.284   3.483   1.351 -0.1225 -0.1853  0.4887
 1120SOL    HW113274   5.317   3.424   1.425 -0.8430  0.2478  1.1723
 1120SOL    HW213275   5.356   3.495   1.283 -0.3939 -2.9588 -0.3526
 1121SOL     OW13276   4.232   1.081   0.474 -0.3141 -0.2607 -0.4641
 1121SOL    HW113277   4.318   1.132   0.473 -0.6259  0.3369  1.0062
 1121SOL    HW213278   4.157   1.141   0.504 -0.7672 -1.4274  0.8516
 1122SOL     OW13279   3.807   5.025   0.208  0.0045 -0.0783 -0.0637
 1122SOL    HW113280   3.783   5.094   0.139  4.2869 -0.3648 -1.9731
 1122SOL    HW213281   3.881   4.968   0.173  1.5246 -0.9504  4.3885
 1123SOL     OW13282   0.228   5.123   0.463  0.2122 -0.2013 -0.0492
 1123SOL    HW113283   0.168   5.189   0.509  1.5610  0.4235  0.8656
 1123SOL    HW213284   0.286   5.172   0.398  0.8522 -0.5665  0.2494
 1124SOL     OW13285   9.566   5.507   0.926 -0.3374 -0.5987 -0.6529
 1124SOL    HW113286   9.665   5.491   0.935 -0.2912  0.5155  0.9901
 1124SOL    HW213287   9.520   5.477   1.009 -1.0579  1.4318 -0.3064
 1125SOL     OW13288   2.501   7.586   0.064  0.0397 -0.5229 -0.0655
 1125SOL    HW113289   2.538   7.658   0.123 -1.3353  0.8847 -0.8845
 1125SOL    HW213290   2.537   7.597  -0.028 -0.8453 -0.3599 -0.3933
 1126SOL     OW13291   0.628   5.093   2.831 -0.7595  0.0548 -0.4015
 1126SOL    HW113292   0.655   4.997   2.819  0.3454  0.4307 -1.0099
 1126SOL    HW213293   0.702   5.143   2.877 -1.7602  0.3948  0.8798
 1127SOL     OW13294   4.411   4.650   1.214  0.5077 -0.3479  0.2104
 1127SOL    HW113295   4.320   4.683   1.187  1.9551  1.0442 -3.2038
 1127SOL    HW213296   4.440   4.697   1.297 -0.7743  1.1921 -0.1787
 1128SOL     OW13297   3.646   4.550   1.711 -0.4883  0.3002 -0.1509
 1128SOL    HW113298   3.699   4.478   1.755  0.7561  0.8879 -0.6790
 1128SOL    HW213299   3.637   4.529   1.613 -1.5870 -0.0089  0.0098
 1129SOL     OW13300   3.847   4.525   1.319 -0.3886 -0.0248 -0.1914
 1129SOL    HW113301   3.906   4.595   1.360 -0.2197 -1.3691  1.9363
 1129SOL    HW213302   3.774   4.501   1.383 -0.1112 -2.1774 -0.6433
 1130SOL     OW13303   2.930   2.843   1.570  0.1079 -0.0947 -0.0248
 1130SOL    HW113304   2.941   2.857   1.668  0.5075  0.2420 -0.1168
 1130SOL    HW213305   2.833   2.842   1.547  0.0543  1.9151  0.0648
 1131SOL     OW13306   3.532   0.997   0.691  0.1060  0.7468 -0.1665
 1131SOL    HW113307   3.506   1.088   0.721 -1.4021  0.3902 -0.3740
 1131SOL    HW213308   3.547   0.997   0.592  0.4056  0.8410 -0.1206
 1132SOL     OW13309   9.170   4.453   2.539  0.3362  0.2549 -0.1461
 1132SOL    HW113310   9.141   4.371   2.490  0.4079  2.2719 -3.6763
 1132SOL    HW213311   9.257   4.485   2.502  0.5427  1.6763  1.5122
 1133SOL     OW13312   3.673   8.916   1.056  0.3969  0.1604  0.2568
 1133SOL    HW113313   3.650   8.972   1.135 -1.7444 -0.8809  0.4074
 1133SOL    HW213314   3.725   8.836   1.085  0.2172  0.1361  0.5056
 1134SOL     OW13315   4.521   1.380   2.499  0.1254  0.1817 -0.7168
 1134SOL    HW113316   4.618   1.403   2.505  0.3685 -0.2694 -2.5134
 1134SOL    HW213317   4.482   1.418   2.416 -0.5974 -1.8039 -1.3367
 1135SOL     OW13318   3.303   8.183   0.734  0.2783  0.3808  0.1160
 1135SOL    HW113319   3.223   8.130   0.709  0.3576 -0.3320  1.3304
 1135SOL    HW213320   3.344   8.145   0.817  1.4143  1.2105 -0.0475
 1136SOL     OW13321   4.612   5.280   0.350  0.1228 -0.7736 -0.7031
 1136SOL    HW113322   4.645   5.197   0.305  0.0079 -0.7908 -0.7554
 1136SOL    HW213323   4.559   5.334   0.284  0.0437 -0.7470 -0.6169
 1137SOL     OW13324   2.418   7.334   1.701 -0.5560  0.0383  0.5092
 1137SOL    HW113325   2.325   7.314   1.731  0.0512 -0.0924  2.4218
 1137SOL    HW213326   2.483   7.298   1.769  0.8894 -0.0294 -0.8829
 1138SOL     OW13327   4.067   8.891   2.237 -0.3413  0.4685  0.2968
 1138SOL    HW113328   4.046   8.796   2.260 -1.1703  0.9232  1.5212
 1138SOL    HW213329   4.000   8.925   2.172  1.7360 -0.6799 -2.5359
 1139SOL     OW13330   3.073   8.429   1.310  0.4870  0.7149  0.6735
 1139SOL    HW113331   3.014   8.355   1.342 -0.1230  0.4726 -0.9818
 1139SOL    HW213332   3.081   8.425   1.211  3.1656  0.8709  0.8636
 1140SOL     OW13333   3.454   0.328   0.590  0.3577 -0.3585 -0.5190
 1140SOL    HW113334   3.402   0.364   0.513 -1.9133 -2.1669  0.0955
 1140SOL    HW213335   3.399   0.337   0.674  2.2659  0.4271  0.6775
 1141SOL     OW13336   1.271   4.762   2.195 -0.0833 -0.4176  0.1299
 1141SOL    HW113337   1.236   4.809   2.113 -0.1901  0.7439  0.8254
 1141SOL    HW213338   1.310   4.674   2.168  1.1382  0.5403 -1.3861
 1142SOL     OW13339   5.048   2.426   0.611  0.3383  0.5476 -0.9408
 1142SOL    HW113340   5.104   2.344   0.600  1.1805  1.2675 -2.2618
 1142SOL    HW213341   4.955   2.401   0.638 -0.1203 -1.0487 -3.7413
 1143SOL     OW13342   3.968   4.816   0.034  0.1850 -0.3527 -0.0249
 1143SOL    HW113343   4.014   4.728   0.048 -0.1922 -0.5814 -0.2081
 1143SOL    HW213344   3.966   4.837  -0.064 -1.6697 -1.1979 -0.1875
 1144SOL     OW13345   2.119   4.491   2.538 -0.4550  0.3254  0.2066
 1144SOL    HW113346   2.166   4.541   2.465 -0.9545 -0.4382 -0.6470
 1144SOL    HW213347   2.183   4.474   2.613 -0.0424  1.4742  0.1348
 1145SOL     OW13348   2.064   6.736   1.567  0.4709  0.5228  1.0514
 1145SOL    HW113349   2.103   6.645   1.582 -0.3941  0.1110  0.8043
 1145SOL    HW213350   2.073   6.761   1.471  1.0612  0.8661  1.1931
 1146SOL     OW13351   3.524   5.791   2.753  0.3659  0.3818 -0.2767
 1146SOL    HW113352   3.474   5.794   2.666  0.2790  1.2400 -0.2007
 1146SOL    HW213353   3.599   5.726   2.745  0.0971  0.1335 -0.8573
 1147SOL     OW13354   3.068   8.389   1.029  0.2490 -0.1031 -0.0616
 1147SOL    HW113355   3.144   8.398   0.965 -0.3757  0.7581 -0.6907
 1147SOL    HW213356   2.985   8.365   0.978 -0.1308  0.0368  0.4908
 1148SOL     OW13357   3.683   0.921   2.444 -0.7455 -0.2490  0.4922
 1148SOL    HW113358   3.742   0.927   2.364  0.2717 -3.0473  0.9955
 1148SOL    HW213359   3.707   0.994   2.508 -0.3160  0.8564 -0.8869
 1149SOL     OW13360   2.177   6.863   1.768  0.2475  0.6808 -0.8292
 1149SOL    HW113361   2.143   6.834   1.858 -0.0418  3.3178 -0.0419
 1149SOL    HW213362   2.128   6.815   1.696 -2.5565  1.6510  0.3683
 1150SOL     OW13363   1.046   3.720   1.815  0.4494  0.3255 -0.2232
 1150SOL    HW113364   0.953   3.755   1.821 -0.1371 -1.3729  0.9999
 1150SOL    HW213365   1.056   3.642   1.877  2.7553  0.6489 -0.1501
 1151SOL     OW13366   4.619   1.517   0.849  0.0199 -0.3204 -0.0050
 1151SOL    HW113367   4.714   1.529   0.819 -0.5433  0.0366 -1.6537
 1151SOL    HW213368   4.567   1.600   0.831 -0.1471  0.2336  2.7614
 1152SOL     OW13369   3.808   9.842   2.558  0.3036 -0.6293  0.4954
 1152SOL    HW113370   3.869   9.919   2.573 -0.5913  0.0985  0.4382
 1152SOL    HW213371   3.850   9.778   2.493 -0.6044  1.7628 -2.5903
 1153SOL     OW13372   1.973   5.982   2.597  0.4262  0.6141  0.0840
 1153SOL    HW113373   1.973   6.082   2.604  2.5406  0.6502 -0.0883
 1153SOL    HW213374   1.980   5.956   2.501  2.8892  0.3407  0.3117
 1154SOL     OW13375   4.161   0.894   1.516  0.8352 -0.3530  0.0987
 1154SOL    HW113376   4.260   0.880   1.528  1.2058  2.2555  0.3108
 1154SOL    HW213377   4.130   0.968   1.575 -1.3283 -1.2969  0.2032
 1155SOL     OW13378   2.787   4.287   0.806  1.2555  0.7868  0.1043
 1155SOL    HW113379   2.793   4.195   0.767  1.7804  0.4264  1.0163
 1155SOL    HW213380   2.693   4.320   0.800  0.5557 -0.7965  1.9614
 1156SOL     OW13381   1.755   6.623   0.677  0.1380 -0.4420  0.4965
 1156SOL    HW113382   1.730   6.694   0.743 -0.1505 -0.4801  0.4295
 1156SOL    HW213383   1.721   6.534   0.709 -0.6490 -0.3514 -0.0601
 1157SOL     OW13384   2.463   2.146   0.525  0.4022 -0.0110 -0.2578
 1157SOL    HW113385   2.521   2.065   0.519  0.4791  0.0702 -0.6468
 1157SOL    HW213386   2.495   2.204   0.600 -0.2205 -0.7760  0.6048
 1158SOL     OW13387   3.215   9.494   2.721  0.9458 -1.0789 -0.7092
 1158SOL    HW113388   3.171   9.565   2.667  1.1955 -0.7444 -0.4716
 1158SOL    HW213389   3.153   9.463   2.793  1.8709  0.9079  0.9843
 1159SOL     OW13390   3.828   9.737   1.219  0.6288 -0.7577 -0.1053
 1159SOL    HW113391   3.908   9.760   1.273 -0.0792  1.7416 -0.0491
 1159SOL    HW213392   3.821   9.799   1.141 -2.5141  0.6651  1.2154
 1160SOL     OW13393   0.631   4.726   0.253  0.7688 -0.2418  0.1647
 1160SOL    HW113394   0.544   4.684   0.229  0.9019  0.5004 -1.6466
 1160SOL    HW213395   0.641   4.728   0.353 -2.0101  1.1222  0.4506
 1161SOL     OW13396   3.218   3.407   0.928  0.3969 -0.2530 -0.1606
 1161SOL    HW113397   3.316   3.389   0.939  0.7617  1.8837  0.4452
 1161SOL    HW213398   3.166   3.348   0.989  1.4566  0.1047  1.1112
 1162SOL     OW13399   2.410   6.484   0.790  0.6882  0.1951 -0.6798
 1162SOL    HW113400   2.322   6.508   0.831  1.0010  0.2687 -0.0454
 1162SOL    HW213401   2.484   6.508   0.853  1.0790 -1.2281 -0.5638
 1163SOL     OW13402   2.913   1.086   1.191  0.4628  0.1526 -0.2230
 1163SOL    HW113403   2.894   1.159   1.124  2.1214  0.0397 -0.8294
 1163SOL    HW213404   2.833   1.074   1.249 -0.3756  1.4623 -1.0595
 1164SOL     OW13405   3.442   2.044   1.832  0.5243 -0.5451  0.4660
 1164SOL    HW113406   3.513   1.992   1.881  1.0220  0.7706  1.1629
 1164SOL    HW213407   3.465   2.141   1.834 -0.0097 -0.3644 -1.4827
 1165SOL     OW13408   2.017   6.651   1.049  0.6974  0.0493 -0.0735
 1165SOL    HW113409   1.958   6.572   1.039  0.4403  0.2648 -0.2692
 1165SOL    HW213410   2.104   6.634   1.002  0.4095  0.1216 -0.6394
 1166SOL     OW13411   2.725   2.749   1.206  0.1374  0.1188  0.0576
 1166SOL    HW113412   2.700   2.796   1.291 -0.0728 -1.2104  0.7452
 1166SOL    HW213413   2.672   2.664   1.197  1.0549 -0.3831 -0.7779
 1167SOL     OW13414   2.426   2.558   2.055  0.2538 -0.0378 -0.2663
 1167SOL    HW113415   2.388   2.519   2.138  0.3567 -1.0125 -0.6616
 1167SOL    HW213416   2.379   2.643   2.033 -1.4910 -1.0351 -0.5625
 1168SOL     OW13417   2.999   5.469   2.619  0.1774 -0.4474 -0.1098
 1168SOL    HW113418   2.955   5.388   2.656 -1.7189  0.7169  0.2176
 1168SOL    HW213419   3.043   5.521   2.692 -1.4849  0.5714  0.1836
 1169SOL     OW13420   1.692   4.538   2.105  0.2713  0.6522  0.6477
 1169SOL    HW113421   1.668   4.511   2.198  0.0936  1.1030  0.7310
 1169SOL    HW213422   1.678   4.637   2.094  1.9292  0.8990  0.6618
 1170SOL     OW13423   5.137   4.717   0.969 -0.1361  0.0817  0.2581
 1170SOL    HW113424   5.113   4.753   0.879 -1.5868 -2.1637 -0.2957
 1170SOL    HW213425   5.070   4.747   1.036  0.8446  1.6065  0.5699
 1171SOL     OW13426   4.094   8.965   0.502  0.6093 -0.3409 -0.4068
 1171SOL    HW113427   4.031   8.892   0.528  1.4291 -1.2931 -1.0635
 1171SOL    HW213428   4.075   9.046   0.557 -0.6832 -0.8552 -0.0581
 1172SOL     OW13429   2.981   8.734   0.635 -0.1244  0.1398  0.2709
 1172SOL    HW113430   2.972   8.784   0.721 -0.0412  2.5599 -1.0872
 1172SOL    HW213431   3.070   8.689   0.633  0.0967  0.5140  1.2235
 1173SOL     OW13432   3.934   1.566   0.490  0.2730  0.1110 -0.1761
 1173SOL    HW113433   3.843   1.607   0.483 -0.8109 -2.1725 -0.0806
 1173SOL    HW213434   3.937   1.483   0.434  1.4814 -1.2369  1.8223
 1174SOL     OW13435   4.311   0.280   2.109 -0.1264  0.1892 -0.5999
 1174SOL    HW113436   4.216   0.254   2.129 -0.2154  0.9143 -0.0423
 1174SOL    HW213437   4.372   0.207   2.138 -0.2254  1.3259  2.6831
 1175SOL     OW13438   2.632   5.392   1.776  0.3140  0.1849  0.4925
 1175SOL    HW113439   2.616   5.295   1.759 -1.8262  0.8453 -1.4709
 1175SOL    HW213440   2.625   5.410   1.874  3.5147 -2.0909  1.2245
 1176SOL     OW13441   0.219   4.983   2.708 -0.0710 -0.7382  0.2689
 1176SOL    HW113442   0.120   4.994   2.703  0.0147 -0.4926 -1.2773
 1176SOL    HW213443   0.241   4.888   2.728 -0.6139 -1.0527 -0.5995
 1177SOL     OW13444   2.128   2.433   0.049 -0.6903  0.1443  0.2547
 1177SOL    HW113445   2.112   2.385  -0.037 -0.4342  0.4375  0.0418
 1177SOL    HW213446   2.152   2.529   0.030  0.3126 -0.0339  0.6091
 1178SOL     OW13447   4.453   1.446   1.164 -0.2970 -0.1666 -0.0038
 1178SOL    HW113448   4.382   1.377   1.150 -1.1477  0.8833 -0.9150
 1178SOL    HW213449   4.412   1.537   1.163  0.9348  0.4045  0.3940
 1179SOL     OW13450   2.290   3.963   1.267 -0.0626  0.4659  0.2321
 1179SOL    HW113451   2.252   3.893   1.206  1.3150  2.0634 -2.5819
 1179SOL    HW213452   2.356   3.921   1.330 -0.5552 -1.0375 -0.2394
 1180SOL     OW13453   3.178   8.340   2.465  0.3022  0.0038  0.1835
 1180SOL    HW113454   3.103   8.393   2.426  1.0110  1.7915  1.2132
 1180SOL    HW213455   3.223   8.288   2.392 -1.8250 -0.9912 -0.4671
 1181SOL     OW13456   9.679   5.801   0.528 -0.2100 -0.3713  0.1917
 1181SOL    HW113457   9.617   5.787   0.605 -0.1374 -0.1332  0.2934
 1181SOL    HW213458   9.637   5.765   0.444  0.6154 -2.6099  0.7065
 1182SOL     OW13459   3.664   0.570   1.212  0.5701  0.2653  0.1967
 1182SOL    HW113460   3.587   0.539   1.268 -1.0500  1.4141 -1.3174
 1182SOL    HW213461   3.705   0.492   1.165 -1.2133 -0.0869 -0.8300
 1183SOL     OW13462   2.555   3.433   0.163  0.0522 -0.1398 -0.2440
 1183SOL    HW113463   2.589   3.384   0.244 -0.1704 -0.2687 -0.2307
 1183SOL    HW213464   2.615   3.414   0.086 -0.3127 -0.8257 -0.3628
 1184SOL     OW13465   4.590   0.421   0.207  0.1935  0.2209 -0.2057
 1184SOL    HW113466   4.569   0.515   0.234 -3.6325 -0.9234  1.1015
 1184SOL    HW213467   4.547   0.401   0.118  0.2399 -0.5443 -0.0637
 1185SOL     OW13468   4.934   3.339   2.047  0.3131 -0.4130 -0.5852
 1185SOL    HW113469   4.961   3.319   2.141  0.3854  0.2051 -0.4727
 1185SOL    HW213470   4.856   3.402   2.048  0.5923 -0.0583 -0.9438
 1186SOL     OW13471   3.355   8.298   1.836 -0.1186  0.1237 -0.2473
 1186SOL    HW113472   3.424   8.266   1.902  1.0726  0.6425 -1.2215
 1186SOL    HW213473   3.382   8.271   1.744 -1.2528  0.2910 -0.6336
 1187SOL     OW13474   3.765   2.172   1.632  0.4988 -0.1286  0.3693
 1187SOL    HW113475   3.713   2.237   1.687  0.1712  0.5458 -0.7332
 1187SOL    HW213476   3.860   2.204   1.624  0.3168  0.2639 -0.2449
 1188SOL     OW13477   2.963   2.273   2.373  0.2551  0.7051 -0.5870
 1188SOL    HW113478   2.930   2.243   2.463 -4.5214  0.4975 -2.2672
 1188SOL    HW213479   3.013   2.199   2.329 -1.3721 -0.7812  0.0315
 1189SOL     OW13480   2.666   7.610   2.639  0.2347  0.0209  0.4664
 1189SOL    HW113481   2.762   7.638   2.652  0.4883 -1.3464  1.6232
 1189SOL    HW213482   2.632   7.648   2.553  2.0047  0.0421 -0.2468
 1190SOL     OW13483   9.852   5.258   0.356  0.5812  0.2909  0.3571
 1190SOL    HW113484   9.829   5.162   0.340 -2.5559  1.2270 -1.1076
 1190SOL    HW213485   9.931   5.283   0.300  0.6289 -1.0764 -0.2023
 1191SOL     OW13486   0.535   6.217   2.760  0.2615 -0.4574 -0.2170
 1191SOL    HW113487   0.488   6.131   2.779 -0.0449 -0.1549  0.4025
 1191SOL    HW213488   0.470   6.282   2.719  0.3705 -0.3491 -0.2177
 1192SOL     OW13489   3.910   9.773   1.703 -0.0694  0.2703  0.3422
 1192SOL    HW113490   3.988   9.711   1.716  0.7246  1.0881 -0.4600
 1192SOL    HW213491   3.827   9.728   1.735  0.7821 -0.4767  1.5885
 1193SOL     OW13492   3.078   8.623   2.028 -0.2089  0.2523 -0.1000
 1193SOL    HW113493   3.008   8.578   1.971  1.1502 -0.2364 -1.4222
 1193SOL    HW213494   3.087   8.719   1.999  1.9874 -0.5404 -2.2300
 1194SOL     OW13495   4.408   1.145   2.625 -0.4934 -0.6937 -0.3068
 1194SOL    HW113496   4.341   1.113   2.558 -2.4965 -0.7845  1.6674
 1194SOL    HW213497   4.444   1.234   2.596 -3.3706  0.5902 -0.2065
 1195SOL     OW13498   3.656   5.427   2.481  0.0490 -0.5427 -0.3152
 1195SOL    HW113499   3.566   5.463   2.454 -0.9007 -0.8780  2.2673
 1195SOL    HW213500   3.675   5.344   2.429 -2.0750 -1.5929  0.5271
 1196SOL     OW13501   4.131   1.822   1.245 -0.2553 -0.0422 -0.4589
 1196SOL    HW113502   4.095   1.754   1.309  1.4271 -0.2930  0.2430
 1196SOL    HW213503   4.215   1.787   1.202 -0.9712  0.4029 -2.2959
 1197SOL     OW13504   5.087   2.031   0.626  0.0155  0.1144 -0.1765
 1197SOL    HW113505   5.170   2.068   0.583 -0.2646 -0.2777 -1.0699
 1197SOL    HW213506   5.099   2.028   0.725  1.2214 -0.2923 -0.3256
 1198SOL     OW13507   3.962   3.147   0.238 -0.1913  0.9316 -0.0480
 1198SOL    HW113508   4.051   3.193   0.226 -1.2270  2.8239 -0.6286
 1198SOL    HW213509   3.905   3.201   0.299 -0.9351 -0.3360  0.3924
 1199SOL     OW13510   3.345   8.693   2.238 -0.2016 -0.2875 -0.6102
 1199SOL    HW113511   3.297   8.618   2.193 -1.3300 -0.5520  0.9853
 1199SOL    HW213512   3.353   8.770   2.175  0.7019 -1.6141 -2.1732
 1200SOL     OW13513   2.622   5.028   1.327 -0.1265  0.0521  0.8694
 1200SOL    HW113514   2.649   5.116   1.365 -2.3112  0.3128  1.9367
 1200SOL    HW213515   2.661   5.018   1.235 -1.1104  2.8498  0.0760
 1201SOL     OW13516   3.426   0.048   2.167 -0.0075 -0.1335  0.4254
 1201SOL    HW113517   3.444  -0.050   2.169  1.7029  0.1343 -1.0089
 1201SOL    HW213518   3.392   0.077   2.257  0.8563 -1.7721  1.3042
 1202SOL     OW13519   3.386   8.577   1.650  0.2353 -0.3080 -0.3785
 1202SOL    HW113520   3.298   8.613   1.616 -0.3187 -1.8368 -0.5903
 1202SOL    HW213521   3.394   8.480   1.626  2.8518  0.2844 -2.0975
 1203SOL     OW13522   2.121   4.618   1.196 -0.1073  0.2713  0.1862
 1203SOL    HW113523   2.116   4.580   1.104 -1.3337  0.6033  0.1026
 1203SOL    HW213524   2.095   4.549   1.263  0.3940  0.1504  0.2640
 1204SOL     OW13525   3.452   5.239   2.342  0.7744  0.3950 -0.3087
 1204SOL    HW113526   3.388   5.247   2.418 -0.2833 -0.5732 -1.0654
 1204SOL    HW213527   3.432   5.310   2.274 -0.0251 -0.3748 -0.9001
 1205SOL     OW13528   0.252   5.629   1.718  0.2879  0.0799  0.2089
 1205SOL    HW113529   0.214   5.688   1.646  0.6374  1.2622  0.9890
 1205SOL    HW213530   0.345   5.602   1.692  0.0008 -0.4382 -0.3150
 1206SOL     OW13531   4.342   1.885   1.677 -0.3449 -0.0082 -0.3883
 1206SOL    HW113532   4.403   1.855   1.603  1.5210  2.1033  0.2165
 1206SOL    HW213533   4.248   1.891   1.643  0.0208 -1.8166 -1.7782
 1207SOL     OW13534   2.964   9.303   0.374  0.1800 -0.0112 -0.2465
 1207SOL    HW113535   2.884   9.302   0.434  0.0727 -0.0735 -0.3913
 1207SOL    HW213536   3.009   9.213   0.377 -1.2279 -0.7938 -2.1507
 1208SOL     OW13537   1.393   4.573   0.478  0.4251 -0.1163 -0.0120
 1208SOL    HW113538   1.338   4.495   0.450 -0.2080  0.7944 -1.3313
 1208SOL    HW213539   1.459   4.595   0.407  1.4437 -0.2081  0.8862
 1209SOL     OW13540   1.639   4.836   1.392 -0.0425  0.0068 -0.7598
 1209SOL    HW113541   1.728   4.795   1.376  0.0378 -0.1448  0.0323
 1209SOL    HW213542   1.590   4.782   1.461  0.2355  1.4524  0.6089
 1210SOL     OW13543   4.687   2.653   0.442  0.5388 -0.1323 -0.1931
 1210SOL    HW113544   4.783   2.674   0.461  0.9600 -2.4758  0.4771
 1210SOL    HW213545   4.664   2.685   0.350  1.8039  0.9003 -0.1700
 1211SOL     OW13546   2.648   4.846   2.642 -0.8082  0.5715  0.0802
 1211SOL    HW113547   2.699   4.928   2.669 -0.0199  0.3191 -0.6410
 1211SOL    HW213548   2.559   4.845   2.689 -0.6649  1.6439  0.3779
 1212SOL     OW13549   2.971   8.151   0.730 -0.4098 -0.1383  0.1715
 1212SOL    HW113550   2.983   8.249   0.717 -1.2522 -0.1029 -0.3249
 1212SOL    HW213551   2.898   8.117   0.671 -1.1346 -0.8019  1.4278
 1213SOL     OW13552   2.116   3.221   2.585  0.9713 -0.2512  0.3850
 1213SOL    HW113553   2.153   3.255   2.672  1.1815  0.5628 -0.0142
 1213SOL    HW213554   2.155   3.131   2.565  0.9511 -0.4243  1.1186
 1214SOL     OW13555   3.399   2.619   1.304  0.4255  0.4219 -0.2217
 1214SOL    HW113556   3.441   2.623   1.394  1.9590  1.3875 -0.9542
 1214SOL    HW213557   3.437   2.543   1.252 -1.4964 -1.0079  0.4394
 1215SOL     OW13558   0.768   5.438   1.591 -0.0466  0.6983 -0.2640
 1215SOL    HW113559   0.788   5.536   1.596 -0.2707  0.8862 -2.5677
 1215SOL    HW213560   0.833   5.393   1.529  0.4729 -0.7438  1.2873
 1216SOL     OW13561   3.260   4.673   2.678  0.3819  0.2177 -0.0150
 1216SOL    HW113562   3.202   4.749   2.707 -0.3533 -0.6977  0.9249
 1216SOL    HW213563   3.308   4.636   2.757  0.4919 -0.5092 -0.4158
 1217SOL     OW13564   2.946   3.550   1.554 -0.2856 -0.8799 -0.1811
 1217SOL    HW113565   2.928   3.455   1.529  1.5457 -1.2402 -0.2231
 1217SOL    HW213566   2.927   3.609   1.476 -0.5708 -1.3171 -0.4463
 1218SOL     OW13567   2.448   6.139   0.358  0.1970 -0.3511 -0.0413
 1218SOL    HW113568   2.380   6.212   0.363  1.5053  1.1131 -2.3130
 1218SOL    HW213569   2.416   6.068   0.295 -0.1008 -0.6413  0.4373
 1219SOL     OW13570   3.106   1.292   1.785 -0.0669  0.4514 -0.6582
 1219SOL    HW113571   3.169   1.215   1.773  0.1277  0.8294 -2.1995
 1219SOL    HW213572   3.041   1.271   1.858  1.7811  0.0293  0.8994
 1220SOL     OW13573   5.238   2.755   2.181 -0.0479 -0.0053  0.1595
 1220SOL    HW113574   5.226   2.688   2.254 -0.9810  0.2877  0.2893
 1220SOL    HW213575   5.335   2.763   2.157  0.3408  0.3792  1.8324
 1221SOL     OW13576   3.023   1.651   1.994  0.2606 -0.0950  0.2957
 1221SOL    HW113577   3.097   1.669   1.930  1.0540 -1.4230  0.8117
 1221SOL    HW213578   2.935   1.664   1.949  0.7853 -3.0375 -1.7070
 1222SOL     OW13579   2.827   4.674   0.807  0.1650 -0.2182 -0.4444
 1222SOL    HW113580   2.754   4.681   0.740 -0.9185 -1.7094  0.5381
 1222SOL    HW213581   2.828   4.582   0.846  2.8867 -0.3722 -0.7890
 1223SOL     OW13582   1.807   5.416   1.123 -0.5123  0.0236 -0.4887
 1223SOL    HW113583   1.722   5.419   1.069 -0.8805 -1.1454 -0.0019
 1223SOL    HW213584   1.843   5.322   1.122 -0.3962  0.0383  1.0839
 1224SOL     OW13585   3.095   7.787   1.538  0.0479  0.1871 -0.1382
 1224SOL    HW113586   3.118   7.750   1.448  2.0278  3.2382 -0.9906
 1224SOL    HW213587   3.017   7.849   1.529  1.5601  2.1273 -0.1894
 1225SOL     OW13588   0.520   3.924   0.114  0.2821 -0.1398 -0.0935
 1225SOL    HW113589   0.498   4.021   0.107  1.1171  0.1202  0.7935
 1225SOL    HW213590   0.438   3.874   0.143  0.1743  0.4728  0.6881
 1226SOL     OW13591   3.870   9.594   0.128 -0.2059  0.4229  0.4074
 1226SOL    HW113592   3.929   9.553   0.198  1.7055  1.5690 -0.5191
 1226SOL    HW213593   3.775   9.567   0.146  0.3783 -0.1693  2.8225
 1227SOL     OW13594   2.265   2.494   2.284  0.1456  0.2940  0.6389
 1227SOL    HW113595   2.208   2.575   2.277 -2.2323 -1.3221  0.5097
 1227SOL    HW213596   2.296   2.483   2.379  0.8137  1.5549  0.5708
 1228SOL     OW13597   3.574   1.322   1.203  0.2108  0.1564  0.6529
 1228SOL    HW113598   3.497   1.286   1.256 -0.0589 -1.7113 -0.9487
 1228SOL    HW213599   3.586   1.419   1.223 -3.4574  0.8420 -0.1296
 1229SOL     OW13600   3.846   1.006   1.841  0.0409 -0.2495 -0.1951
 1229SOL    HW113601   3.755   0.966   1.831  0.3882 -0.7115 -1.6972
 1229SOL    HW213602   3.894   0.961   1.916 -0.7949 -0.3301  0.2937
 1230SOL     OW13603   2.645   2.073   2.726  0.0183  0.1765 -0.4936
 1230SOL    HW113604   2.715   2.013   2.766  1.2600  1.5694 -0.5314
 1230SOL    HW213605   2.598   2.024   2.652  0.8283 -0.8495 -0.3489
 1231SOL     OW13606   1.477   5.410   0.675  0.2039  0.2026 -0.5327
 1231SOL    HW113607   1.546   5.482   0.675  2.0750 -1.5236  0.3495
 1231SOL    HW213608   1.514   5.329   0.722 -2.1949 -0.9818 -0.6175
 1232SOL     OW13609   3.290   8.804   1.852 -0.0736 -0.3454 -0.7604
 1232SOL    HW113610   3.329   8.714   1.833 -0.0085 -0.3708 -0.5182
 1232SOL    HW213611   3.347   8.851   1.919 -0.8350 -0.6697  0.1366
 1233SOL     OW13612   2.981   9.643   2.230 -0.5989 -1.0388 -0.0060
 1233SOL    HW113613   2.921   9.563   2.238 -0.3349 -1.1746  0.6857
 1233SOL    HW213614   3.004   9.658   2.134 -1.7119 -1.0028 -0.2763
 1234SOL     OW13615   4.411   5.219   0.535 -0.3216 -0.4348 -0.2401
 1234SOL    HW113616   4.370   5.139   0.490  0.9221  0.1383 -2.4642
 1234SOL    HW213617   4.500   5.238   0.494 -0.4906  1.9503  0.4290
 1235SOL     OW13618   4.589   0.900   1.842 -0.4782 -0.1228 -0.5499
 1235SOL    HW113619   4.523   0.972   1.863  0.6573  0.2858  1.7763
 1235SOL    HW213620   4.658   0.935   1.778 -0.8630  0.3656 -0.6959
 1236SOL     OW13621   4.977   2.727   1.303 -0.6310  0.4316  0.3806
 1236SOL    HW113622   5.036   2.790   1.353 -0.4486  0.8064 -0.3022
 1236SOL    HW213623   4.887   2.769   1.290  0.0195  1.2845 -1.5907
 1237SOL     OW13624   0.560   4.482   1.929 -0.8042  0.6685  0.2358
 1237SOL    HW113625   0.602   4.567   1.962  0.4033 -0.1940  0.9173
 1237SOL    HW213626   0.543   4.420   2.005 -0.9353 -0.0388 -0.3604
 1238SOL     OW13627   3.191   8.470   0.196 -0.2999 -0.5471 -0.2163
 1238SOL    HW113628   3.264   8.538   0.206 -0.2422 -0.6594  0.1552
 1238SOL    HW213629   3.152   8.477   0.105 -0.0029 -0.3054 -0.3290
 1239SOL     OW13630   4.388   9.669   2.262 -0.3980 -0.1037 -0.3921
 1239SOL    HW113631   4.341   9.746   2.220 -0.5859 -0.1409 -0.2525
 1239SOL    HW213632   4.345   9.583   2.232 -0.7387 -0.1175  0.1162
 1240SOL     OW13633   1.502   3.900   2.430  0.1708  0.1337 -0.4050
 1240SOL    HW113634   1.551   3.883   2.345  0.5988  1.4128 -0.4347
 1240SOL    HW213635   1.484   3.999   2.439 -1.3426 -0.1775  0.1798
 1241SOL     OW13636   1.006   4.942   1.284  0.2895 -0.2666 -0.4594
 1241SOL    HW113637   1.013   5.002   1.364  3.2113  1.2619 -1.7685
 1241SOL    HW213638   1.098   4.928   1.246 -0.6106 -3.9033 -1.4346
 1242SOL     OW13639   4.791   0.811   0.831  0.8709  0.2993 -0.4737
 1242SOL    HW113640   4.776   0.802   0.930 -1.2697  2.1936 -0.5933
 1242SOL    HW213641   4.820   0.722   0.794 -2.0929 -1.4762  1.2194
 1243SOL     OW13642   3.766   1.644   1.472 -0.0847  0.5240 -0.0478
 1243SOL    HW113643   3.736   1.595   1.390 -0.3273 -0.0889  0.3963
 1243SOL    HW213644   3.693   1.705   1.503 -0.8132 -0.8123  0.9126
 1244SOL     OW13645   3.101   5.560   1.256  0.1805 -0.3276 -0.6231
 1244SOL    HW113646   3.198   5.575   1.279  0.5397 -1.8695 -1.1001
 1244SOL    HW213647   3.044   5.597   1.330  1.0814  1.4848 -0.7938
 1245SOL     OW13648   2.524   5.490   0.121  0.2323 -0.0390  0.2365
 1245SOL    HW113649   2.497   5.499   0.217 -1.8200  0.9277 -0.4002
 1245SOL    HW213650   2.458   5.539   0.064  0.9791 -1.2938 -1.7307
 1246SOL     OW13651   9.579   5.008   0.108 -0.6314 -0.2492 -0.6811
 1246SOL    HW113652   9.511   5.074   0.139  1.0523  0.7696  0.9808
 1246SOL    HW213653   9.535   4.921   0.088 -2.5368  0.6670 -0.5406
 1247SOL     OW13654   3.062   6.201   2.147  0.9608 -0.1226 -0.6856
 1247SOL    HW113655   3.029   6.162   2.061  2.8668 -1.8476 -0.6649
 1247SOL    HW213656   2.997   6.179   2.220  1.7836 -2.9723 -0.7513
 1248SOL     OW13657   2.081   3.467   1.784  0.0848  0.2599  0.0213
 1248SOL    HW113658   2.139   3.475   1.703 -2.9232  0.7898 -2.1754
 1248SOL    HW213659   2.105   3.385   1.834  1.7462 -0.3035 -1.6447
 1249SOL     OW13660   4.116   0.460   0.558  0.3325  0.0849 -0.3544
 1249SOL    HW113661   4.030   0.463   0.507  1.2739 -2.0798 -2.1272
 1249SOL    HW213662   4.191   0.487   0.498  1.0709  0.7822  0.8536
 1250SOL     OW13663   3.569   4.254   1.301 -0.3090 -0.1890 -0.6103
 1250SOL    HW113664   3.623   4.296   1.374  0.1166  0.3709 -1.2356
 1250SOL    HW213665   3.580   4.155   1.304 -0.0768 -0.1500 -0.0870
 1251SOL     OW13666   4.860   1.307   2.663 -0.2318 -0.3076 -0.4945
 1251SOL    HW113667   4.940   1.332   2.717 -2.2737  1.7658  1.6540
 1251SOL    HW213668   4.837   1.381   2.600 -0.8295 -0.6265 -0.6578
 1252SOL     OW13669   2.936   9.294   1.510  0.1166 -0.0446 -0.5241
 1252SOL    HW113670   2.875   9.250   1.576  0.7571 -0.3826 -0.1485
 1252SOL    HW213671   2.952   9.232   1.433  0.7411 -0.3298 -0.1641
 1253SOL     OW13672   1.995   2.202   2.423 -0.1188 -0.1780 -0.1594
 1253SOL    HW113673   1.955   2.117   2.456  0.0398 -0.5189 -0.8507
 1253SOL    HW213674   2.012   2.196   2.325 -0.8743  0.9401 -0.3828
 1254SOL     OW13675   3.015   5.307   2.397 -0.1856 -0.1162 -0.4290
 1254SOL    HW113676   3.071   5.345   2.324 -0.1618 -0.3445 -0.5286
 1254SOL    HW213677   3.042   5.346   2.485 -0.2927  0.2459 -0.5574
 1255SOL     OW13678   2.381   6.187   0.873  0.4687 -0.1911 -0.4081
 1255SOL    HW113679   2.426   6.115   0.819 -0.6946 -0.2552 -1.3181
 1255SOL    HW213680   2.423   6.275   0.852 -0.7561 -0.0289 -2.4019
 1256SOL     OW13681   4.368   1.048   2.171  0.1653  0.6674 -0.5744
 1256SOL    HW113682   4.455   1.098   2.174  0.0780  0.7200  1.9336
 1256SOL    HW213683   4.384   0.951   2.186 -0.2186  0.6853 -0.0399
 1257SOL     OW13684   9.290   5.378   0.811  0.2202  1.3222  0.2845
 1257SOL    HW113685   9.337   5.371   0.899  0.4418  1.4715  0.1802
 1257SOL    HW213686   9.202   5.330   0.815  1.5224 -1.2032 -0.3083
 1258SOL     OW13687   3.764   8.656   1.772 -0.1868  0.4388 -0.0854
 1258SOL    HW113688   3.721   8.665   1.682 -0.4319 -0.1069 -0.0266
 1258SOL    HW213689   3.823   8.735   1.789  1.7314 -0.5978 -1.7248
 1259SOL     OW13690   8.898   4.821   0.446  0.1162 -0.1252  0.6410
 1259SOL    HW113691   8.798   4.820   0.440  0.1330  0.8752  0.2078
 1259SOL    HW213692   8.936   4.746   0.392 -0.2683  1.3876 -1.7892
 1260SOL     OW13693   1.183   3.434   2.519  0.4272 -0.1289  0.1846
 1260SOL    HW113694   1.232   3.358   2.561 -0.1941  0.4615  2.0307
 1260SOL    HW213695   1.225   3.520   2.546 -0.9618  0.3317  0.9335
 1261SOL     OW13696   0.964   3.706   0.929  0.6362 -0.6239 -0.4065
 1261SOL    HW113697   1.015   3.620   0.927  1.5333 -0.1141  0.0807
 1261SOL    HW213698   0.875   3.694   0.885  1.4034 -1.3996 -1.7793
 1262SOL     OW13699   9.934   4.811   2.735  0.8173  0.3122  0.4044
 1262SOL    HW113700   9.875   4.880   2.779  1.2828 -0.1649  1.8149
 1262SOL    HW213701   9.892   4.781   2.649 -0.3432  0.9488  0.7350
 1263SOL     OW13702   3.765   1.961   2.684  0.1085 -0.2103 -0.1154
 1263SOL    HW113703   3.838   1.994   2.745  0.8801 -1.5433 -0.3113
 1263SOL    HW213704   3.798   1.883   2.632 -1.4272 -0.7282 -0.3274
 1264SOL     OW13705   4.267   8.540   1.141  0.6312  0.1358  0.0974
 1264SOL    HW113706   4.302   8.455   1.102  1.4794 -0.8995  2.9835
 1264SOL    HW213707   4.336   8.611   1.132  1.8294 -0.7634  1.9080
 1265SOL     OW13708   1.464   5.264   0.281 -0.1218 -0.0873 -1.0012
 1265SOL    HW113709   1.556   5.279   0.317 -0.1167 -0.2487 -0.9495
 1265SOL    HW213710   1.398   5.269   0.356  0.0048 -1.6665 -0.7661
 1266SOL     OW13711   3.182   2.912   0.198  0.5775 -0.8863 -0.3095
 1266SOL    HW113712   3.157   2.824   0.238  0.6614 -0.3341  0.9710
 1266SOL    HW213713   3.102   2.955   0.157  0.0747 -0.5225  1.0626
 1267SOL     OW13714   4.065   9.445   1.014 -0.1375  0.2425 -0.0766
 1267SOL    HW113715   4.153   9.449   1.060 -0.1281  2.2688 -0.2159
 1267SOL    HW213716   3.994   9.419   1.079  0.5576 -1.6069 -0.0068
 1268SOL     OW13717   2.622   3.382   0.663  0.6041  0.0095  0.2339
 1268SOL    HW113718   2.695   3.438   0.702  1.6722 -1.5298  0.5294
 1268SOL    HW213719   2.565   3.345   0.737  1.4168 -1.2861  0.2313
 1269SOL     OW13720   2.698   6.511   1.887 -0.4172  0.4895 -0.1326
 1269SOL    HW113721   2.756   6.539   1.964 -0.2701 -1.0181  0.3266
 1269SOL    HW213722   2.625   6.451   1.921 -2.0183  2.0123 -0.7633
 1270SOL     OW13723   3.353   3.756   0.616  0.1999 -0.0178  0.3962
 1270SOL    HW113724   3.449   3.729   0.607  0.1107 -0.1706 -0.1332
 1270SOL    HW213725   3.347   3.840   0.671  0.4055 -1.5296  2.7809
 1271SOL     OW13726   1.402   3.288   0.521  0.5440 -0.1364  0.0510
 1271SOL    HW113727   1.482   3.249   0.567  1.3752  1.5077  0.0274
 1271SOL    HW213728   1.411   3.275   0.422  1.3212  1.0031 -0.0372
 1272SOL     OW13729   3.905   9.129   1.369 -0.5878  0.2634 -0.3960
 1272SOL    HW113730   3.965   9.067   1.420 -0.6635 -1.0215 -1.8533
 1272SOL    HW213731   3.812   9.093   1.370 -0.5705  0.1817 -1.5227
 1273SOL     OW13732   9.091   5.595   0.533  0.0365  0.3226  0.2350
 1273SOL    HW113733   9.073   5.536   0.455  1.1958 -0.1882  0.3425
 1273SOL    HW213734   9.175   5.647   0.517 -0.8109  1.7261  0.2701
 1274SOL     OW13735   3.087   0.910   2.013  0.4181 -0.9657  0.3214
 1274SOL    HW113736   3.133   0.826   1.985 -1.0933 -1.3947 -0.8999
 1274SOL    HW213737   3.006   0.925   1.956 -0.2019  0.4960  1.5523
 1275SOL     OW13738   1.143   4.563   1.840 -0.2647 -0.3421  0.1412
 1275SOL    HW113739   1.173   4.598   1.751  0.4016 -0.0752  0.4724
 1275SOL    HW213740   1.222   4.532   1.893 -0.6759 -0.6579  0.5785
 1276SOL     OW13741   4.809   1.555   2.194  0.3715  0.2360 -0.1180
 1276SOL    HW113742   4.804   1.638   2.249 -1.4310 -1.6230  2.6874
 1276SOL    HW213743   4.892   1.557   2.137  1.1291  3.2295  1.0111
 1277SOL     OW13744   4.616   0.480   0.918  0.1276 -0.3976  0.1376
 1277SOL    HW113745   4.653   0.462   1.009 -0.8063  0.7785  0.7680
 1277SOL    HW213746   4.517   0.463   0.919  0.4994 -2.8669 -1.3448
 1278SOL     OW13747   0.681   3.772   0.827 -0.2461  0.0746 -0.0261
 1278SOL    HW113748   0.595   3.736   0.863 -0.4956  0.8769  0.1879
 1278SOL    HW213749   0.698   3.862   0.865 -0.7979  1.1989 -2.3358
 1279SOL     OW13750   4.002   4.816   2.099 -0.2348 -0.0766  0.1651
 1279SOL    HW113751   3.971   4.780   2.011 -0.8249 -0.3359  0.4742
 1279SOL    HW213752   3.927   4.866   2.143  0.0157 -0.0606  0.5800
 1280SOL     OW13753   4.083   1.893   2.460  0.5308 -0.5059  0.2380
 1280SOL    HW113754   4.152   1.921   2.393  1.0546 -1.4831  0.3729
 1280SOL    HW213755   4.127   1.853   2.540 -0.0545  1.2608  1.4871
 1281SOL     OW13756   4.722   3.440   0.592 -0.2695  0.5701  0.3042
 1281SOL    HW113757   4.666   3.493   0.655 -1.0992 -0.7969  0.7515
 1281SOL    HW213758   4.725   3.345   0.623  1.5029  0.4256 -0.2618
 1282SOL     OW13759   3.002   4.851   0.062 -0.1045  0.2079  0.0847
 1282SOL    HW113760   3.061   4.798   0.123 -0.4221  1.6639  1.7116
 1282SOL    HW213761   2.909   4.851   0.097 -1.0646 -1.8705 -2.3438
 1283SOL     OW13762   4.461   9.099   1.992  0.5535  0.1126  0.4243
 1283SOL    HW113763   4.487   9.178   2.046 -0.4130  0.2030  0.7696
 1283SOL    HW213764   4.480   9.015   2.044  0.2554  0.1760  0.6415
 1284SOL     OW13765   1.738   5.230   0.366  0.2779  0.0715  0.0992
 1284SOL    HW113766   1.785   5.215   0.453  0.9750  0.6873 -0.1629
 1284SOL    HW213767   1.801   5.271   0.301 -0.3634  0.0141 -0.5650
 1285SOL     OW13768   3.988   0.889   2.059 -0.8534 -0.1796 -0.3661
 1285SOL    HW113769   3.906   0.922   2.107 -0.3790 -1.6400  1.4755
 1285SOL    HW213770   4.069   0.911   2.112 -0.3264 -1.8545 -0.4520
 1286SOL     OW13771   2.298   6.027   0.100 -0.7474 -0.6583 -0.3223
 1286SOL    HW113772   2.338   6.064   0.017 -0.1131  0.6942  0.5626
 1286SOL    HW213773   2.336   5.936   0.117  2.3522  0.7720  0.7233
 1287SOL     OW13774   3.893   4.834   0.542  0.3418 -0.3885 -0.3201
 1287SOL    HW113775   3.969   4.894   0.522  0.2794  0.4834  1.9145
 1287SOL    HW213776   3.913   4.741   0.509  1.7958  0.1260 -0.8883
 1288SOL     OW13777   3.030   4.652   1.150 -0.8156  0.4446  0.9693
 1288SOL    HW113778   2.971   4.577   1.120  0.6480  0.8063 -3.1464
 1288SOL    HW213779   3.125   4.622   1.149 -0.1811  2.3352 -0.9925
 1289SOL     OW13780   4.284   9.321   2.460 -0.1387  0.1246  0.3590
 1289SOL    HW113781   4.291   9.237   2.406  0.3184  0.5670 -0.2726
 1289SOL    HW213782   4.373   9.367   2.462 -0.9248  1.7522 -1.1936
 1290SOL     OW13783   1.386   3.448   1.070 -0.2429  0.5789 -0.1174
 1290SOL    HW113784   1.347   3.537   1.093 -0.8059  0.3763 -0.2977
 1290SOL    HW213785   1.341   3.376   1.123 -0.1820  0.3388 -0.3841
 1291SOL     OW13786   2.453   8.135   0.786  0.8283  0.2128 -0.0614
 1291SOL    HW113787   2.484   8.204   0.851  3.2127  1.0665 -2.0430
 1291SOL    HW213788   2.482   8.045   0.817  2.8569  0.7177 -0.4204
 1292SOL     OW13789   4.232   9.371   2.731 -0.3494 -0.6568  0.2713
 1292SOL    HW113790   4.197   9.279   2.713  0.2479 -0.9276  0.4667
 1292SOL    HW213791   4.291   9.399   2.656  1.1680 -1.2945  1.1929
 1293SOL     OW13792   4.068   4.177   2.559 -0.4400 -0.1339  0.1208
 1293SOL    HW113793   4.018   4.093   2.581 -0.6400 -0.4296 -1.4190
 1293SOL    HW213794   4.076   4.187   2.460 -1.2176  2.1379  0.2480
 1294SOL     OW13795   3.605   0.449   1.916  0.2370  0.2974  0.3654
 1294SOL    HW113796   3.665   0.476   1.991 -1.2433  0.2344  1.5990
 1294SOL    HW213797   3.574   0.355   1.931 -1.8970  1.0633  0.9022
 1295SOL     OW13798   2.053   4.539   2.145 -0.1385 -0.2551 -0.8855
 1295SOL    HW113799   2.089   4.535   2.051  0.0288  0.2806 -0.8479
 1295SOL    HW213800   2.114   4.595   2.201 -0.4997 -0.1796 -0.5730
 1296SOL     OW13801   0.898   4.864   1.991 -0.7734 -0.0762 -0.3757
 1296SOL    HW113802   0.836   4.913   2.052  0.4407 -1.3575  1.9322
 1296SOL    HW213803   0.850   4.787   1.950 -0.9283 -0.6070  0.8001
 1297SOL     OW13804   4.222   1.146   0.180  0.3030 -0.0843  0.4782
 1297SOL    HW113805   4.202   1.083   0.105  0.2064  1.1695 -0.5681
 1297SOL    HW213806   4.216   1.098   0.267 -0.5672 -1.3184 -0.2602
 1298SOL     OW13807   4.795   2.252   0.341 -0.1839 -0.1774 -0.1981
 1298SOL    HW113808   4.741   2.218   0.264 -0.5358  0.1604 -0.1030
 1298SOL    HW213809   4.810   2.350   0.329 -1.9978  0.2975  1.2077
 1299SOL     OW13810   3.211   6.721   2.470  0.1773  0.1299 -0.1743
 1299SOL    HW113811   3.306   6.709   2.497  0.1570 -0.4370 -0.3597
 1299SOL    HW213812   3.157   6.750   2.549  0.4213  0.0363  0.0262
 1300SOL     OW13813   2.626   5.994   2.359 -0.3713 -0.4124  0.0278
 1300SOL    HW113814   2.550   5.930   2.358 -1.4431  0.8292  0.5532
 1300SOL    HW213815   2.592   6.087   2.347  1.0891  0.1340 -0.0022
 1301SOL     OW13816   2.399   5.570   2.299 -0.1535 -0.1066 -0.2754
 1301SOL    HW113817   2.418   5.571   2.201 -2.1384 -1.1231 -0.6992
 1301SOL    HW213818   2.398   5.475   2.331  1.6619  0.2639  1.0046
 1302SOL     OW13819   4.131   8.657   0.219 -0.3202  0.1731  0.7111
 1302SOL    HW113820   4.185   8.741   0.211 -1.8909  1.2187  0.8279
 1302SOL    HW213821   4.038   8.674   0.186 -0.1950 -2.0007 -0.8735
 1303SOL     OW13822   0.247   5.526   1.961  0.7708 -0.5108  0.2861
 1303SOL    HW113823   0.244   5.556   1.866 -1.8167  0.2336  0.5743
 1303SOL    HW213824   0.321   5.573   2.009  2.0805 -0.8825 -1.3300
 1304SOL     OW13825   3.790   5.242   1.758  0.4349  0.3816  0.0807
 1304SOL    HW113826   3.761   5.169   1.696  1.0221 -1.5379  2.0026
 1304SOL    HW213827   3.867   5.291   1.718  1.9150 -1.9357  0.0047
 1305SOL     OW13828   3.584   8.866   0.473  0.4998  0.6624  0.2047
 1305SOL    HW113829   3.565   8.771   0.452  0.9255  0.3932  0.9835
 1305SOL    HW213830   3.593   8.877   0.572 -0.0952  1.6124  0.1602
 1306SOL     OW13831   2.589   3.080   0.359 -0.0389  0.2432  0.2694
 1306SOL    HW113832   2.637   2.994   0.372 -0.1748  0.0385 -0.5856
 1306SOL    HW213833   2.578   3.099   0.262 -2.5037 -0.1740  0.4183
 1307SOL     OW13834   2.368   7.053   1.558 -0.3960  0.5980  0.0681
 1307SOL    HW113835   2.382   6.974   1.618  1.4690  2.5155  2.2827
 1307SOL    HW213836   2.291   7.107   1.592 -1.0288  0.2562 -0.8364
 1308SOL     OW13837   2.684   2.637   2.664  0.1726 -0.2720 -0.6845
 1308SOL    HW113838   2.765   2.695   2.659  0.7473 -1.1096 -1.0308
 1308SOL    HW213839   2.660   2.607   2.571  0.7524 -1.8133 -0.3371
 1309SOL     OW13840   2.393   3.047   0.034  0.3531  0.0620 -0.0884
 1309SOL    HW113841   2.419   2.953   0.055 -2.2624 -0.9451 -1.1677
 1309SOL    HW213842   2.432   3.073  -0.054  1.3904  0.1371  0.3846
 1310SOL     OW13843   2.750   1.016   1.367  0.5330 -0.1800  0.1033
 1310SOL    HW113844   2.802   0.935   1.340 -0.7695 -1.8093  2.3176
 1310SOL    HW213845   2.750   1.024   1.466 -0.8553  1.5379 -0.0116
 1311SOL     OW13846   2.590   3.401   1.476 -0.0620  0.1463  0.3356
 1311SOL    HW113847   2.541   3.414   1.389  0.3913 -0.6102 -0.0345
 1311SOL    HW213848   2.544   3.454   1.548 -1.7451 -0.9862  0.1226
 1312SOL     OW13849   3.167   8.125   0.368 -0.7937  0.2235  0.2712
 1312SOL    HW113850   3.168   8.027   0.348 -0.3672  0.3612 -0.3850
 1312SOL    HW213851   3.260   8.157   0.386 -1.1621  0.1171  2.4618
 1313SOL     OW13852   1.309   3.916   0.768  0.2909 -0.0976 -0.0579
 1313SOL    HW113853   1.261   3.986   0.822 -0.3100 -1.0246  0.6265
 1313SOL    HW213854   1.243   3.870   0.708  0.4125 -1.0404  0.5285
 1314SOL     OW13855   2.217   3.513   2.361  0.0081  0.3236 -0.2990
 1314SOL    HW113856   2.134   3.562   2.333  0.9340  0.1794 -3.5233
 1314SOL    HW213857   2.196   3.454   2.439 -1.7190  3.9240  2.0627
 1315SOL     OW13858   3.627   2.606   1.036  0.4183  0.2474  0.4162
 1315SOL    HW113859   3.591   2.699   1.038  2.5113  1.0791  1.2745
 1315SOL    HW213860   3.572   2.547   1.094  0.4014  1.4575  1.6358
 1316SOL     OW13861   1.624   5.543   0.317 -0.3445 -0.2711 -0.0515
 1316SOL    HW113862   1.630   5.593   0.230 -0.8254 -0.2011 -0.0436
 1316SOL    HW213863   1.601   5.607   0.390  1.7083 -0.0269  0.4167
 1317SOL     OW13864   3.555   8.133   1.969 -0.0418  0.0909 -0.1259
 1317SOL    HW113865   3.569   8.087   1.881  0.7289  0.8497 -0.3973
 1317SOL    HW213866   3.623   8.205   1.981 -0.6074  0.4881  0.7621
 1318SOL     OW13867   2.846   3.273   1.487  0.1272  0.5032  0.0475
 1318SOL    HW113868   2.873   3.251   1.393 -0.0391 -1.4696  0.4457
 1318SOL    HW213869   2.756   3.316   1.487 -0.3174 -0.4216 -0.6104
 1319SOL     OW13870   2.087   5.875   0.867  0.3750  0.0698 -0.5500
 1319SOL    HW113871   2.083   5.974   0.861 -0.6380  0.0961  0.4325
 1319SOL    HW213872   2.027   5.835   0.797 -0.3518  0.1708  0.0148
 1320SOL     OW13873   0.870   6.160   0.425 -0.9013  0.2167  0.8211
 1320SOL    HW113874   0.882   6.252   0.389 -3.8024  0.0809 -0.5757
 1320SOL    HW213875   0.929   6.096   0.375 -0.6266  0.9454  0.2135
 1321SOL     OW13876   2.827   8.460   0.318 -0.1731  0.2353  0.6365
 1321SOL    HW113877   2.913   8.426   0.356  0.7536  2.8736  0.9851
 1321SOL    HW213878   2.845   8.513   0.235 -1.4460  0.8179  0.7117
 1322SOL     OW13879   0.099   4.733   0.719  0.1903  0.1465 -0.5707
 1322SOL    HW113880   0.126   4.789   0.641 -2.0644 -0.1922 -1.6266
 1322SOL    HW213881   0.121   4.637   0.702  1.8009  0.3539  0.2097
 1323SOL     OW13882   2.233   2.275   0.540 -0.2213  0.2013 -0.2197
 1323SOL    HW113883   2.180   2.190   0.534  0.2934 -0.2370  1.1086
 1323SOL    HW213884   2.331   2.253   0.532  0.0441  0.4037  2.0453
 1324SOL     OW13885   2.268   4.815   1.591 -0.1564  0.0548  0.0011
 1324SOL    HW113886   2.334   4.887   1.614 -0.8988  1.3151 -1.7234
 1324SOL    HW213887   2.200   4.808   1.664 -1.1677  2.4108 -0.6921
 1325SOL     OW13888   4.467   1.427   1.633  0.1077  0.0647  0.4785
 1325SOL    HW113889   4.377   1.383   1.634  0.0626  0.1644  1.0288
 1325SOL    HW213890   4.461   1.515   1.679 -0.5558  2.1779 -3.4687
 1326SOL     OW13891   1.600   3.211   1.050 -0.0311  0.1669  0.1810
 1326SOL    HW113892   1.581   3.113   1.050 -0.0434  0.1660 -0.1826
 1326SOL    HW213893   1.516   3.261   1.072 -0.0815  0.1037  0.1332
 1327SOL     OW13894   0.435   4.134   0.410 -0.1688 -0.1719 -0.0410
 1327SOL    HW113895   0.336   4.124   0.402 -0.3216  1.1481 -0.0029
 1327SOL    HW213896   0.459   4.154   0.505  0.0936 -0.1573 -0.1092
 1328SOL     OW13897   2.348   4.588   0.948 -0.2092  0.2993  0.5151
 1328SOL    HW113898   2.389   4.635   0.869  0.9541  0.4341  1.1889
 1328SOL    HW213899   2.406   4.601   1.028 -1.8220  0.8634  1.6011
 1329SOL     OW13900   4.056   9.466   2.482 -0.2613 -0.3549  0.1762
 1329SOL    HW113901   3.995   9.400   2.440  0.3296 -1.0953  0.4783
 1329SOL    HW213902   4.151   9.444   2.459 -0.0091 -0.0940  0.9365
 1330SOL     OW13903   3.350   2.370   2.202 -0.5229  0.2989 -0.2776
 1330SOL    HW113904   3.423   2.432   2.229  0.2483  0.0900 -1.8386
 1330SOL    HW213905   3.350   2.290   2.261  0.0550  0.6220  0.1607
 1331SOL     OW13906   9.048   5.025   0.290 -0.0871  0.3822 -0.0452
 1331SOL    HW113907   9.001   4.963   0.353  0.0675 -0.1186 -0.4241
 1331SOL    HW213908   8.986   5.049   0.215 -0.0568  0.4725 -0.0420
 1332SOL     OW13909   2.429   7.822   0.502 -0.3542 -0.4383  1.0223
 1332SOL    HW113910   2.457   7.776   0.418  0.4135 -1.7494  1.9733
 1332SOL    HW213911   2.333   7.800   0.521 -0.6724  0.2560  0.2426
 1333SOL     OW13912   4.476   3.588   1.785 -0.3210 -0.1899 -0.3139
 1333SOL    HW113913   4.454   3.605   1.689  0.4748 -3.3060 -1.1083
 1333SOL    HW213914   4.411   3.523   1.823  1.2565 -1.4422  0.2920
 1334SOL     OW13915   1.174   3.367   0.602 -0.2234 -0.1749  0.3697
 1334SOL    HW113916   1.266   3.334   0.585 -0.0996 -0.6397  1.9153
 1334SOL    HW213917   1.111   3.290   0.608 -0.5856  0.0972  0.1280
 1335SOL     OW13918   2.291   3.967   0.044  0.3552  0.3397 -0.6295
 1335SOL    HW113919   2.297   3.968   0.144  0.9936  1.4269 -0.6665
 1335SOL    HW213920   2.258   3.878   0.013  2.0919 -0.7145  0.4496
 1336SOL     OW13921   1.809   5.051   2.547  0.2666 -0.4279  0.1095
 1336SOL    HW113922   1.749   4.989   2.496 -0.6921  0.5451  0.0419
 1336SOL    HW213923   1.755   5.104   2.613  1.1456  0.0070  0.4913
 1337SOL     OW13924   2.390   1.311   0.433 -0.0134  0.1689 -0.7341
 1337SOL    HW113925   2.480   1.294   0.474  0.5717  0.6320 -1.8013
 1337SOL    HW213926   2.338   1.372   0.493 -0.4364 -1.8014  0.9213
 1338SOL     OW13927   3.242   5.287   1.130 -0.5484  0.5497 -0.1539
 1338SOL    HW113928   3.300   5.212   1.100 -1.0150  0.1485 -0.0671
 1338SOL    HW213929   3.187   5.320   1.053 -0.1136  1.0150 -0.2673
 1339SOL     OW13930   0.057   4.076   2.584  0.0256 -0.0858 -0.2500
 1339SOL    HW113931  -0.030   4.029   2.577  0.8315 -1.7890  0.8548
 1339SOL    HW213932   0.076   4.124   2.498 -2.0142  0.3868 -0.4639
 1340SOL     OW13933   4.737   2.093   2.690 -0.4855 -0.2414  0.1281
 1340SOL    HW113934   4.736   2.004   2.646  0.7712  0.2173 -0.8250
 1340SOL    HW213935   4.772   2.084   2.783  0.2992 -0.6295 -0.2076
 1341SOL     OW13936   3.382   0.922   2.459  0.6145 -0.4375 -0.4726
 1341SOL    HW113937   3.481   0.922   2.445  0.7987 -0.3005  0.7769
 1341SOL    HW213938   3.346   0.830   2.446  1.0089 -0.6231 -0.2472
 1342SOL     OW13939   3.307   5.962   0.725 -0.1058  0.6700  0.1288
 1342SOL    HW113940   3.365   5.948   0.806 -3.2916  0.1781  2.4195
 1342SOL    HW213941   3.299   6.059   0.706  0.5471  0.7950  0.4608
 1343SOL     OW13942   4.418   3.248   0.126  0.3226  0.0333 -0.3000
 1343SOL    HW113943   4.378   3.171   0.077  0.1795  1.0234 -1.7487
 1343SOL    HW213944   4.473   3.303   0.063 -0.9284  2.0633  0.3313
 1344SOL     OW13945   2.142   5.852   1.910 -0.2995 -0.1409 -0.6928
 1344SOL    HW113946   2.213   5.781   1.912 -0.3130 -0.1997 -1.8182
 1344SOL    HW213947   2.157   5.916   1.985  0.0181 -1.0445  0.0240
 1345SOL     OW13948   9.422   5.599   0.708 -0.4012 -0.5908  0.1283
 1345SOL    HW113949   9.477   5.603   0.792 -0.6728 -0.1743  0.2847
 1345SOL    HW213950   9.348   5.532   0.720 -0.6110 -0.3250  0.3227
 1346SOL     OW13951   2.281   4.409   2.781  0.2385  0.0533  0.3314
 1346SOL    HW113952   2.380   4.415   2.798  0.0093 -0.9183  2.0981
 1346SOL    HW213953   2.251   4.314   2.792 -0.7168  0.1505 -1.3084
 1347SOL     OW13954   3.882   9.387   0.823 -0.6939  0.6554  0.3752
 1347SOL    HW113955   3.971   9.412   0.858  0.1684 -0.1179 -1.1832
 1347SOL    HW213956   3.824   9.356   0.898  1.2635 -1.4610  1.0706
 1348SOL     OW13957   4.282   8.608   1.461  0.0248 -0.1986  0.0877
 1348SOL    HW113958   4.327   8.697   1.452 -1.3749  0.2195 -3.3499
 1348SOL    HW213959   4.195   8.609   1.413  0.0023 -3.4610 -0.0838
 1349SOL     OW13960   1.246   6.202   2.713 -0.3628  0.3693 -0.0312
 1349SOL    HW113961   1.203   6.111   2.716 -0.1141  0.3019  2.1447
 1349SOL    HW213962   1.320   6.205   2.780 -0.4217  2.2061 -0.0393
 1350SOL     OW13963   8.869   5.582   0.708  0.1590 -0.0126  0.2082
 1350SOL    HW113964   8.934   5.555   0.779 -0.5987 -0.7259  0.6297
 1350SOL    HW213965   8.919   5.622   0.631  1.0303  0.2114  0.8846
 1351SOL     OW13966   0.585   4.123   2.706 -0.2517 -0.4118  0.0746
 1351SOL    HW113967   0.509   4.057   2.703 -0.2321 -0.5183  1.4695
 1351SOL    HW213968   0.601   4.150   2.801  0.0944  1.2045 -0.4371
 1352SOL     OW13969   4.760   1.443   1.890 -0.4093 -0.9558 -0.5498
 1352SOL    HW113970   4.833   1.391   1.844 -0.2883 -0.7324 -0.6127
 1352SOL    HW213971   4.672   1.418   1.851 -0.1886  0.1639 -1.7889
 1353SOL     OW13972   3.450   9.635   1.207  0.6733  0.6579 -0.1446
 1353SOL    HW113973   3.508   9.598   1.279  0.0066 -2.0118 -0.9188
 1353SOL    HW213974   3.489   9.721   1.173  1.9432  1.0041  2.1265
 1354SOL     OW13975   0.368   4.774   2.457 -0.8194  0.4558  0.5662
 1354SOL    HW113976   0.353   4.779   2.556  1.6594  1.3730  0.9188
 1354SOL    HW213977   0.458   4.735   2.439 -1.3885 -0.0279 -1.3641
 1355SOL     OW13978   3.118   2.457   1.453  0.2804 -0.1153  0.0360
 1355SOL    HW113979   3.074   2.541   1.420 -1.0724 -0.5131  0.8284
 1355SOL    HW213980   3.192   2.481   1.516  0.5082  0.5089 -0.4582
 1356SOL     OW13981   4.031   9.479   1.448 -0.3136  0.7105  0.0799
 1356SOL    HW113982   4.118   9.521   1.423  0.0640  0.1708  0.4805
 1356SOL    HW213983   3.978   9.462   1.365  0.6533 -0.4547 -0.3123
 1357SOL     OW13984   3.136   2.074   2.632 -0.1718  0.3236  0.1204
 1357SOL    HW113985   3.201   1.999   2.621 -0.7336 -0.2519  0.6932
 1357SOL    HW213986   3.165   2.152   2.577 -1.1379 -1.3142 -2.8363
 1358SOL     OW13987   2.839   4.275   1.484 -0.7887 -0.3411 -0.7682
 1358SOL    HW113988   2.753   4.227   1.497 -0.0174 -1.3987  0.5700
 1358SOL    HW213989   2.832   4.367   1.523 -0.3636 -1.4768  2.0690
 1359SOL     OW13990   1.580   4.121   1.727  0.7951 -0.1982  0.1333
 1359SOL    HW113991   1.600   4.090   1.635  1.5842 -1.3193  0.6676
 1359SOL    HW213992   1.486   4.156   1.731  0.1649 -1.7361 -0.7117
 1360SOL     OW13993   3.436   0.613   0.059 -0.1801 -0.2308 -0.2748
 1360SOL    HW113994   3.397   0.524   0.082 -0.1464 -0.3780 -0.7781
 1360SOL    HW213995   3.370   0.685   0.079  0.3399 -0.2445  1.5192
 1361SOL     OW13996   3.200   9.229   2.680  0.3064  0.2365 -0.3791
 1361SOL    HW113997   3.212   9.327   2.694  0.6259 -0.0000  0.9896
 1361SOL    HW213998   3.254   9.200   2.601  1.1111  0.9516 -0.0984
 1362SOL     OW13999   2.310   6.329   1.834  0.2106 -0.0668  0.0343
 1362SOL    HW114000   2.313   6.231   1.817  0.7698  0.0080 -0.3176
 1362SOL    HW214001   2.380   6.353   1.901  1.0528  0.3018 -0.9689
 1363SOL     OW14002   3.445   5.393   2.740 -0.1264 -0.4017 -0.2894
 1363SOL    HW114003   3.489   5.460   2.680 -1.1411  0.8621  0.3656
 1363SOL    HW214004   3.425   5.434   2.829 -0.3205 -1.7167  0.2985
 1364SOL     OW14005   3.553   2.287   1.858  0.6877  0.4696  0.7609
 1364SOL    HW114006   3.541   2.384   1.837 -1.7757 -0.2025 -1.1704
 1364SOL    HW214007   3.567   2.275   1.956 -1.3566  2.6042  1.3549
 1365SOL     OW14008   3.636   5.206   2.824 -0.0045 -0.9810 -0.3323
 1365SOL    HW114009   3.580   5.263   2.764 -0.2870 -2.3043 -1.3604
 1365SOL    HW214010   3.577   5.148   2.880  0.2912 -0.8371  0.1256
 1366SOL     OW14011   2.925   8.668   1.751  0.2168  0.0175  0.1641
 1366SOL    HW114012   2.906   8.583   1.801 -1.2143  0.4476  0.3721
 1366SOL    HW214013   2.962   8.646   1.661  0.6977 -0.8134  0.5561
 1367SOL     OW14014   3.243   1.623   0.807 -0.4520 -0.2172 -0.3895
 1367SOL    HW114015   3.162   1.644   0.861  0.8594  1.2297  1.0475
 1367SOL    HW214016   3.325   1.651   0.856  0.7946  0.9399 -3.0127
 1368SOL     OW14017   0.146   4.146   2.321  0.1616 -0.2198 -0.3296
 1368SOL    HW114018   0.101   4.090   2.251  0.1878 -0.1285 -0.4192
 1368SOL    HW214019   0.147   4.242   2.291  3.8376 -0.7297 -2.0786
 1369SOL     OW14020   4.607   3.387   2.831 -0.0452  0.1703 -0.0052
 1369SOL    HW114021   4.663   3.305   2.834 -0.8292 -0.3473  0.8466
 1369SOL    HW214022   4.665   3.467   2.816  0.6996 -0.5531 -1.0640
 1370SOL     OW14023   3.895   8.792   0.629  0.0936 -0.2390  0.2194
 1370SOL    HW114024   3.877   8.694   0.619 -0.3358 -0.2361  0.9245
 1370SOL    HW214025   3.900   8.815   0.726  1.7573  0.1615  0.0555
 1371SOL     OW14026   4.355   8.854   1.380  0.0099  0.5375 -0.2882
 1371SOL    HW114027   4.388   8.822   1.291 -1.6032  3.9391 -2.2193
 1371SOL    HW214028   4.406   8.935   1.407 -1.0113  0.8175  0.8213
 1372SOL     OW14029   3.349   1.518   0.583 -0.3437  0.4247 -0.2484
 1372SOL    HW114030   3.305   1.550   0.667 -1.4530 -2.2552  0.2624
 1372SOL    HW214031   3.295   1.547   0.504 -1.0473  0.2460  0.1656
 1373SOL     OW14032   3.265   3.177   2.263 -0.5931  0.5678 -0.0773
 1373SOL    HW114033   3.178   3.136   2.237 -0.8405  2.6400 -2.8045
 1373SOL    HW214034   3.249   3.270   2.297  0.4774  0.6450  0.2263
 1374SOL     OW14035   3.140   4.409   1.630  0.4621  0.2705 -0.1285
 1374SOL    HW114036   3.200   4.384   1.554  0.4535 -0.4593  0.1058
 1374SOL    HW214037   3.045   4.410   1.599  0.5446  0.9606 -0.3777
 1375SOL     OW14038   4.074   4.584   0.092 -0.1632 -0.1709 -0.0838
 1375SOL    HW114039   4.078   4.612   0.188 -1.2848  0.5598 -0.2426
 1375SOL    HW214040   4.078   4.484   0.085  1.0133 -0.1849  0.6518
 1376SOL     OW14041   4.737   2.768   1.141  0.2307  0.1629  0.5255
 1376SOL    HW114042   4.725   2.679   1.095  1.4250  0.3026 -0.0787
 1376SOL    HW214043   4.647   2.807   1.162 -0.3674  0.1828 -1.8806
 1377SOL     OW14044   2.798   6.686   2.130 -0.2213  0.4173 -0.0484
 1377SOL    HW114045   2.761   6.770   2.092 -0.9421  0.4272  0.6527
 1377SOL    HW214046   2.795   6.691   2.230  1.3373  0.2671  0.0201
 1378SOL     OW14047   4.261   4.029   2.329 -0.4082  0.0857  0.1069
 1378SOL    HW114048   4.311   3.946   2.302  0.0259  0.6749 -0.9053
 1378SOL    HW214049   4.187   4.004   2.391  0.7458 -0.8743  1.1283
 1379SOL     OW14050   9.457   4.549   2.403  0.2682  0.4681 -0.7519
 1379SOL    HW114051   9.475   4.612   2.327 -1.5449 -1.0326 -2.4949
 1379SOL    HW214052   9.499   4.461   2.384  1.5097  0.6754  0.9621
 1380SOL     OW14053   1.891   5.158   1.050  0.2838 -0.2243  0.0005
 1380SOL    HW114054   1.808   5.108   1.024  0.4913 -1.4555  1.5931
 1380SOL    HW214055   1.957   5.154   0.976 -0.5893 -0.3485 -0.7820
 1381SOL     OW14056   0.033   5.249   0.648  0.6012 -0.4551  0.1246
 1381SOL    HW114057   0.088   5.248   0.732  0.5058 -0.4790  0.1873
 1381SOL    HW214058   0.006   5.343   0.627  0.9255 -0.4063 -0.0766
 1382SOL     OW14059   3.396   2.096   0.042  0.1116  0.2169 -0.0311
 1382SOL    HW114060   3.305   2.136   0.044  0.4571  1.0099 -0.1872
 1382SOL    HW214061   3.415   2.051   0.129  0.4034  1.8888  0.7750
 1383SOL     OW14062   2.678   6.610   0.623 -0.1743 -0.5876  0.0069
 1383SOL    HW114063   2.637   6.665   0.696 -0.4267 -0.4408 -0.2417
 1383SOL    HW214064   2.615   6.607   0.545  0.1514 -0.6315 -0.2552
 1384SOL     OW14065   2.204   5.605   0.945  0.1182  0.9391  0.2420
 1384SOL    HW114066   2.248   5.571   0.862 -0.7697 -1.5130  0.7455
 1384SOL    HW214067   2.169   5.697   0.929  0.1822  0.5906 -2.0175
 1385SOL     OW14068   1.768   5.273   1.894 -0.1418 -0.6354 -0.2959
 1385SOL    HW114069   1.742   5.328   1.814  0.5164  1.1787  0.7269
 1385SOL    HW214070   1.687   5.254   1.949 -0.4784 -1.2786 -0.9994
 1386SOL     OW14071   2.587   4.531   1.565 -0.2148 -0.9515 -0.7073
 1386SOL    HW114072   2.546   4.604   1.510  1.2968 -0.7293 -1.5751
 1386SOL    HW214073   2.514   4.478   1.609 -1.2816  1.9476  1.1217
 1387SOL     OW14074   3.545   9.076   2.213 -0.3637  0.0885 -0.2604
 1387SOL    HW114075   3.572   9.150   2.152 -1.8018  0.2053 -0.7649
 1387SOL    HW214076   3.510   9.115   2.299  1.6216 -0.0731  0.6418
 1388SOL     OW14077   2.958   8.102   0.995 -0.6121 -0.0707  0.6527
 1388SOL    HW114078   2.907   8.017   1.009 -2.0170  0.9241  1.5976
 1388SOL    HW214079   2.957   8.125   0.897 -2.6534  0.3574  0.7612
 1389SOL     OW14080   1.766   2.381   0.086 -0.0293 -0.8471 -0.3470
 1389SOL    HW114081   1.707   2.462   0.085  0.6959 -0.2854  0.9947
 1389SOL    HW214082   1.716   2.305   0.128 -0.3897 -0.8510 -0.7743
 1390SOL     OW14083   3.173   0.850   1.568 -0.6589  0.0525 -0.0697
 1390SOL    HW114084   3.181   0.880   1.473 -0.0397  0.3633  0.0777
 1390SOL    HW214085   3.158   0.752   1.572 -1.1930  0.1134 -0.5044
 1391SOL     OW14086   9.322   5.718   0.469  0.7023 -0.2509 -0.2181
 1391SOL    HW114087   9.403   5.706   0.412  1.2632  0.3644  0.4476
 1391SOL    HW214088   9.348   5.713   0.566 -0.2762 -1.5799  0.0087
 1392SOL     OW14089   3.017   6.474   1.569  0.2226  0.1922  0.0630
 1392SOL    HW114090   3.033   6.411   1.645 -0.2836  0.8936  0.7478
 1392SOL    HW214091   3.081   6.452   1.494  1.0395 -0.1991  0.8646
 1393SOL     OW14092   1.119   5.189   0.099  1.0228  0.2189  0.0179
 1393SOL    HW114093   1.097   5.111   0.040  1.3819 -0.4817  0.7986
 1393SOL    HW214094   1.168   5.258   0.046  0.9569 -0.2011 -0.6063
 1394SOL     OW14095   9.234   4.975   0.023 -0.2470  0.0060  0.3004
 1394SOL    HW114096   9.216   4.880  -0.000  0.4118 -0.8146  2.9725
 1394SOL    HW214097   9.173   5.035  -0.030 -2.8247 -2.0537  0.8549
 1395SOL     OW14098   4.862   1.452   1.387  0.5998  0.3123  0.8439
 1395SOL    HW114099   4.910   1.469   1.300  1.9525  0.5288  1.6110
 1395SOL    HW214100   4.797   1.377   1.375  0.8265  0.2964 -0.3422
 1396SOL     OW14101   3.425   6.068   2.151  0.2183  0.4958 -0.1710
 1396SOL    HW114102   3.394   5.980   2.116  0.6469  0.1331  0.3651
 1396SOL    HW214103   3.513   6.058   2.197  0.5712  1.3171 -0.6569
 1397SOL     OW14104   3.457   7.954   1.452  0.3602 -0.1148  0.3713
 1397SOL    HW114105   3.405   7.948   1.537  0.2958  1.0119  0.4293
 1397SOL    HW214106   3.514   7.873   1.441  0.4821 -0.1899  1.5600
 1398SOL     OW14107   4.506   0.083   2.192 -0.0597  0.0085 -0.9367
 1398SOL    HW114108   4.510   0.105   2.290  2.0350  0.3047 -1.0854
 1398SOL    HW214109   4.470  -0.010   2.181  1.8115 -0.8720  0.2363
 1399SOL     OW14110   4.469   3.232   2.070 -0.5437  0.4407  0.4873
 1399SOL    HW114111   4.399   3.190   2.128 -0.6833  1.7272  1.2819
 1399SOL    HW214112   4.523   3.161   2.026 -1.2656 -0.5631  1.1956
 1400SOL     OW14113   4.129   9.985   0.413  0.3047 -0.0310  0.1002
 1400SOL    HW114114   4.035   9.957   0.395  0.1616 -0.2534  1.1463
 1400SOL    HW214115   4.132  10.038   0.498  0.7448  2.1593 -1.2551
 1401SOL     OW14116   3.367   7.322   0.557 -0.1100  0.1093 -0.0698
 1401SOL    HW114117   3.298   7.382   0.597 -1.7545 -0.7889 -1.4810
 1401SOL    HW214118   3.386   7.246   0.620  1.1275  1.4624  1.2147
 1402SOL     OW14119   3.142   3.919   0.018  0.4265 -0.6235 -0.6386
 1402SOL    HW114120   3.234   3.933   0.056 -0.6370 -1.6159  2.4320
 1402SOL    HW214121   3.099   4.008   0.002  0.4750 -0.1828  1.5890
 1403SOL     OW14122   3.715   4.460   1.056 -0.3164 -0.0472 -0.1620
 1403SOL    HW114123   3.644   4.530   1.066 -0.1760  0.1811 -0.7114
 1403SOL    HW214124   3.783   4.471   1.128 -0.7960 -0.2128  0.3142
 1404SOL     OW14125   9.814   4.294   2.452  0.1097 -1.1429  0.1267
 1404SOL    HW114126   9.892   4.354   2.466 -0.3139 -0.7459  0.8064
 1404SOL    HW214127   9.754   4.297   2.532 -2.0551  0.6935 -1.4872
 1405SOL     OW14128   0.207   5.771   0.493 -0.4014  0.4198  0.0797
 1405SOL    HW114129   0.232   5.717   0.574  1.3584  1.8985  0.5404
 1405SOL    HW214130   0.118   5.814   0.509 -0.9856 -0.8636  0.4231
 1406SOL     OW14131   2.811   5.149   1.133  0.3519 -0.4317 -0.3213
 1406SOL    HW114132   2.800   5.246   1.154 -0.8238 -0.5505 -0.3091
 1406SOL    HW214133   2.890   5.112   1.181  0.4704  0.3858  0.1171
 1407SOL     OW14134   3.234   8.808   1.333  0.3713 -0.3533 -1.1102
 1407SOL    HW114135   3.298   8.815   1.257  2.0008 -1.1306  0.1380
 1407SOL    HW214136   3.152   8.862   1.314  1.3704  0.6074 -2.7698
 1408SOL     OW14137   4.602   3.603   0.791 -0.0763 -0.9767  0.1797
 1408SOL    HW114138   4.524   3.642   0.742  0.5475 -0.3576 -0.3406
 1408SOL    HW214139   4.672   3.674   0.803 -0.1277 -1.1945  1.7669
 1409SOL     OW14140   1.937   4.995   1.524 -0.9659 -0.5117  0.2256
 1409SOL    HW114141   1.876   5.044   1.587 -0.7974  0.6747 -0.5233
 1409SOL    HW214142   1.958   5.054   1.446  0.7678 -1.0906  0.2479
 1410SOL     OW14143   3.838   2.602   2.421  0.1742 -0.2467 -0.0946
 1410SOL    HW114144   3.878   2.540   2.353  2.0813 -0.0293  0.8078
 1410SOL    HW214145   3.873   2.579   2.512 -1.1061  0.5106  0.5967
 1411SOL     OW14146   2.343   2.199   0.291  0.0541 -0.3456 -0.0115
 1411SOL    HW114147   2.374   2.172   0.382 -0.3657  2.0805  0.8667
 1411SOL    HW214148   2.249   2.232   0.296  0.7098  1.7464 -0.9381
 1412SOL     OW14149   3.861   2.224   1.040  0.1174 -0.7439  0.1737
 1412SOL    HW114150   3.919   2.156   1.084  1.5725 -0.6870 -1.6145
 1412SOL    HW214151   3.772   2.183   1.019  1.7049 -2.8773 -2.8733
 1413SOL     OW14152   0.022   4.859   2.158 -0.3753  0.2583  0.3939
 1413SOL    HW114153  -0.067   4.886   2.121 -0.1276  0.9805  0.3192
 1413SOL    HW214154   0.094   4.915   2.116  0.2305 -1.0268 -0.3369
 1414SOL     OW14155   2.881   3.285   1.201 -0.3231  0.0355  0.5529
 1414SOL    HW114156   2.796   3.238   1.179 -1.3486  1.0889  2.1984
 1414SOL    HW214157   2.917   3.330   1.119 -0.7715 -1.3007 -0.3881
 1415SOL     OW14158   3.607   2.120   1.077  0.2306 -0.8814  0.5670
 1415SOL    HW114159   3.620   2.096   1.173  0.5164 -1.8459  0.2963
 1415SOL    HW214160   3.525   2.175   1.066 -0.0037 -1.0862  1.3143
 1416SOL     OW14161   4.468   8.500   2.770 -0.7847  0.2347  0.6489
 1416SOL    HW114162   4.418   8.498   2.857 -1.3517  2.0257  0.3756
 1416SOL    HW214163   4.405   8.522   2.696 -0.1527 -0.5364 -0.1311
 1417SOL     OW14164   2.433   3.904   2.253 -0.1524  0.0006 -0.2002
 1417SOL    HW114165   2.416   3.864   2.343 -0.4003 -2.0721 -1.1414
 1417SOL    HW214166   2.349   3.947   2.220  0.2910  1.8897  1.0964
 1418SOL     OW14167   1.781   5.024   1.747 -0.5001  0.1883 -0.8162
 1418SOL    HW114168   1.756   4.938   1.790 -1.1836  0.0490 -1.4813
 1418SOL    HW214169   1.775   5.098   1.814  2.2313 -0.5743  0.3543
 1419SOL     OW14170   2.351   4.239   0.646 -0.2345 -0.2338  0.0726
 1419SOL    HW114171   2.307   4.308   0.587  0.4737  0.5499  0.4559
 1419SOL    HW214172   2.386   4.165   0.589 -0.9216 -0.2392 -0.3521
 1420SOL     OW14173   4.753   1.931   2.102  0.6221 -0.3672 -0.0222
 1420SOL    HW114174   4.770   1.973   2.013 -0.9952  0.0216 -0.1552
 1420SOL    HW214175   4.785   1.992   2.174  1.7065 -0.5725 -0.3196
 1421SOL     OW14176   1.616   5.213   0.805  0.4134 -0.3756 -0.2269
 1421SOL    HW114177   1.640   5.115   0.808  0.7712 -0.2479  0.9433
 1421SOL    HW214178   1.585   5.243   0.895 -1.4986  0.1466 -1.0439
 1422SOL     OW14179   1.932   4.297   2.080  0.3495 -0.0602 -0.0631
 1422SOL    HW114180   1.959   4.382   2.125 -1.3341  1.3145 -1.5775
 1422SOL    HW214181   1.995   4.278   2.004  0.5048  0.0172  0.0450
 1423SOL     OW14182   2.941   8.183   1.576  0.5929  0.0401  0.1935
 1423SOL    HW114183   2.858   8.239   1.573  0.2755 -0.4693 -1.0026
 1423SOL    HW214184   2.996   8.209   1.655 -0.5364  0.6286  0.8087
 1424SOL     OW14185   3.521   4.278   2.815 -0.0256 -0.3600  0.4480
 1424SOL    HW114186   3.563   4.330   2.740 -0.8788  1.3770  1.1556
 1424SOL    HW214187   3.592   4.253   2.881  0.0703  2.0207  1.3176
 1425SOL     OW14188   3.477   1.424   1.988  0.0808 -0.7242 -0.5236
 1425SOL    HW114189   3.522   1.392   1.904  0.8321  0.6336 -0.6505
 1425SOL    HW214190   3.547   1.453   2.053 -0.5462 -0.6993  0.1355
 1426SOL     OW14191   1.566   4.823   2.762 -0.2423  0.7808  0.4935
 1426SOL    HW114192   1.590   4.919   2.780 -0.1706  0.6426  1.1426
 1426SOL    HW214193   1.503   4.819   2.684  1.6733  1.1575 -1.0915
 1427SOL     OW14194   3.861   0.969   0.039 -0.8074  0.3956 -0.3825
 1427SOL    HW114195   3.800   0.890   0.036  0.7055 -0.7773 -1.2124
 1427SOL    HW214196   3.822   1.044  -0.015 -0.7976 -0.8869 -2.2463
 1428SOL     OW14197   3.638   2.996   2.518 -0.3808 -0.4243  0.0457
 1428SOL    HW114198   3.617   2.900   2.501 -0.8450 -0.3434  0.1667
 1428SOL    HW214199   3.597   3.052   2.447 -0.3733 -0.2848  0.1513
 1429SOL     OW14200   1.755   6.031   0.566  0.2399 -0.2122 -0.3325
 1429SOL    HW114201   1.821   6.085   0.514 -1.4667 -0.9717 -3.3964
 1429SOL    HW214202   1.740   6.073   0.656  3.4538  0.9803 -0.3037
 1430SOL     OW14203   4.039   2.006   1.658  0.4561 -0.2401 -0.5675
 1430SOL    HW114204   4.017   2.064   1.736  0.5170 -0.2995 -0.5075
 1430SOL    HW214205   4.020   2.056   1.573 -1.3181 -0.7894 -0.5275
 1431SOL     OW14206   1.509   5.840   1.560 -0.4083  0.1035 -0.1802
 1431SOL    HW114207   1.457   5.789   1.630 -0.3600  1.3338  0.7584
 1431SOL    HW214208   1.453   5.849   1.478 -0.2089 -1.9555 -0.5652
 1432SOL     OW14209   3.446   5.600   2.380  0.0592 -0.1618  0.3083
 1432SOL    HW114210   3.391   5.611   2.298  2.2189  1.3035 -0.9828
 1432SOL    HW214211   3.418   5.668   2.448  1.5354  1.8624 -1.0682
 1433SOL     OW14212   4.247   0.635   0.775  0.5076  0.1630 -0.4452
 1433SOL    HW114213   4.346   0.647   0.779  0.4398  1.1587 -1.7240
 1433SOL    HW214214   4.221   0.596   0.686 -0.2164 -0.5241  0.0491
 1434SOL     OW14215   4.366   2.143   1.119  0.0004  0.5532 -0.1899
 1434SOL    HW114216   4.434   2.099   1.061  2.4898  2.4727  1.1820
 1434SOL    HW214217   4.320   2.215   1.068  0.1854  0.3804 -0.6034
 1435SOL     OW14218   3.706   2.947   0.287  0.1413 -0.3482 -0.0092
 1435SOL    HW114219   3.619   2.975   0.326 -1.2307 -0.5877 -2.8040
 1435SOL    HW214220   3.771   3.023   0.293 -0.4602  0.0616  1.4514
 1436SOL     OW14221   2.785   7.092   2.282 -0.3469 -1.0419 -0.4919
 1436SOL    HW114222   2.687   7.088   2.303 -0.2891  0.6914  0.1987
 1436SOL    HW214223   2.798   7.111   2.185 -0.7772  2.0494 -0.0046
 1437SOL     OW14224   2.888   0.526   2.404 -0.5404  0.2093 -0.2814
 1437SOL    HW114225   2.824   0.545   2.329  0.1822  0.7992 -0.7635
 1437SOL    HW214226   2.974   0.491   2.366 -0.2873  0.2027  0.2939
 1438SOL     OW14227   3.194   7.748   2.007  0.0160 -0.3462 -0.2610
 1438SOL    HW114228   3.220   7.707   1.919 -1.4308 -2.5866  0.3271
 1438SOL    HW214229   3.194   7.678   2.078 -1.1559  0.9714  1.0620
 1439SOL     OW14230   1.420   6.330   1.285  0.3530 -0.0106  0.0465
 1439SOL    HW114231   1.382   6.332   1.192 -0.3391 -2.2701  0.2333
 1439SOL    HW214232   1.490   6.259   1.290  0.3372  0.0571  1.2608
 1440SOL     OW14233   1.519   3.008   2.624  0.1144 -0.2742  0.3234
 1440SOL    HW114234   1.557   2.923   2.659  0.2757 -0.3841 -0.1128
 1440SOL    HW214235   1.577   3.043   2.551 -0.6510 -0.4615 -0.3768
 1441SOL     OW14236   4.359   1.096   1.862  0.1811  0.0467  0.2910
 1441SOL    HW114237   4.387   1.192   1.869  1.0695 -0.2310  0.6960
 1441SOL    HW214238   4.331   1.063   1.952  0.0320 -0.1130  0.1854
 1442SOL     OW14239   3.195   6.847   2.216 -0.4108 -0.4145 -0.1241
 1442SOL    HW114240   3.204   6.792   2.299  1.2789 -0.3463 -0.2494
 1442SOL    HW214241   3.187   6.944   2.241 -1.3749 -0.5241  0.0105
 1443SOL     OW14242   1.948   2.490   1.083 -0.3631 -0.2615  0.8731
 1443SOL    HW114243   1.933   2.450   0.993 -1.7081  0.4292  0.7806
 1443SOL    HW214244   2.044   2.476   1.110 -0.1357 -1.1247 -0.3251
 1444SOL     OW14245   3.717   2.366   1.412  0.2125 -0.2012  0.2402
 1444SOL    HW114246   3.760   2.439   1.358 -1.3430  0.4782 -0.1115
 1444SOL    HW214247   3.783   2.293   1.428  1.1698  0.3151 -1.2462
 1445SOL     OW14248   1.381   4.477   2.176  0.1654  0.2973 -0.5054
 1445SOL    HW114249   1.422   4.436   2.094 -1.2163  0.7345 -1.4370
 1445SOL    HW214250   1.441   4.461   2.254  0.0646 -2.7853 -0.9821
 1446SOL     OW14251   2.550   6.008   0.735 -0.3483 -0.9814 -0.2512
 1446SOL    HW114252   2.591   6.029   0.646 -1.4407  0.1839 -0.4779
 1446SOL    HW214253   2.556   5.909   0.751 -0.0133 -1.1785 -1.5476
 1447SOL     OW14254   3.902   9.165   2.405  0.0657 -0.0270 -0.1255
 1447SOL    HW114255   3.968   9.099   2.442  0.9744  1.6067  1.2144
 1447SOL    HW214256   3.823   9.171   2.467  0.3610  0.7371  0.1828
 1448SOL     OW14257   2.800   7.873   0.952  0.5586 -0.2872 -0.2824
 1448SOL    HW114258   2.729   7.842   0.887 -0.3651 -2.1849  1.5545
 1448SOL    HW214259   2.886   7.828   0.930  1.0837  1.5385 -2.1332
 1449SOL     OW14260   3.082   5.359   1.851 -0.0247  0.2228 -0.1704
 1449SOL    HW114261   3.045   5.269   1.828 -0.1668  0.6610 -1.7263
 1449SOL    HW214262   3.083   5.370   1.950  2.0953 -2.3554  0.1621
 1450SOL     OW14263   1.499   5.710   0.547 -0.6410  0.3090 -0.2328
 1450SOL    HW114264   1.570   5.688   0.614 -1.3420 -0.8875  0.1309
 1450SOL    HW214265   1.532   5.782   0.486  0.4422  0.5872  0.6641
 1451SOL     OW14266   1.813   3.229   1.860  1.3159  0.4832 -0.1842
 1451SOL    HW114267   1.904   3.252   1.893  1.7400  0.0895 -1.0556
 1451SOL    HW214268   1.820   3.190   1.768  0.3714 -0.5107  0.1482
 1452SOL     OW14269   3.486   2.218   1.385  0.1470  0.0381  0.2868
 1452SOL    HW114270   3.443   2.206   1.475 -3.9202  3.1967 -1.0744
 1452SOL    HW214271   3.562   2.282   1.393 -1.6085  2.0800  1.1692
 1453SOL     OW14272   3.230   1.451   2.101  0.3231  0.7326  0.0199
 1453SOL    HW114273   3.170   1.514   2.050  0.3333  0.2851 -0.5531
 1453SOL    HW214274   3.322   1.455   2.062  0.1812 -0.0740 -0.3976
 1454SOL     OW14275   2.777   7.890   2.618  0.3413 -0.2485 -0.2114
 1454SOL    HW114276   2.777   7.821   2.546 -1.0013  0.0428 -0.5039
 1454SOL    HW214277   2.778   7.982   2.577 -2.2082 -0.0561  0.0744
 1455SOL     OW14278   1.425   6.014   0.630  0.0580  1.1206  0.0804
 1455SOL    HW114279   1.366   5.955   0.685 -1.1928  1.4298 -0.9017
 1455SOL    HW214280   1.497   6.052   0.687  1.1544 -1.6960  0.6354
 1456SOL     OW14281   2.534   1.683   2.736  0.3507 -0.3641 -0.2332
 1456SOL    HW114282   2.622   1.713   2.700  1.7386 -1.9964  1.6812
 1456SOL    HW214283   2.549   1.619   2.811 -2.4450  0.7463  1.3535
 1457SOL     OW14284   4.608   3.950   2.018 -0.2552  0.3212  0.1422
 1457SOL    HW114285   4.666   3.942   2.099  1.9664 -1.5761 -1.5586
 1457SOL    HW214286   4.607   4.045   1.986  0.3449  0.7329  1.3337
 1458SOL     OW14287   1.617   2.629   0.134  0.0320  0.3839  0.0262
 1458SOL    HW114288   1.686   2.685   0.181  0.2837 -1.9903  2.6050
 1458SOL    HW214289   1.526   2.656   0.165  0.0458  0.5769 -0.0984
 1459SOL     OW14290   3.069   2.073   0.942  0.1377 -0.1050 -0.1355
 1459SOL    HW114291   3.053   2.162   0.900 -0.1826 -0.1343 -0.0832
 1459SOL    HW214292   3.118   2.014   0.878 -0.3490 -0.1505 -0.4715
 1460SOL     OW14293   2.897   7.501   2.193 -0.3260 -0.3163 -0.2046
 1460SOL    HW114294   2.869   7.443   2.116  0.0670 -0.4505 -0.2473
 1460SOL    HW214295   2.892   7.448   2.277  2.5188 -1.2253 -0.5513
 1461SOL     OW14296   3.480   0.188   0.067  0.3618 -0.7307 -0.7722
 1461SOL    HW114297   3.558   0.243   0.038 -0.6465  0.6427 -0.9059
 1461SOL    HW214298   3.509   0.123   0.138  1.9668 -1.3479 -1.9632
 1462SOL     OW14299   4.474   2.300   0.760 -0.1819  0.1547 -0.3121
 1462SOL    HW114300   4.490   2.361   0.683 -0.9302 -0.0188 -0.6100
 1462SOL    HW214301   4.518   2.212   0.743 -0.6820 -0.0177 -0.7223
 1463SOL     OW14302   4.130   2.325   2.365 -0.4336 -0.9097 -0.2499
 1463SOL    HW114303   4.188   2.406   2.375 -0.1055 -1.0916 -0.6826
 1463SOL    HW214304   4.184   2.249   2.330 -0.1221 -2.0786  2.6562
 1464SOL     OW14305   2.184   7.067   1.222 -0.4962  0.0077  0.1669
 1464SOL    HW114306   2.169   7.165   1.222 -0.6451  0.0206 -2.2191
 1464SOL    HW214307   2.277   7.047   1.254 -0.3992  0.9380  0.4676
 1465SOL     OW14308   3.699   4.568   2.390  0.1566  0.2015  0.0131
 1465SOL    HW114309   3.773   4.574   2.457  0.5961 -0.0482 -0.4485
 1465SOL    HW214310   3.622   4.624   2.421  0.0770 -0.4908  1.0879
 1466SOL     OW14311   3.734   9.430   0.589 -0.2018  0.6439 -0.5403
 1466SOL    HW114312   3.786   9.408   0.671 -1.0129  0.0249 -0.1882
 1466SOL    HW214313   3.774   9.511   0.545  2.1481 -0.8269 -1.2441
 1467SOL     OW14314   4.475   9.255   0.404  0.1496 -0.3461 -0.1432
 1467SOL    HW114315   4.513   9.328   0.460  0.0981  0.8241 -1.6094
 1467SOL    HW214316   4.406   9.293   0.342 -1.4872 -2.0049  0.6290
 1468SOL     OW14317   2.207   5.357   1.654 -0.5218  0.5610 -0.1188
 1468SOL    HW114318   2.129   5.313   1.699  0.0612 -0.2241  0.1454
 1468SOL    HW214319   2.174   5.419   1.583 -1.3609 -1.0707 -1.2088
 1469SOL     OW14320   0.993   5.081   1.563 -0.3462  0.4855  0.1786
 1469SOL    HW114321   0.931   5.048   1.633 -0.7252  0.3685 -0.2140
 1469SOL    HW214322   1.088   5.064   1.591 -0.4915  0.5775  0.7268
 1470SOL     OW14323   1.698   5.994   2.654  0.1687 -0.6188 -0.0853
 1470SOL    HW114324   1.717   6.085   2.691 -0.1474 -0.7259  0.3501
 1470SOL    HW214325   1.784   5.946   2.639  0.3373 -0.2535 -0.3065
 1471SOL     OW14326   3.830   2.471   1.146  0.0139 -0.3759  0.5539
 1471SOL    HW114327   3.833   2.382   1.100 -1.8645 -0.9199  1.4579
 1471SOL    HW214328   3.761   2.529   1.102  0.0163  0.0148  1.0676
 1472SOL     OW14329   1.276   5.400   0.505  0.2633 -0.0689 -0.3625
 1472SOL    HW114330   1.197   5.461   0.507 -0.3763 -0.8631 -0.8846
 1472SOL    HW214331   1.336   5.420   0.582  0.1597  1.3384 -0.6301
 1473SOL     OW14332   2.510   3.387   1.205  0.1397  0.1221 -0.2604
 1473SOL    HW114333   2.433   3.353   1.151  0.0393 -1.3545  0.8020
 1473SOL    HW214334   2.588   3.402   1.144 -0.6893  0.7543 -1.1937
 1474SOL     OW14335   3.896   8.741   0.133 -0.1168  0.0905 -0.2725
 1474SOL    HW114336   3.804   8.714   0.106 -0.3263  1.1349 -0.6059
 1474SOL    HW214337   3.891   8.807   0.208  0.3721 -0.0764 -0.0877
 1475SOL     OW14338   2.486   5.711   2.724 -0.6222  0.4423  0.1187
 1475SOL    HW114339   2.520   5.739   2.634  1.4264 -1.6830  0.1678
 1475SOL    HW214340   2.502   5.785   2.790 -1.8356  1.8823 -1.1756
 1476SOL     OW14341   4.148   1.370   2.441  1.1951  0.2237 -0.3441
 1476SOL    HW114342   4.155   1.270   2.437  0.8856  0.0818  1.7874
 1476SOL    HW214343   4.129   1.406   2.350  1.9965 -1.6008 -1.2710
 1477SOL     OW14344   2.497   3.098   1.258 -0.1042  0.3255 -0.4526
 1477SOL    HW114345   2.419   3.056   1.304  1.0631 -0.7169  0.6227
 1477SOL    HW214346   2.504   3.194   1.287  0.4777 -0.2527  1.4388
 1478SOL     OW14347   2.871   7.334   1.980 -0.4439 -0.0047 -0.0401
 1478SOL    HW114348   2.878   7.346   1.881 -0.8527 -0.3563 -0.1114
 1478SOL    HW214349   2.961   7.311   2.017 -0.0719  1.1538 -0.1878
 1479SOL     OW14350   3.286   6.390   2.519 -0.0030 -0.3442 -0.6339
 1479SOL    HW114351   3.275   6.484   2.488  0.9859 -0.1317 -0.3629
 1479SOL    HW214352   3.294   6.329   2.440  0.2511 -0.0835 -0.8112
 1480SOL     OW14353   3.689   3.690   1.987  0.3095 -0.0349 -1.1129
 1480SOL    HW114354   3.617   3.662   1.924  1.5501  1.4644 -3.2398
 1480SOL    HW214355   3.683   3.788   2.003  1.6617  0.0349 -1.0140
 1481SOL     OW14356   2.827   4.059   0.325  0.4488  0.3494  0.4379
 1481SOL    HW114357   2.790   4.133   0.269  0.5989  1.3787  1.6794
 1481SOL    HW214358   2.790   3.971   0.293  0.3938  0.9286 -1.1459
 1482SOL     OW14359   1.591   3.981   1.492  0.1240 -0.1863 -0.1875
 1482SOL    HW114360   1.536   4.041   1.432 -2.5000 -1.5081  0.8322
 1482SOL    HW214361   1.553   3.889   1.491  0.9996 -0.6146  2.2794
 1483SOL     OW14362   0.210   4.752   1.936  0.3991  0.4700 -0.1981
 1483SOL    HW114363   0.140   4.730   2.004 -0.4841  0.3090 -1.1343
 1483SOL    HW214364   0.168   4.804   1.862  1.6151  1.7114 -0.0165
 1484SOL     OW14365   2.862   4.527   1.625 -0.3938 -0.3098  0.6480
 1484SOL    HW114366   2.767   4.544   1.601  0.6731  1.1807 -2.8028
 1484SOL    HW214367   2.906   4.612   1.654  0.5240 -0.4502 -0.2719
 1485SOL     OW14368   3.225   3.969   0.770  0.2019 -0.6066 -0.1344
 1485SOL    HW114369   3.189   4.033   0.701  1.9619  0.5867  0.0130
 1485SOL    HW214370   3.159   3.960   0.844  0.0069  1.2620 -0.0408
 1486SOL     OW14371   1.603   3.006   1.717 -0.2066 -0.0037 -0.0096
 1486SOL    HW114372   1.625   2.979   1.810 -0.9581  0.0741  0.1953
 1486SOL    HW214373   1.684   3.044   1.673  0.4558 -1.1112  0.2239
 1487SOL     OW14374   2.269   3.735   0.826 -0.0672  0.2885 -0.0140
 1487SOL    HW114375   2.277   3.826   0.866  1.5562  1.3328 -2.5675
 1487SOL    HW214376   2.176   3.721   0.792 -0.5489  0.6420  1.1427
 1488SOL     OW14377   1.257   3.885   0.288  0.0254 -0.0068 -0.8814
 1488SOL    HW114378   1.201   3.857   0.210 -2.2161  0.3876  0.5437
 1488SOL    HW214379   1.277   3.806   0.345  2.4664 -0.4698 -2.2995
 1489SOL     OW14380   3.022   4.898   1.002  0.1741 -0.2836 -0.1886
 1489SOL    HW114381   3.042   4.897   0.904  1.6839  1.2328  0.0769
 1489SOL    HW214382   3.012   4.804   1.035  1.6171 -0.8848 -1.4141
 1490SOL     OW14383   4.168   3.482   1.695  0.6764 -0.3097 -0.5467
 1490SOL    HW114384   4.217   3.447   1.774  1.7565  0.3323 -0.9276
 1490SOL    HW214385   4.165   3.582   1.698 -3.7928 -0.3713  1.3774
 1491SOL     OW14386   3.382   5.497   2.132 -0.1386 -0.3684  0.0882
 1491SOL    HW114387   3.286   5.515   2.152  0.4048  0.9786  1.6376
 1491SOL    HW214388   3.409   5.548   2.051 -0.7403 -0.7615 -0.3614
 1492SOL     OW14389   3.372   4.405   1.119  0.3513 -0.0869 -0.0106
 1492SOL    HW114390   3.335   4.468   1.187  0.3281  0.2706 -0.3516
 1492SOL    HW214391   3.447   4.353   1.159 -0.9109 -1.2603  0.8859
 1493SOL     OW14392   2.110   6.055   0.350 -0.0915 -0.0444  0.2712
 1493SOL    HW114393   2.207   6.050   0.327  0.1932 -1.9280  1.7698
 1493SOL    HW214394   2.065   5.969   0.326 -0.9000 -0.0281  1.6746
 1494SOL     OW14395   3.646   2.219   0.093 -0.0009 -0.2516  0.2005
 1494SOL    HW114396   3.633   2.249   0.188 -0.5910  0.9206 -0.2448
 1494SOL    HW214397   3.558   2.212   0.048  0.3395  0.0658 -0.5245
 1495SOL     OW14398   2.528   6.799   2.484 -0.1776  0.0627 -0.1443
 1495SOL    HW114399   2.530   6.792   2.583  0.4552  1.0608 -0.0833
 1495SOL    HW214400   2.483   6.885   2.457 -0.0840 -0.0612 -0.7130
 1496SOL     OW14401   2.261   5.868   2.578  0.1311  0.5696 -0.3772
 1496SOL    HW114402   2.169   5.839   2.602 -0.5052  1.4633 -1.6672
 1496SOL    HW214403   2.295   5.932   2.647  0.3538 -0.8354  0.8421
 1497SOL     OW14404   2.645   2.211   0.718  0.4969  0.4193 -0.2889
 1497SOL    HW114405   2.699   2.148   0.662  1.2027  0.4400  0.3665
 1497SOL    HW214406   2.690   2.225   0.806 -0.6090  0.4016  0.2834
 1498SOL     OW14407   2.576   7.385   1.215 -0.1362  0.3875  0.7960
 1498SOL    HW114408   2.665   7.345   1.236  0.1412  1.0440  0.8746
 1498SOL    HW214409   2.506   7.314   1.217  0.4089 -0.1552  0.5999
 1499SOL     OW14410   2.080   4.992   2.516 -0.4911 -0.0112  0.2420
 1499SOL    HW114411   1.989   5.030   2.535  0.1303  0.1843  3.0821
 1499SOL    HW214412   2.143   5.066   2.495 -0.7502 -0.0552 -0.6972
 1500SOL     OW14413   3.722   8.043   0.210 -0.4668  0.0990  0.2442
 1500SOL    HW114414   3.657   8.091   0.152  2.8141  1.1393 -2.7322
 1500SOL    HW214415   3.776   8.109   0.262 -0.1696 -0.6382  0.8918
 1501SOL     OW14416   4.195   2.735   2.549 -0.5213  0.0450  0.6023
 1501SOL    HW114417   4.120   2.794   2.518 -0.2414  0.1593  0.1422
 1501SOL    HW214418   4.176   2.704   2.642 -1.2218 -0.0629  0.4271
 1502SOL     OW14419   4.079   1.739   1.689  0.0024 -0.5622 -0.5521
 1502SOL    HW114420   4.045   1.833   1.681 -1.8208 -1.1494 -0.1194
 1502SOL    HW214421   4.088   1.699   1.598  1.2786  0.1990 -0.7622
 1503SOL     OW14422   2.228   5.075   0.501 -0.5451 -0.6752  0.4216
 1503SOL    HW114423   2.214   4.981   0.472  0.5589 -1.1018  1.2441
 1503SOL    HW214424   2.263   5.076   0.595 -1.6687  0.5913  0.8466
 1504SOL     OW14425   4.665   0.786   1.076 -0.5053  0.2653  0.1622
 1504SOL    HW114426   4.697   0.691   1.080  0.2430  0.5588  1.3658
 1504SOL    HW214427   4.568   0.789   1.098 -0.6978 -0.3097 -0.6045
 1505SOL     OW14428   2.431   5.816   0.192 -0.0751 -0.3942  0.6171
 1505SOL    HW114429   2.414   5.819   0.290  0.3619 -4.1757  0.8578
 1505SOL    HW214430   2.525   5.787   0.175  0.3228  1.6691 -0.9470
 1506SOL     OW14431   2.142   6.108   2.042 -0.3153 -0.7192  0.2530
 1506SOL    HW114432   2.181   6.198   2.063  0.5062 -0.9272 -0.3247
 1506SOL    HW214433   2.043   6.113   2.042 -0.2758  0.0821  0.6858
 1507SOL     OW14434   3.967   3.349   2.085  0.1114 -0.0835  0.1502
 1507SOL    HW114435   3.905   3.378   2.158 -1.0248 -0.9624 -0.4536
 1507SOL    HW214436   4.019   3.269   2.115  0.6727  0.4198  0.5165
 1508SOL     OW14437   2.127   5.332   2.028 -0.4034 -0.0159 -0.2735
 1508SOL    HW114438   2.086   5.312   1.939 -1.2637  0.8004 -0.0643
 1508SOL    HW214439   2.116   5.253   2.089 -1.9520  0.3202 -0.1094
 1509SOL     OW14440   2.979   5.264   1.357  0.5187  0.5288 -0.3318
 1509SOL    HW114441   3.045   5.189   1.354  0.2301  0.2784 -0.4567
 1509SOL    HW214442   3.020   5.347   1.318  1.1318  0.6636  0.5764
 1510SOL     OW14443   4.498   3.006   1.318  0.7259  0.2663 -0.4530
 1510SOL    HW114444   4.483   2.964   1.229 -1.2133 -0.6446  0.2867
 1510SOL    HW214445   4.503   3.106   1.307  0.8796  0.1381 -1.6146
 1511SOL     OW14446   0.025   4.535   2.499  0.2124  0.2250 -1.0448
 1511SOL    HW114447  -0.047   4.598   2.530  1.4182  0.7197  0.8446
 1511SOL    HW214448   0.079   4.579   2.427 -0.3068  0.5116 -1.2599
 1512SOL     OW14449   2.068   4.643   0.658 -0.6541 -0.0648 -0.2664
 1512SOL    HW114450   2.001   4.707   0.619 -0.7010 -0.1477 -0.3209
 1512SOL    HW214451   2.022   4.581   0.722 -0.7246 -0.4573 -0.6955
 1513SOL     OW14452   0.000   5.195   2.800  0.1272  0.1109 -0.6401
 1513SOL    HW114453   0.040   5.254   2.870  0.5159  0.7196 -1.3771
 1513SOL    HW214454  -0.079   5.147   2.838  1.3479 -0.8545  0.7400
 1514SOL     OW14455   2.327   2.572   1.284  0.5623 -0.1336  0.2381
 1514SOL    HW114456   2.296   2.562   1.189 -0.3597  0.7275  0.4424
 1514SOL    HW214457   2.419   2.534   1.293 -0.0961 -1.9442 -0.5594
 1515SOL     OW14458   4.004   0.896   2.453 -0.0915  0.0776  0.6383
 1515SOL    HW114459   3.955   0.841   2.520  0.4975  2.6070  3.2298
 1515SOL    HW214460   3.950   0.976   2.427  0.1631 -0.2690 -1.0874
 1516SOL     OW14461   3.162   2.410   0.649 -0.1969  0.6803 -0.4665
 1516SOL    HW114462   3.106   2.477   0.698 -0.4227  0.5560 -0.5499
 1516SOL    HW214463   3.189   2.447   0.560 -1.3077  0.2139 -1.0068
 1517SOL     OW14464   2.034   5.872   0.021 -0.0440 -0.4377 -0.0494
 1517SOL    HW114465   1.945   5.863   0.065 -0.1735 -0.7529 -0.3797
 1517SOL    HW214466   2.026   5.929  -0.060  0.7150  2.4656  1.8509
 1518SOL     OW14467   4.009   3.158   2.404 -0.5785  0.1365 -0.3553
 1518SOL    HW114468   4.013   3.062   2.430 -1.2484  0.1972 -0.0274
 1518SOL    HW214469   4.017   3.215   2.486  0.8119  0.3740 -0.6515
 1519SOL     OW14470   3.243   4.976   2.570  0.3005 -0.3201  0.3529
 1519SOL    HW114471   3.149   4.960   2.603  0.7390  0.3672  1.9953
 1519SOL    HW214472   3.307   4.962   2.646  1.2551  2.4528  0.0857
 1520SOL     OW14473   4.052   8.062   1.185  0.2911 -0.4886  0.2536
 1520SOL    HW114474   3.977   8.053   1.250  0.5583  1.7420  0.8976
 1520SOL    HW214475   4.137   8.077   1.235  0.5337  1.0158 -0.6018
 1521SOL     OW14476   1.225   3.936   1.780 -0.1194  0.1089 -0.4153
 1521SOL    HW114477   1.224   4.020   1.835  0.3322 -0.5607  0.6419
 1521SOL    HW214478   1.157   3.872   1.815 -0.9681  0.3119 -1.6779
 1522SOL     OW14479   2.366   5.106   2.402 -0.1029 -0.0332 -0.1274
 1522SOL    HW114480   2.448   5.051   2.389  0.2030  0.2368  0.6316
 1522SOL    HW214481   2.323   5.125   2.313  0.8296  0.0984 -0.5527
 1523SOL     OW14482   4.502   0.141   2.460  0.3023 -0.2047 -0.0483
 1523SOL    HW114483   4.445   0.087   2.522  1.7148 -0.1436  1.3299
 1523SOL    HW214484   4.512   0.234   2.496 -0.8716  0.5633 -1.6388
 1524SOL     OW14485   3.345   9.731   0.573 -0.4096 -0.1695 -0.0037
 1524SOL    HW114486   3.429   9.695   0.615  0.0708  0.9118 -0.0359
 1524SOL    HW214487   3.314   9.668   0.502  0.8946 -0.1159 -0.6372
 1525SOL     OW14488   4.530   1.086   1.317 -0.3547 -0.0435  0.0615
 1525SOL    HW114489   4.571   1.166   1.361 -0.9625  1.6173 -2.3145
 1525SOL    HW214490   4.433   1.105   1.298 -1.0590 -2.1595  1.3467
 1526SOL     OW14491   2.965   9.824   2.811  0.0649 -0.7139 -0.3334
 1526SOL    HW114492   2.996   9.771   2.732  1.0722 -1.1583  0.3486
 1526SOL    HW214493   2.962   9.765   2.891 -3.4972 -0.9165 -0.5657
 1527SOL     OW14494   1.352   5.923   0.106 -0.4724  0.3403 -0.2558
 1527SOL    HW114495   1.372   5.840   0.055 -0.7099 -0.4762  0.9657
 1527SOL    HW214496   1.433   5.982   0.108 -0.2625  0.0746 -0.9954
 1528SOL     OW14497   0.824   3.966   2.461  0.0313 -0.1017  0.1400
 1528SOL    HW114498   0.848   3.881   2.506 -0.3208 -0.1693  0.2002
 1528SOL    HW214499   0.771   3.947   2.378 -1.5145  0.1138  1.0506
 1529SOL     OW14500   3.974   1.854   0.062 -0.1449  0.5869  0.5865
 1529SOL    HW114501   4.022   1.767   0.060 -0.3254  0.5028 -0.4404
 1529SOL    HW214502   4.033   1.926   0.025 -0.2969  0.7495  0.6550
 1530SOL     OW14503   4.552   3.411   0.974 -0.0468  0.3916 -0.0512
 1530SOL    HW114504   4.629   3.361   1.015 -0.2388  1.3460  1.5371
 1530SOL    HW214505   4.587   3.483   0.915  0.2718  0.2965  0.0202
 1531SOL     OW14506   3.059   7.170   1.434 -0.5996  0.4917  0.1581
 1531SOL    HW114507   3.047   7.200   1.340 -0.9413  1.1668  0.4103
 1531SOL    HW214508   3.044   7.071   1.441  3.0377 -0.2308 -1.1506
 1532SOL     OW14509   1.280   6.028   1.152 -0.2273  0.1901  0.0647
 1532SOL    HW114510   1.348   6.085   1.197  0.6380  0.1912 -1.1953
 1532SOL    HW214511   1.306   6.015   1.056 -0.1358 -2.6999  0.4383
 1533SOL     OW14512   4.362   4.690   1.697  0.6281  0.8852  0.0318
 1533SOL    HW114513   4.353   4.762   1.766 -1.2683  1.4082 -0.7275
 1533SOL    HW214514   4.305   4.612   1.722 -0.6666  1.3835 -1.3273
 1534SOL     OW14515   0.732   5.368   2.269 -0.7624 -0.1035  0.0498
 1534SOL    HW114516   0.824   5.332   2.287 -0.0843  1.5762  0.0391
 1534SOL    HW214517   0.687   5.389   2.356 -0.4968  0.6355  0.0095
 1535SOL     OW14518   2.217   2.988   2.532  0.2005 -0.3528  0.0217
 1535SOL    HW114519   2.295   3.036   2.491 -0.3536 -0.0378 -0.6755
 1535SOL    HW214520   2.247   2.939   2.614  1.4289 -1.3190 -0.9783
 1536SOL     OW14521   3.810   8.389   0.987 -0.0813  0.2369  0.5731
 1536SOL    HW114522   3.854   8.455   1.048  0.7256 -0.5112  0.7987
 1536SOL    HW214523   3.877   8.354   0.922 -0.7997  0.5744 -0.3583
 1537SOL     OW14524   4.642   4.423   0.101 -0.4187  0.1757 -0.6036
 1537SOL    HW114525   4.587   4.473   0.167  0.9998  0.6124  0.2821
 1537SOL    HW214526   4.621   4.455   0.009 -0.9120  1.0331 -0.1960
 1538SOL     OW14527   2.806   5.469   2.299  0.1135 -0.0019  0.1655
 1538SOL    HW114528   2.875   5.444   2.367 -0.7293  0.8199  1.3536
 1538SOL    HW214529   2.808   5.568   2.285 -1.2787  0.1221  0.7376
 1539SOL     OW14530   2.840   4.408   1.854 -0.3420  0.0923  1.0862
 1539SOL    HW114531   2.832   4.450   1.764  1.2147 -1.8651 -0.0000
 1539SOL    HW214532   2.807   4.472   1.923  1.2171  2.7909 -0.5644
 1540SOL     OW14533   4.828   4.774   0.401  0.8400 -0.4122 -0.4803
 1540SOL    HW114534   4.885   4.698   0.369  0.4597 -1.3301  0.9685
 1540SOL    HW214535   4.810   4.763   0.499  0.0207  1.0675 -0.4516
 1541SOL     OW14536   3.967   3.966   0.339 -0.0393  0.3740  0.2347
 1541SOL    HW114537   4.050   3.910   0.334 -1.0934 -1.1866  0.0764
 1541SOL    HW214538   3.990   4.061   0.318  1.3216 -0.4234 -2.0297
 1542SOL     OW14539   2.897   4.427   1.004 -0.2650 -0.5803  0.2417
 1542SOL    HW114540   2.841   4.408   1.085 -0.7501 -1.9922 -0.4180
 1542SOL    HW214541   2.877   4.360   0.933 -0.9777  1.5513 -1.6380
 1543SOL     OW14542   0.640   5.452   0.702 -0.4437 -0.3869  0.3211
 1543SOL    HW114543   0.614   5.389   0.776  1.4518 -0.1663  1.1995
 1543SOL    HW214544   0.677   5.399   0.625  0.0083 -0.4398  0.5728
 1544SOL     OW14545   2.816   1.999   1.033 -0.1145  0.3038  0.1679
 1544SOL    HW114546   2.904   2.018   0.991 -1.1829 -0.4140 -2.4901
 1544SOL    HW214547   2.829   1.935   1.109  1.9717  2.4358  1.6775
 1545SOL     OW14548   1.754   6.098   1.131 -0.2556  0.3933  0.2976
 1545SOL    HW114549   1.844   6.142   1.130  0.1001 -0.2525  1.9706
 1545SOL    HW214550   1.764   6.000   1.112 -0.7935  0.6132 -1.1522
 1546SOL     OW14551   2.799   7.244   1.218  0.1322 -0.1714 -0.3329
 1546SOL    HW114552   2.805   7.189   1.301  1.7512 -1.9805 -1.6030
 1546SOL    HW214553   2.882   7.299   1.209 -0.1157  0.1474 -0.6559
 1547SOL     OW14554   1.137   5.866   1.678  0.4675 -0.0280  0.2938
 1547SOL    HW114555   1.083   5.920   1.744 -0.6685  0.0823 -0.7078
 1547SOL    HW214556   1.116   5.897   1.585 -0.3052 -2.2903 -0.3025
 1548SOL     OW14557   4.420   3.240   0.447 -0.1581 -0.0139  0.0115
 1548SOL    HW114558   4.372   3.228   0.360  0.5661  0.1788 -0.4241
 1548SOL    HW214559   4.514   3.207   0.437 -0.9265 -2.8691  1.6072
 1549SOL     OW14560   2.906   9.886   2.355 -0.2720 -0.2809 -0.1125
 1549SOL    HW114561   2.929   9.827   2.278 -0.7050  1.0198 -1.2666
 1549SOL    HW214562   2.926   9.981   2.331  1.0194 -0.0090  1.9459
 1550SOL     OW14563   1.785   6.289   0.102  0.3960  0.1339 -0.3438
 1550SOL    HW114564   1.844   6.250   0.031 -1.8108  0.3761 -2.3969
 1550SOL    HW214565   1.803   6.387   0.111  1.1747 -0.0367 -0.0772
 1551SOL     OW14566   1.902   5.841   2.088 -0.1639 -0.2323 -0.3039
 1551SOL    HW114567   1.997   5.823   2.115 -0.3336 -1.0766 -0.2659
 1551SOL    HW214568   1.862   5.758   2.050 -0.8831  0.1359 -0.3510
 1552SOL     OW14569   1.813   6.406   0.353  0.0072 -0.2183  0.1675
 1552SOL    HW114570   1.855   6.483   0.306  0.7373 -0.4299  0.4614
 1552SOL    HW214571   1.750   6.359   0.291  1.0490 -0.5702 -0.6396
 1553SOL     OW14572   2.707   4.689   2.438  0.3994  0.3121 -0.5040
 1553SOL    HW114573   2.803   4.697   2.410  0.0569  1.0562 -1.4947
 1553SOL    HW214574   2.691   4.746   2.518  1.2288 -1.3059  0.8558
 1554SOL     OW14575   4.509   4.407   1.419 -0.5670 -0.0456  0.3076
 1554SOL    HW114576   4.436   4.379   1.357 -0.9299  1.7632 -0.1170
 1554SOL    HW214577   4.539   4.500   1.396  2.0173 -0.8154  0.3324
 1555SOL     OW14578   0.786   3.664   2.052  0.3177  0.1119  0.1677
 1555SOL    HW114579   0.860   3.596   2.052  0.2010 -0.0175 -1.1900
 1555SOL    HW214580   0.738   3.660   2.140  1.1449 -0.6421  0.6010
 1556SOL     OW14581   3.109   6.876   0.380  0.4202  0.0717 -0.2210
 1556SOL    HW114582   3.174   6.808   0.413  0.8054  0.3622 -0.3767
 1556SOL    HW214583   3.020   6.861   0.423  0.1860 -1.2672 -1.1546
 1557SOL     OW14584   2.764   9.131   1.686  0.3329 -0.0993  0.7299
 1557SOL    HW114585   2.779   9.051   1.743  1.3678 -0.1903  0.3421
 1557SOL    HW214586   2.696   9.191   1.729  0.4309 -0.6091  1.5938
 1558SOL     OW14587   3.996   2.194   1.450 -0.6696  0.0569  0.0836
 1558SOL    HW114588   4.038   2.143   1.375 -0.4957 -0.4001  0.4963
 1558SOL    HW214589   4.044   2.281   1.462  0.6504 -0.7952  1.0659
 1559SOL     OW14590   4.535   0.800   0.713 -0.1980  0.8024 -0.5069
 1559SOL    HW114591   4.626   0.801   0.754 -0.1145  0.9093 -0.6907
 1559SOL    HW214592   4.526   0.721   0.652 -1.5784 -1.4284  2.4802
 1560SOL     OW14593   1.696   6.355   2.597 -0.4894 -0.2723  0.2046
 1560SOL    HW114594   1.654   6.326   2.511  0.4893  1.4467 -0.8671
 1560SOL    HW214595   1.627   6.399   2.655 -0.6818  0.4947 -0.6017
 1561SOL     OW14596   4.721   3.183   2.559 -0.1988  0.0005 -0.4920
 1561SOL    HW114597   4.700   3.266   2.507 -0.8704 -0.4235 -0.9033
 1561SOL    HW214598   4.786   3.205   2.632 -1.1746  1.1141  0.0652
 1562SOL     OW14599   2.257   4.847   0.375  0.0160  0.1818 -0.0539
 1562SOL    HW114600   2.315   4.768   0.356  0.9558  1.2010 -1.4768
 1562SOL    HW214601   2.162   4.823   0.356  0.2376 -0.7469 -0.0292
 1563SOL     OW14602   4.099   4.832   2.573  0.1647 -0.4123 -0.3946
 1563SOL    HW114603   4.172   4.797   2.514  0.5698  1.2062 -0.8858
 1563SOL    HW214604   4.089   4.931   2.558  0.7514  0.1683  2.7281
 1564SOL     OW14605   3.634   5.200   0.719 -0.2138  0.4460 -0.0304
 1564SOL    HW114606   3.639   5.100   0.713  0.0433  0.3459  1.5011
 1564SOL    HW214607   3.660   5.228   0.811  0.2022  1.9695 -0.6071
 1565SOL     OW14608   1.400   5.175   2.545  0.3929  0.3073  0.3741
 1565SOL    HW114609   1.485   5.225   2.562 -0.2094  1.1018  1.1118
 1565SOL    HW214610   1.414   5.109   2.472  2.2368 -1.0124  1.8552
 1566SOL     OW14611   1.299   5.926   2.540 -0.5625 -0.1960 -0.5157
 1566SOL    HW114612   1.204   5.894   2.538 -0.0393 -1.7778 -1.2420
 1566SOL    HW214613   1.327   5.952   2.448 -0.5409  1.0858 -0.1582
 1567SOL     OW14614   3.876   1.272   1.900  0.3515  0.5265  0.4570
 1567SOL    HW114615   3.868   1.333   1.821  0.2224 -0.0564  0.0204
 1567SOL    HW214616   3.857   1.178   1.872  0.7155  0.2594  1.0955
 1568SOL     OW14617   1.201   4.179   0.280 -0.1796 -0.0553 -0.2014
 1568SOL    HW114618   1.179   4.082   0.290  0.9461 -0.1834  1.0301
 1568SOL    HW214619   1.168   4.211   0.191 -0.4501 -1.5872 -0.6637
 1569SOL     OW14620   1.119   6.280   0.403 -0.1795  0.5724 -0.4910
 1569SOL    HW114621   1.144   6.308   0.311  0.5752  1.9321  0.1118
 1569SOL    HW214622   1.187   6.315   0.468  0.3486 -1.9840  0.3794
 1570SOL     OW14623   1.509   5.821   2.694  0.2603  0.6042  0.2432
 1570SOL    HW114624   1.428   5.863   2.655  0.2387  0.9147  0.6173
 1570SOL    HW214625   1.590   5.874   2.668  0.2731  0.6635  0.4026
 1571SOL     OW14626   9.609   5.425   0.120 -0.0639  0.1966  0.5389
 1571SOL    HW114627   9.708   5.439   0.130 -0.2447  1.7479  0.2592
 1571SOL    HW214628   9.585   5.334   0.155  1.4860 -0.2840  0.4233
 1572SOL     OW14629   3.292   1.485   1.706  0.8889  0.5738 -0.0101
 1572SOL    HW114630   3.219   1.424   1.735 -0.1532  1.7436 -0.1425
 1572SOL    HW214631   3.380   1.448   1.736  0.1054  0.1073  1.8119
 1573SOL     OW14632   4.340   8.331   0.974  0.6948 -0.2914 -0.4512
 1573SOL    HW114633   4.388   8.319   0.887 -0.5320 -0.2840 -1.1310
 1573SOL    HW214634   4.263   8.267   0.978  1.5341 -1.2309  1.1960
 1574SOL     OW14635   3.976   4.613   0.380 -0.0561  0.0047 -0.0034
 1574SOL    HW114636   3.986   4.550   0.457 -0.9321  0.7778  0.7715
 1574SOL    HW214637   3.880   4.615   0.351  0.3381 -0.5517 -1.3563
 1575SOL     OW14638   3.922   3.422   2.348 -1.4542 -0.0825 -0.1964
 1575SOL    HW114639   3.870   3.430   2.432  0.3184 -1.3961  1.0710
 1575SOL    HW214640   3.949   3.326   2.334  0.3737  0.5172 -0.9413
 1576SOL     OW14641   2.270   5.535   2.633  0.5641  0.1215  0.7667
 1576SOL    HW114642   2.188   5.565   2.683 -0.4817 -0.5237 -0.5388
 1576SOL    HW214643   2.349   5.589   2.663 -0.9325  2.9854 -0.2581
 1577SOL     OW14644   4.279   3.434   0.584  0.2842 -0.3466 -0.5333
 1577SOL    HW114645   4.282   3.405   0.679 -0.8542 -0.7635 -0.6241
 1577SOL    HW214646   4.353   3.389   0.533 -0.1640 -1.4565 -0.2138
 1578SOL     OW14647   3.597   2.241   2.121  0.2233 -0.0486  0.2509
 1578SOL    HW114648   3.592   2.317   2.186 -0.3376  0.0452  0.0962
 1578SOL    HW214649   3.605   2.155   2.171  1.6343  0.1650  0.4210
 1579SOL     OW14650   3.252   7.980   1.656  0.0802  0.4849 -0.1084
 1579SOL    HW114651   3.224   7.990   1.751  1.9482 -1.9026  0.7292
 1579SOL    HW214652   3.198   7.908   1.612 -0.8493  1.6480 -0.9138
 1580SOL     OW14653   5.320   3.972   0.675 -0.5032  0.0271  0.2753
 1580SOL    HW114654   5.226   3.993   0.647 -0.5212 -2.2937 -1.5544
 1580SOL    HW214655   5.320   3.894   0.737  0.2203 -0.0003  0.2441
 1581SOL     OW14656   3.984   9.770   2.109  0.8714 -0.6522 -0.9166
 1581SOL    HW114657   3.902   9.817   2.075  0.0040 -0.4701  1.3559
 1581SOL    HW214658   4.065   9.812   2.070 -0.0066  0.9756 -1.0064
 1582SOL     OW14659   2.004   5.632   2.528 -0.1704  0.5386  0.0205
 1582SOL    HW114660   2.082   5.578   2.499 -1.1490  0.9947 -3.7218
 1582SOL    HW214661   1.967   5.682   2.450 -4.7568 -0.3521  1.4620
 1583SOL     OW14662   3.331   0.175   2.380  0.4417  0.1817  0.1131
 1583SOL    HW114663   3.374   0.184   2.470 -2.3210  0.2065  1.4638
 1583SOL    HW214664   3.273   0.254   2.362 -1.7519 -1.4463 -0.1575
 1584SOL     OW14665   3.315   5.461   1.770  0.0088 -0.1797  0.1251
 1584SOL    HW114666   3.223   5.438   1.800  0.0253 -0.8802 -0.3515
 1584SOL    HW214667   3.353   5.386   1.716  0.1254  0.9010 -1.3323
 1585SOL     OW14668   2.918   1.264   1.583  0.5499 -0.2907  0.1890
 1585SOL    HW114669   2.950   1.340   1.527  1.4175 -0.6114  0.2448
 1585SOL    HW214670   2.969   1.262   1.669 -0.3177 -0.1986  0.7188
 1586SOL     OW14671   1.862   3.943   1.347  0.8418  0.1229 -0.6059
 1586SOL    HW114672   1.918   3.873   1.391  1.6351  0.1984 -1.4948
 1586SOL    HW214673   1.791   3.973   1.411  0.6269 -1.3298 -0.1460
 1587SOL     OW14674   3.381   9.034   2.529 -0.4505 -0.3714  0.0180
 1587SOL    HW114675   3.469   9.007   2.570  0.3549 -1.1971 -2.1986
 1587SOL    HW214676   3.322   8.954   2.522 -0.8152 -0.1108  0.0701
 1588SOL     OW14677   2.422   6.770   1.784  0.1481  0.5276  0.2930
 1588SOL    HW114678   2.326   6.799   1.786  0.6566  2.1540  1.1866
 1588SOL    HW214679   2.435   6.695   1.849 -0.8196 -0.7131 -0.8984
 1589SOL     OW14680   2.039   2.064   0.455 -0.5929 -0.1538 -0.2695
 1589SOL    HW114681   2.102   1.993   0.484  1.4067  0.8166 -2.0752
 1589SOL    HW214682   2.048   2.078   0.356 -0.9356  2.6030  0.0483
 1590SOL     OW14683   1.444   6.266   0.459 -0.5653  0.9166 -0.0774
 1590SOL    HW114684   1.387   6.239   0.536 -0.8818 -2.2794 -1.3362
 1590SOL    HW214685   1.399   6.337   0.406 -2.1161  0.4004  0.5362
 1591SOL     OW14686   1.545   1.444   0.681 -0.4137 -0.9102  0.6716
 1591SOL    HW114687   1.598   1.441   0.596 -0.9798 -0.2477  0.2945
 1591SOL    HW214688   1.606   1.463   0.758 -0.0540 -0.5036  0.2864
 1592SOL     OW14689   3.936   2.867   2.491 -0.2041  0.1320 -0.4000
 1592SOL    HW114690   3.873   2.922   2.546 -0.2601 -0.4726  0.1428
 1592SOL    HW214691   3.887   2.789   2.451  0.7417 -1.8656  2.2037
 1593SOL     OW14692   3.987   3.975   2.363 -0.4683  0.5344  0.9525
 1593SOL    HW114693   3.956   4.015   2.276 -0.1035 -0.5411  0.3273
 1593SOL    HW214694   3.925   3.901   2.390  2.6507 -3.1120 -1.4157
 1594SOL     OW14695   2.527   5.246   2.786 -0.1473  0.2137  0.6948
 1594SOL    HW114696   2.434   5.217   2.764 -0.4942  0.0967  2.2113
 1594SOL    HW214697   2.524   5.304   2.868  1.1951 -0.4736  1.2392
 1595SOL     OW14698   4.484   9.144   0.696  0.3004  0.4727  0.2222
 1595SOL    HW114699   4.572   9.108   0.728  0.7355  0.7391 -0.6453
 1595SOL    HW214700   4.460   9.100   0.609  0.1906  1.3033 -0.1734
 1596SOL     OW14701   3.248   1.032   1.753  0.0404 -0.0748 -0.3777
 1596SOL    HW114702   3.232   0.987   1.841  2.2464  0.8510  0.5319
 1596SOL    HW214703   3.218   0.973   1.679 -0.0406 -1.6856  0.9184
 1597SOL     OW14704   3.930   4.750   1.033  0.4456  0.1497  0.1125
 1597SOL    HW114705   3.949   4.756   1.131 -1.0044  0.5254  0.3786
 1597SOL    HW214706   4.011   4.780   0.982  1.1475  0.1244  1.1892
 1598SOL     OW14707   4.345   3.367   2.624  0.0790 -0.2755  0.6803
 1598SOL    HW114708   4.436   3.345   2.659  0.6021  0.2243 -0.3254
 1598SOL    HW214709   4.301   3.433   2.685  1.3162  1.2397 -0.0114
 1599SOL     OW14710   4.960   3.079   2.124  0.1013 -0.0527  0.3605
 1599SOL    HW114711   4.932   3.155   2.064 -1.0296  0.3079  1.3285
 1599SOL    HW214712   4.890   3.064   2.193  1.4701 -0.3570  1.7063
 1600SOL     OW14713   3.454   8.626   0.419 -0.5891 -0.0953 -0.3734
 1600SOL    HW114714   3.474   8.536   0.379  1.1797  0.3216 -0.4480
 1600SOL    HW214715   3.405   8.681   0.352  0.8510 -0.0113 -1.3836
 1601SOL     OW14716   3.355   8.107   2.345  0.4070  0.1608 -0.5405
 1601SOL    HW114717   3.412   8.033   2.381 -0.8841 -0.8190 -0.4639
 1601SOL    HW214718   3.343   8.094   2.246  1.3919  1.0982 -0.7854
 1602SOL     OW14719   1.714   4.347   1.541 -0.4261 -0.0776  0.2186
 1602SOL    HW114720   1.711   4.314   1.635  0.3786 -0.3341  0.1539
 1602SOL    HW214721   1.809   4.354   1.510 -0.7073 -0.9827 -0.9162
 1603SOL     OW14722   2.312   5.184   1.112  0.5900  0.3291  0.0756
 1603SOL    HW114723   2.407   5.180   1.143  0.4872  1.1875  0.5176
 1603SOL    HW214724   2.306   5.147   1.020  1.5414  1.2296 -0.3732
 1604SOL     OW14725   2.088   5.548   0.625 -0.1751 -0.2898  0.6954
 1604SOL    HW114726   2.014   5.612   0.646 -1.4410 -1.7800  0.9124
 1604SOL    HW214727   2.082   5.520   0.529  0.0446 -0.4787  0.7369
 1605SOL     OW14728   1.100   5.442   1.976  0.2363 -0.4278 -0.4475
 1605SOL    HW114729   1.005   5.426   2.003  0.0124 -0.0349 -0.9802
 1605SOL    HW214730   1.145   5.499   2.045 -0.0981 -0.1053 -0.4908
 1606SOL     OW14731   0.841   5.678   0.645 -0.1599  0.0272 -0.1954
 1606SOL    HW114732   0.929   5.717   0.671 -0.1535  0.2824 -0.5950
 1606SOL    HW214733   0.853   5.580   0.626 -0.0691 -0.0520  0.2744
 1607SOL     OW14734   3.063   9.924   1.495 -0.0674 -0.6755 -0.3575
 1607SOL    HW114735   2.995   9.984   1.538  0.2128 -0.1134 -0.7063
 1607SOL    HW214736   3.085   9.958   1.404  0.8679 -0.7210 -0.1530
 1608SOL     OW14737   0.234   4.366   2.577  0.2183  0.2973  0.0641
 1608SOL    HW114738   0.161   4.427   2.545  0.8186  1.0989  0.1935
 1608SOL    HW214739   0.224   4.350   2.675 -0.8564 -1.0991 -0.2520
 1609SOL     OW14740   3.121   1.601   0.433  0.7481 -0.0971  0.3105
 1609SOL    HW114741   3.121   1.613   0.333 -0.5076  4.0544  0.7095
 1609SOL    HW214742   3.028   1.583   0.464  0.6867  1.3380  0.9780
 1610SOL     OW14743   3.431   3.354   0.326 -0.0548  0.1787  0.0545
 1610SOL    HW114744   3.368   3.276   0.315  0.1871  0.0861 -0.6905
 1610SOL    HW214745   3.481   3.369   0.241  2.0704 -0.7092  1.1101
 1611SOL     OW14746   2.582   0.280   0.423 -0.2257 -0.3654  0.1705
 1611SOL    HW114747   2.625   0.226   0.495  1.0534  0.6599  0.1794
 1611SOL    HW214748   2.485   0.254   0.416 -0.2863 -0.7124  2.0214
 1612SOL     OW14749   3.429   3.477   2.765 -0.4558 -0.1149  0.1724
 1612SOL    HW114750   3.474   3.425   2.838 -0.5591 -0.2309  0.1538
 1612SOL    HW214751   3.421   3.573   2.791 -0.5764 -0.1746  0.3522
 1613SOL     OW14752   1.762   3.270   0.828  0.2864 -0.1093 -0.0384
 1613SOL    HW114753   1.737   3.202   0.759  2.4661 -0.5855 -0.3795
 1613SOL    HW214754   1.720   3.245   0.915 -0.0935 -1.0982 -0.4897
 1614SOL     OW14755   3.035   2.088   0.303  0.0830 -0.0787  0.4715
 1614SOL    HW114756   2.944   2.106   0.339 -0.1118 -0.9657  0.4474
 1614SOL    HW214757   3.101   2.086   0.379  0.0646  0.4530  0.5007
 1615SOL     OW14758   0.851   6.138   2.781  0.2630  0.1013 -0.2904
 1615SOL    HW114759   0.755   6.167   2.787  1.2452  3.3540  0.8627
 1615SOL    HW214760   0.895   6.183   2.703  1.3810  0.2995  0.4432
 1616SOL     OW14761   2.904   7.972   1.386  0.0447  0.0727  0.3355
 1616SOL    HW114762   2.988   7.965   1.332 -0.4614 -1.3891 -0.2754
 1616SOL    HW214763   2.914   8.046   1.452  2.0984 -0.5503  0.7623
 1617SOL     OW14764   3.989   2.836   0.879  0.6498  0.8773 -0.2736
 1617SOL    HW114765   3.986   2.824   0.978 -2.0854  1.0565 -0.2812
 1617SOL    HW214766   4.012   2.931   0.858 -3.8852  2.2427  0.3752
 1618SOL     OW14767   4.322   9.062   2.683  0.0436  0.3414  0.3847
 1618SOL    HW114768   4.243   9.049   2.623 -0.7125 -0.4191  1.5280
 1618SOL    HW214769   4.321   8.993   2.756  2.7067 -0.7901 -0.5630
 1619SOL     OW14770   4.798   2.418   0.708 -0.2909 -0.7334  0.1049
 1619SOL    HW114771   4.776   2.473   0.789 -0.7320 -1.2535  0.3438
 1619SOL    HW214772   4.719   2.415   0.647  0.0768 -0.2593 -0.3932
 1620SOL     OW14773   4.690   1.815   2.675  0.1847  0.2335 -0.1731
 1620SOL    HW114774   4.610   1.769   2.713  1.3786 -1.5413  0.2669
 1620SOL    HW214775   4.773   1.768   2.705  1.2768  0.4018 -2.7746
 1621SOL     OW14776   4.796   0.543   0.729 -0.2872  0.5559  0.1118
 1621SOL    HW114777   4.736   0.509   0.801 -0.3478 -0.2942 -0.3376
 1621SOL    HW214778   4.778   0.493   0.644  2.2377 -0.8722  0.3922
 1622SOL     OW14779   2.946   1.527   2.267 -0.4456  0.3408 -0.6491
 1622SOL    HW114780   2.968   1.507   2.172  0.3580 -1.9600 -0.0155
 1622SOL    HW214781   2.861   1.480   2.292 -0.2606  0.3352 -0.0193
 1623SOL     OW14782   4.042   2.036   1.099 -0.3589 -0.6540 -0.3811
 1623SOL    HW114783   4.117   2.078   1.048 -0.7822  0.9078  0.2810
 1623SOL    HW214784   4.079   1.968   1.162  0.3103 -1.4115 -1.5639
 1624SOL     OW14785   3.833   1.894   2.339  0.1996 -0.3541  0.1404
 1624SOL    HW114786   3.763   1.940   2.392  0.9596  0.1308  0.7254
 1624SOL    HW214787   3.924   1.917   2.374  0.5772 -3.1176  1.1297
 1625SOL     OW14788   0.212   5.387   2.632  0.1701  0.4193 -0.5009
 1625SOL    HW114789   0.210   5.328   2.713 -0.0818  0.0852 -0.7497
 1625SOL    HW214790   0.274   5.463   2.648  0.4824  0.0989 -0.1636
 1626SOL     OW14791   3.001   8.507   2.330 -0.0611 -0.0781 -0.0641
 1626SOL    HW114792   2.982   8.573   2.257  0.1913  0.4882  0.3850
 1626SOL    HW214793   2.919   8.453   2.349 -0.0433 -0.4408 -0.9844
 1627SOL     OW14794   3.579   3.344   0.103 -0.1544  0.7672 -0.2034
 1627SOL    HW114795   3.598   3.267   0.041 -2.5643  1.5731 -2.0415
 1627SOL    HW214796   3.665   3.389   0.127  1.1261 -1.4230 -0.4807
 1628SOL     OW14797   4.279   9.381   1.619  0.3566  0.3053  0.2634
 1628SOL    HW114798   4.284   9.285   1.647 -0.1046 -0.0538 -0.8400
 1628SOL    HW214799   4.184   9.403   1.595  0.6437  0.7433 -0.4843
 1629SOL     OW14800   2.913   0.193   2.284  0.3800 -0.0600  0.0610
 1629SOL    HW114801   2.981   0.160   2.218  0.1026  0.2989 -0.4097
 1629SOL    HW214802   2.958   0.215   2.370  0.6661 -1.0422  0.1634
 1630SOL     OW14803   1.167   5.155   1.910  0.4762 -0.1927 -0.4763
 1630SOL    HW114804   1.250   5.120   1.866 -0.5435  0.2025 -2.7831
 1630SOL    HW214805   1.159   5.254   1.892 -0.6404 -0.2855 -0.5444
 1631SOL     OW14806   4.195   5.455   1.835 -0.6644  0.0475  0.2200
 1631SOL    HW114807   4.130   5.466   1.911  0.7859 -0.1541  1.5235
 1631SOL    HW214808   4.243   5.541   1.820 -0.5703 -0.0666 -0.1381
 1632SOL     OW14809   4.648   1.770   0.194  0.1633 -0.4516 -0.0817
 1632SOL    HW114810   4.598   1.694   0.152  0.0708  1.0464 -2.8287
 1632SOL    HW214811   4.598   1.803   0.273 -2.3376 -0.0948 -1.7545
 1633SOL     OW14812   2.932   7.202   2.744  0.2498  0.0349  0.2519
 1633SOL    HW114813   2.846   7.248   2.769 -0.0053  0.8348 -2.0499
 1633SOL    HW214814   2.913   7.129   2.679  1.3152  0.1055 -0.1427
 1634SOL     OW14815   2.515   3.607   1.665 -0.2995 -0.3101  0.4003
 1634SOL    HW114816   2.583   3.538   1.689 -1.2166 -0.7168  1.8229
 1634SOL    HW214817   2.424   3.575   1.687 -1.0800 -0.1392 -2.3885
 1635SOL     OW14818   3.280   5.270   2.559 -0.2697 -0.3423 -0.0550
 1635SOL    HW114819   3.238   5.181   2.571  1.1542 -0.9635  0.3739
 1635SOL    HW214820   3.331   5.295   2.642 -0.7544  0.9236 -0.1193
 1636SOL     OW14821   2.459   4.547   2.447 -0.0416  0.0868  0.1725
 1636SOL    HW114822   2.549   4.591   2.445  1.0471 -1.9969  0.6747
 1636SOL    HW214823   2.387   4.616   2.443  1.5817  1.7813 -0.5372
 1637SOL     OW14824   0.490   5.249   2.165  0.2685  0.0037  0.3432
 1637SOL    HW114825   0.581   5.257   2.205  0.6566 -1.5793 -0.1895
 1637SOL    HW214826   0.423   5.290   2.228  1.1049 -0.6104  1.6649
 1638SOL     OW14827   2.644   8.174   1.444  0.1722  0.0905 -0.3524
 1638SOL    HW114828   2.621   8.229   1.364  0.3697  0.2498 -0.3010
 1638SOL    HW214829   2.623   8.078   1.427  3.6439 -0.4408 -1.9471
 1639SOL     OW14830   4.220   3.772   1.607  0.3052 -0.5318  0.1390
 1639SOL    HW114831   4.212   3.812   1.516  0.6955 -0.6299  0.0581
 1639SOL    HW214832   4.194   3.840   1.675  1.7905  0.1599  0.0463
 1640SOL     OW14833   2.231   3.259   2.826  0.3483 -0.1484  0.1567
 1640SOL    HW114834   2.258   3.337   2.883 -2.3092 -0.3166  1.6822
 1640SOL    HW214835   2.282   3.178   2.855  0.3681  0.1787  1.0415
 1641SOL     OW14836   2.625   3.798   1.192 -0.4298  0.2032 -0.2911
 1641SOL    HW114837   2.714   3.822   1.232 -0.2506 -0.6189 -0.1967
 1641SOL    HW214838   2.556   3.792   1.264 -0.8977  2.3270 -0.5316
 1642SOL     OW14839   4.469   2.553   0.028  0.9489 -0.9611 -0.2798
 1642SOL    HW114840   4.371   2.575   0.028  1.1799  0.1363 -0.1188
 1642SOL    HW214841   4.482   2.454   0.033 -0.1554 -1.1034 -0.2120
 1643SOL     OW14842   1.137   4.097   1.242  0.2725  0.3187  0.1346
 1643SOL    HW114843   1.106   4.070   1.333 -0.1600  1.2480  0.2631
 1643SOL    HW214844   1.074   4.059   1.174  1.0004 -0.9889  0.1645
 1644SOL     OW14845   2.925   7.756   2.206 -0.2447 -0.8462  0.2205
 1644SOL    HW114846   3.022   7.777   2.213 -0.4827  0.6481 -0.8401
 1644SOL    HW214847   2.913   7.661   2.178  0.9224 -0.6594 -0.9120
 1645SOL     OW14848   3.231   6.636   1.966 -0.1924 -0.0123 -0.4360
 1645SOL    HW114849   3.170   6.557   1.968 -1.5081  1.0002  0.0482
 1645SOL    HW214850   3.279   6.644   2.054  2.4495 -2.1682 -1.6102
 1646SOL     OW14851   0.882   4.905   0.696 -0.7278  0.4587  0.4327
 1646SOL    HW114852   0.980   4.918   0.681 -0.8919  0.7892 -0.3417
 1646SOL    HW214853   0.860   4.925   0.792 -0.2616  1.7249  0.2801
 1647SOL     OW14854   0.214   4.507   0.630 -0.1862  0.6505  0.3019
 1647SOL    HW114855   0.312   4.524   0.638 -0.2851  0.9998  0.8117
 1647SOL    HW214856   0.198   4.412   0.605  0.3253  0.8908 -0.9472
 1648SOL     OW14857   4.013   3.380   0.973 -0.0933 -0.5681 -0.0429
 1648SOL    HW114858   3.965   3.414   1.055 -0.4993 -0.5198 -0.2997
 1648SOL    HW214859   4.068   3.301   0.998  0.2926 -0.1554  0.4132
 1649SOL     OW14860   3.186   4.270   2.660  0.2583  0.0501  0.2781
 1649SOL    HW114861   3.197   4.356   2.611 -0.0842  0.3557  0.7346
 1649SOL    HW214862   3.149   4.201   2.598 -0.4907  0.5275  0.1893
 1650SOL     OW14863   4.455   9.378   0.820  0.0028 -0.2159  0.1289
 1650SOL    HW114864   4.460   9.301   0.757  0.8942 -1.0252  1.1677
 1650SOL    HW214865   4.546   9.418   0.830  0.1208 -0.8704  1.8235
 1651SOL     OW14866   1.084   3.781   0.689 -0.2718  0.1317 -0.4925
 1651SOL    HW114867   0.997   3.819   0.722  0.0314 -0.5924  1.1587
 1651SOL    HW214868   1.128   3.730   0.762  2.9766  2.9133 -0.4168
 1652SOL     OW14869   4.335   3.251   2.384 -0.5891  0.3902 -0.1697
 1652SOL    HW114870   4.345   3.299   2.471 -1.5034  2.5013 -1.1914
 1652SOL    HW214871   4.282   3.307   2.321 -0.2556 -1.2683 -1.9794
 1653SOL     OW14872   2.346   4.064   1.976 -0.1029  0.4255 -0.2925
 1653SOL    HW114873   2.305   4.090   2.063  0.1357 -0.3839  0.0598
 1653SOL    HW214874   2.356   3.965   1.972  3.0491  0.6779  0.1958
 1654SOL     OW14875   1.570   3.513   0.877  0.3679 -0.3050  0.1662
 1654SOL    HW114876   1.504   3.487   0.948  0.8168 -1.8866  0.0259
 1654SOL    HW214877   1.636   3.439   0.866 -1.9893 -1.8871 -4.6873
 1655SOL     OW14878   3.090   4.246   1.876 -0.0491  0.4596  0.2551
 1655SOL    HW114879   3.005   4.298   1.887 -0.2869  0.3829 -1.1505
 1655SOL    HW214880   3.134   4.271   1.790  0.4412 -0.7826  0.1284
 1656SOL     OW14881   3.048   6.323   2.612 -0.6386 -0.7756 -0.1251
 1656SOL    HW114882   3.046   6.223   2.616  0.6916 -0.8699 -1.2785
 1656SOL    HW214883   3.132   6.352   2.566 -0.1133  0.9179  1.8292
 1657SOL     OW14884   2.075   6.383   2.459 -0.0245 -0.0096 -0.6047
 1657SOL    HW114885   2.050   6.399   2.364  2.9287 -0.2725 -1.4837
 1657SOL    HW214886   2.034   6.453   2.517 -2.7085 -0.4385 -1.8985
 1658SOL     OW14887   3.268   9.424   2.042  0.3755 -0.8765 -0.3439
 1658SOL    HW114888   3.180   9.389   2.010  0.0949  0.2552 -0.8415
 1658SOL    HW214889   3.254   9.487   2.117  0.7007 -0.1438 -0.8877
 1659SOL     OW14890   4.342   0.390   1.056 -0.4490  0.1620  0.2174
 1659SOL    HW114891   4.244   0.405   1.049 -0.3798  0.1153 -0.8488
 1659SOL    HW214892   4.383   0.462   1.113 -1.2484 -0.4396  1.5882
 1660SOL     OW14893   2.908   3.664   2.544  0.1979  0.0058 -0.0424
 1660SOL    HW114894   2.837   3.654   2.474  2.0753 -1.1260 -1.8465
 1660SOL    HW214895   2.867   3.656   2.635 -2.1014  0.2332 -1.0280
 1661SOL     OW14896   3.735   4.692   2.146  0.6668 -0.0416  0.2281
 1661SOL    HW114897   3.778   4.774   2.183  1.6503 -0.6532  0.4549
 1661SOL    HW214898   3.708   4.632   2.222  0.0348  0.0300  0.0614
 1662SOL     OW14899   2.348   7.151   2.803  0.0162  0.3513  0.1161
 1662SOL    HW114900   2.299   7.147   2.716  1.4373  2.0011 -0.8001
 1662SOL    HW214901   2.399   7.066   2.816  1.2418  0.7959 -1.5790
 1663SOL     OW14902   2.690   5.252   1.445  0.5414 -0.4145 -0.0463
 1663SOL    HW114903   2.700   5.305   1.361 -2.6933  1.5994  0.7495
 1663SOL    HW214904   2.779   5.243   1.490  1.3471  3.6861 -0.6348
 1664SOL     OW14905   4.296   4.442   0.626 -0.1136 -0.2203  0.3100
 1664SOL    HW114906   4.334   4.463   0.715 -0.1752  1.3205 -0.0194
 1664SOL    HW214907   4.369   4.416   0.563  0.5325  3.4392 -0.5265
 1665SOL     OW14908   2.924   6.065   1.152 -0.3615  0.4335  0.1374
 1665SOL    HW114909   2.955   6.000   1.083  0.3028  0.9007 -0.0049
 1665SOL    HW214910   2.841   6.112   1.120  1.0423  2.0645 -1.1856
 1666SOL     OW14911   3.436   0.157   1.404 -0.1246  0.4281 -0.4131
 1666SOL    HW114912   3.403   0.100   1.480 -0.4682  1.7888  0.4890
 1666SOL    HW214913   3.506   0.220   1.438 -1.6756  2.4009 -0.7756
 1667SOL     OW14914   4.927   2.692   0.578  0.2920  0.2688  0.2981
 1667SOL    HW114915   4.900   2.708   0.673  0.2920 -1.1482  0.5441
 1667SOL    HW214916   4.997   2.621   0.575  1.2289  1.2220 -0.6585
 1668SOL     OW14917   2.567   6.457   0.360  1.2948  1.2108  0.3617
 1668SOL    HW114918   2.614   6.375   0.330 -1.1345  0.1006 -0.4850
 1668SOL    HW214919   2.511   6.436   0.440 -0.2174  1.7596 -0.5351
 1669SOL     OW14920   2.666   7.131   1.543  0.1346 -0.2198 -0.8379
 1669SOL    HW114921   2.571   7.100   1.538 -0.3640  1.2650 -0.8255
 1669SOL    HW214922   2.669   7.223   1.583  1.7574 -1.1179  1.2477
 1670SOL     OW14923   9.349   4.536   0.799  0.1928 -0.0798 -0.2834
 1670SOL    HW114924   9.342   4.474   0.878  1.3448 -0.3586 -0.3921
 1670SOL    HW214925   9.423   4.602   0.815 -0.9273  1.1799 -0.2382
 1671SOL     OW14926   3.023   6.455   2.299  0.2747 -0.7540  0.3939
 1671SOL    HW114927   2.995   6.397   2.376  0.3239 -0.4077  0.6706
 1671SOL    HW214928   3.011   6.551   2.323 -1.5788 -0.6695 -0.7129
 1672SOL     OW14929   3.683   9.408   1.056 -0.0542  0.5907  0.0511
 1672SOL    HW114930   3.708   9.505   1.055  2.4482 -0.0209  1.3652
 1672SOL    HW214931   3.587   9.399   1.027 -0.3740  3.4471  0.0371
 1673SOL     OW14932   2.855   5.703   1.880 -0.1232  0.0921 -0.1327
 1673SOL    HW114933   2.833   5.617   1.924  2.0833 -0.7512 -0.5870
 1673SOL    HW214934   2.799   5.714   1.798  1.3112 -2.1271 -1.4510
 1674SOL     OW14935   2.095   5.752   0.324  0.1705  0.5618  0.0926
 1674SOL    HW114936   2.111   5.769   0.227 -0.2658 -0.8529 -0.2442
 1674SOL    HW214937   2.017   5.690   0.335  0.5101  0.3307  1.3285
 1675SOL     OW14938   1.333   5.108   0.658 -0.2442 -0.0352 -0.3161
 1675SOL    HW114939   1.301   5.127   0.565  0.8823  1.0479 -0.4821
 1675SOL    HW214940   1.414   5.050   0.654  0.0090  0.3008 -0.0153
 1676SOL     OW14941   4.192   2.139   0.567 -0.0936  0.2868 -0.5007
 1676SOL    HW114942   4.174   2.217   0.627 -0.3999 -0.6599  0.6510
 1676SOL    HW214943   4.106   2.100   0.535 -0.0404 -1.7570  1.7767
 1677SOL     OW14944   1.244   4.653   1.597  0.8781 -0.8401  0.2489
 1677SOL    HW114945   1.309   4.577   1.601 -0.5438 -2.0505  0.7241
 1677SOL    HW214946   1.219   4.670   1.501  0.5500 -1.5397  0.2067
 1678SOL     OW14947   4.223   8.562   0.711  0.2395 -0.1142  0.1296
 1678SOL    HW114948   4.160   8.569   0.788  0.3734  0.3057  0.2034
 1678SOL    HW214949   4.257   8.653   0.687  1.4590 -0.4307  0.6192
 1679SOL     OW14950   4.605   1.128   2.092  0.0463 -0.1966  0.4211
 1679SOL    HW114951   4.696   1.091   2.111 -0.3270 -0.5649  1.5337
 1679SOL    HW214952   4.610   1.227   2.085  0.7853 -0.3166 -1.0029
 1680SOL     OW14953   3.508   1.649   0.894  0.4011  0.1906  0.7932
 1680SOL    HW114954   3.593   1.598   0.883 -0.1775 -0.7168  0.4737
 1680SOL    HW214955   3.527   1.747   0.890  1.9658  0.1021  4.2597
 1681SOL     OW14956   1.907   5.796   1.678  0.0468  0.2915  0.1080
 1681SOL    HW114957   1.943   5.824   1.766 -1.0551 -0.9070  0.9676
 1681SOL    HW214958   1.924   5.698   1.664 -1.6603 -0.0023 -0.0415
 1682SOL     OW14959   4.282   3.427   0.866 -0.2713  0.2452  0.1476
 1682SOL    HW114960   4.369   3.416   0.914 -0.3847  0.1961  0.3425
 1682SOL    HW214961   4.228   3.497   0.911  0.0452  0.9265 -0.5184
 1683SOL     OW14962   3.300   7.280   0.829  0.1760 -0.4024 -0.7904
 1683SOL    HW114963   3.359   7.307   0.905 -0.9251  1.3229 -0.5297
 1683SOL    HW214964   3.239   7.207   0.858 -0.8768  0.8874  0.2797
 1684SOL     OW14965   4.558   2.448   0.546 -0.0493  0.0532 -0.1328
 1684SOL    HW114966   4.512   2.396   0.475 -1.0975  0.5381  0.1749
 1684SOL    HW214967   4.601   2.530   0.506  2.1862 -1.3712 -0.7268
 1685SOL     OW14968   1.313   5.505   0.172 -0.3563 -0.3002  0.2555
 1685SOL    HW114969   1.221   5.530   0.201  0.2328  1.2218  0.8160
 1685SOL    HW214970   1.366   5.475   0.251 -0.2488 -0.8329 -0.0134
 1686SOL     OW14971   3.165   6.815   2.727  0.2981 -0.2144  0.6790
 1686SOL    HW114972   3.163   6.778   2.820  0.1638 -1.4099  0.2209
 1686SOL    HW214973   3.186   6.912   2.730  1.2288 -0.4401  1.9033
 1687SOL     OW14974   4.688   3.000   1.964 -0.6083  0.5199  0.1518
 1687SOL    HW114975   4.782   2.984   1.934 -0.0207  1.7074  1.3201
 1687SOL    HW214976   4.662   2.931   2.032 -0.7443 -0.0794 -0.5050
 1688SOL     OW14977   3.329   3.743   0.344  0.0959  0.3433 -0.4092
 1688SOL    HW114978   3.246   3.688   0.333 -0.4957  1.6348 -2.5966
 1688SOL    HW214979   3.344   3.761   0.441 -0.4944 -2.4410  0.2492
 1689SOL     OW14980   3.357   2.864   2.312  0.4697  0.2400  0.5014
 1689SOL    HW114981   3.276   2.815   2.345  1.0660 -0.1841  1.3485
 1689SOL    HW214982   3.435   2.841   2.369  0.9034  1.6727  0.4913
 1690SOL     OW14983   0.360   4.567   0.917  0.0919 -0.0735  0.7154
 1690SOL    HW114984   0.404   4.579   0.828 -1.1506 -1.6986 -0.1313
 1690SOL    HW214985   0.424   4.594   0.989  1.0807  1.3591 -0.6489
 1691SOL     OW14986   3.003   2.821   0.449 -0.2849 -0.0711 -0.0213
 1691SOL    HW114987   3.034   2.818   0.544 -0.9795 -2.0415  0.1629
 1691SOL    HW214988   2.981   2.915   0.425 -2.6852  0.1272  2.6218
 1692SOL     OW14989   2.222   3.503   1.011  0.0525 -0.5472  0.0419
 1692SOL    HW114990   2.259   3.584   0.965 -1.4068  1.1538  1.8054
 1692SOL    HW214991   2.123   3.500   0.999 -0.1057 -1.1122  1.4511
 1693SOL     OW14992   4.210   3.884   0.246 -0.6078  0.5796 -0.1185
 1693SOL    HW114993   4.258   3.956   0.295  0.2953  0.1366 -0.3387
 1693SOL    HW214994   4.198   3.911   0.150  0.6451 -0.0016 -0.4389
 1694SOL     OW14995   1.511   6.670   2.786 -0.7905  0.4377 -0.5079
 1694SOL    HW114996   1.528   6.739   2.715 -1.1586 -0.6443 -1.6641
 1694SOL    HW214997   1.441   6.606   2.755 -1.2366  0.1735  1.0004
 1695SOL     OW14998   3.138   5.224   0.420  0.5870  0.1981  0.1425
 1695SOL    HW114999   3.220   5.205   0.475  1.0027  1.1301 -0.1372
 1695SOL    HW215000   3.070   5.153   0.436  1.1104 -0.1107  1.0577
 1696SOL     OW15001   3.871   1.497   1.669 -0.8492  0.4352  0.2170
 1696SOL    HW115002   3.954   1.466   1.621  0.9960  2.0743  2.2339
 1696SOL    HW215003   3.838   1.580   1.625 -0.3341  0.8083  0.5250
 1697SOL     OW15004   2.047   6.965   0.717  0.5168  0.2438  0.0773
 1697SOL    HW115005   2.083   6.875   0.742 -1.0385 -0.5192 -0.4083
 1697SOL    HW215006   2.109   7.036   0.752  2.1038 -1.0164 -0.1071
 1698SOL     OW15007   1.974   4.874   0.346 -0.5972 -0.4119  0.2807
 1698SOL    HW115008   1.896   4.895   0.405 -0.3485  0.2128  0.3868
 1698SOL    HW215009   1.960   4.915   0.256  0.3712  1.1245  0.8122
 1699SOL     OW15010   2.864   2.109   1.318  0.0937 -0.0940 -0.1766
 1699SOL    HW115011   2.777   2.060   1.318  0.7628 -1.3287  0.4898
 1699SOL    HW215012   2.900   2.111   1.412  0.0658  1.7251 -0.1852
 1700SOL     OW15013   3.035   2.546   2.308 -0.0459  0.1540  0.2801
 1700SOL    HW115014   3.046   2.554   2.209 -2.4285  0.6620  0.0167
 1700SOL    HW215015   3.024   2.450   2.332  0.5397  0.0289  0.0702
 1701SOL     OW15016   5.182   2.721   0.393  0.6459  0.1616  0.3571
 1701SOL    HW115017   5.204   2.688   0.485  0.8064  1.8040  0.9221
 1701SOL    HW215018   5.171   2.821   0.395 -3.7867 -0.2103 -0.4976
 1702SOL     OW15019   3.217   2.691   2.480 -0.1240 -0.2198 -1.0571
 1702SOL    HW115020   3.283   2.631   2.525 -0.3939 -0.1869 -0.6114
 1702SOL    HW215021   3.160   2.638   2.418 -1.9797 -0.8769  1.1334
 1703SOL     OW15022   2.491   1.410   2.479 -0.6062  0.0581  0.1483
 1703SOL    HW115023   2.452   1.474   2.545  0.0676  1.3828 -0.7075
 1703SOL    HW215024   2.455   1.430   2.388  1.4622  0.8466 -0.5378
 1704SOL     OW15025   2.368   1.966   0.098  0.1053  0.0987 -0.3866
 1704SOL    HW115026   2.319   2.037   0.149 -0.0357 -0.8648  0.8137
 1704SOL    HW215027   2.335   1.966   0.003 -1.4296  0.1949  0.1314
 1705SOL     OW15028   3.747   9.638   0.437 -0.0770 -0.2539 -0.0411
 1705SOL    HW115029   3.806   9.702   0.388 -0.2384  0.1319  0.2703
 1705SOL    HW215030   3.682   9.597   0.373  0.8334 -1.0266 -0.4744
 1706SOL     OW15031   1.664   5.143   1.393 -1.4000  0.3031  0.2514
 1706SOL    HW115032   1.645   5.049   1.422  0.1585  0.9039  3.4107
 1706SOL    HW215033   1.759   5.150   1.364 -1.4598  0.9722  0.2172
 1707SOL     OW15034   0.857   5.954   0.851 -0.0060 -0.2494 -0.2250
 1707SOL    HW115035   0.775   5.940   0.795 -0.6006 -2.7353  1.1829
 1707SOL    HW215036   0.916   6.022   0.807 -3.1946  2.2582 -0.8360
 1708SOL     OW15037   1.454   4.522   1.082  0.4406  0.4815  0.4234
 1708SOL    HW115038   1.511   4.491   1.159 -0.0985  0.4293  0.8047
 1708SOL    HW215039   1.501   4.502   0.996  0.7392 -0.0947  0.7159
 1709SOL     OW15040   0.568   4.162   1.024  0.1979  0.1655  0.1942
 1709SOL    HW115041   0.612   4.235   0.971  0.1801  0.6272  0.7966
 1709SOL    HW215042   0.621   4.078   1.016  0.8545  0.5519  0.4094
 1710SOL     OW15043   2.647   4.863   0.944  0.4924  0.0550 -0.2385
 1710SOL    HW115044   2.740   4.831   0.923  0.6668  0.2355  0.2503
 1710SOL    HW215045   2.606   4.802   1.012 -0.0833 -0.5503 -1.1347
 1711SOL     OW15046   3.310   1.861   2.268  0.3364  0.1352  0.2748
 1711SOL    HW115047   3.392   1.813   2.298  0.4382  0.3354  0.3190
 1711SOL    HW215048   3.293   1.841   2.171 -0.7176 -1.5393  0.7768
 1712SOL     OW15049   3.786   8.803   2.094  0.2866  0.2226  0.3090
 1712SOL    HW115050   3.735   8.786   2.178 -3.0390  0.3426 -1.6172
 1712SOL    HW215051   3.809   8.715   2.051 -0.0293  0.2046  0.1750
 1713SOL     OW15052   3.496   9.768   2.135 -0.4621 -0.4109  0.1094
 1713SOL    HW115053   3.459   9.728   2.051 -1.3104 -2.4356  1.3893
 1713SOL    HW215054   3.540   9.696   2.190  0.2029  0.8970  1.3299
 1714SOL     OW15055   2.774   1.318   0.258  0.1892  0.0303  0.0126
 1714SOL    HW115056   2.748   1.269   0.341  1.0350  0.7292  0.6996
 1714SOL    HW215057   2.868   1.351   0.267  0.3497 -0.0256 -1.2896
 1715SOL     OW15058   2.126   5.748   2.245  0.2549 -0.4036 -0.3977
 1715SOL    HW115059   2.145   5.653   2.222  1.9397  0.3282 -2.1103
 1715SOL    HW215060   2.195   5.781   2.310  1.2791  0.4416 -1.8985
 1716SOL     OW15061   3.989   0.142   1.602  0.3661 -0.6138  0.0361
 1716SOL    HW115062   4.067   0.198   1.631  0.0423 -0.1080 -0.0663
 1716SOL    HW215063   4.022   0.063   1.550  0.8650 -0.8543  0.7201
 1717SOL     OW15064   4.347   8.837   0.750 -0.1375  0.2418  0.9849
 1717SOL    HW115065   4.408   8.894   0.805  0.4601  0.7520 -0.1775
 1717SOL    HW215066   4.285   8.896   0.698 -1.6853 -0.2750  2.2160
 1718SOL     OW15067   3.286   7.567   0.698  0.2005 -0.6116 -0.3158
 1718SOL    HW115068   3.197   7.525   0.718  0.3792 -1.2957 -0.9332
 1718SOL    HW215069   3.283   7.664   0.722 -0.1760 -0.9950  1.2487
 1719SOL     OW15070   3.453   4.830   0.639  0.3405  0.0135 -0.3948
 1719SOL    HW115071   3.402   4.750   0.607  0.2466  0.6115 -1.7778
 1719SOL    HW215072   3.506   4.868   0.564 -0.0270  1.5682  0.1123
 1720SOL     OW15073   1.189   4.606   1.343  0.1302 -0.5411 -0.6416
 1720SOL    HW115074   1.235   4.519   1.358 -2.5447 -1.7191  1.1485
 1720SOL    HW215075   1.093   4.590   1.319 -0.4139  1.9061 -0.3297
 1721SOL     OW15076   3.618   0.774   0.852 -0.3195  0.0627  0.5299
 1721SOL    HW115077   3.661   0.720   0.780  2.8308  1.5191  1.2570
 1721SOL    HW215078   3.578   0.856   0.813  0.8103  0.5248  0.3326
 1722SOL     OW15079   3.405   2.920   0.040 -0.2438 -0.2485 -0.2579
 1722SOL    HW115080   3.478   2.950   0.100 -0.0396  1.4470 -1.3252
 1722SOL    HW215081   3.327   2.888   0.094  0.3054  0.3451  0.8818
 1723SOL     OW15082   9.460   4.751   0.100  0.2156 -0.6412  0.1890
 1723SOL    HW115083   9.389   4.780   0.164 -1.0560  0.8462 -1.8357
 1723SOL    HW215084   9.421   4.687   0.033  0.1673  1.8725 -2.2714
 1724SOL     OW15085   4.204   3.656   2.085 -0.1483 -0.3611  0.2180
 1724SOL    HW115086   4.104   3.646   2.094 -0.3348  0.4014 -0.9568
 1724SOL    HW215087   4.226   3.750   2.059  0.7914 -0.8650 -0.8541
 1725SOL     OW15088   2.848   4.466   2.283 -0.5794  0.2133  0.6782
 1725SOL    HW115089   2.869   4.398   2.212 -0.1624 -0.1413  1.1280
 1725SOL    HW215090   2.749   4.477   2.291 -0.5857  2.0624 -1.6361
 1726SOL     OW15091   1.040   5.971   1.438  0.6711  0.0116 -0.5959
 1726SOL    HW115092   1.078   6.063   1.429 -1.4913  1.0359  0.3381
 1726SOL    HW215093   0.968   5.958   1.371 -1.5229  0.3538  1.6193
 1727SOL     OW15094   3.038   9.675   2.581 -0.6257 -0.2555  0.3921
 1727SOL    HW115095   3.016   9.743   2.511 -2.5065 -0.5706  0.6572
 1727SOL    HW215096   3.010   9.584   2.550  2.9906 -1.1352 -0.4732
 1728SOL     OW15097   4.128   8.010   0.103  0.2999 -0.1509 -0.7801
 1728SOL    HW115098   4.173   7.981   0.019  1.2052  0.2229 -0.4275
 1728SOL    HW215099   4.029   8.002   0.092  0.5072 -3.2974 -0.7074
 1729SOL     OW15100   2.138   4.584   1.883  0.4698  0.1828 -0.1491
 1729SOL    HW115101   2.106   4.652   1.817 -0.0270  0.6975  0.6144
 1729SOL    HW215102   2.196   4.628   1.951 -1.0561  0.1376  1.2068
 1730SOL     OW15103   1.136   3.659   1.562  0.4186 -0.0402 -0.2141
 1730SOL    HW115104   1.120   3.704   1.650  0.4196  1.1298 -0.8017
 1730SOL    HW215105   1.048   3.632   1.522  0.1959  2.0610 -1.2016
 1731SOL     OW15106   3.977   5.241   2.284 -0.5920  0.8395 -0.1144
 1731SOL    HW115107   3.984   5.260   2.186 -1.7319  2.4207  0.0845
 1731SOL    HW215108   3.882   5.222   2.308 -0.0049 -1.7609  0.3339
 1732SOL     OW15109   1.666   2.754   2.661  0.7480 -0.5175 -0.6110
 1732SOL    HW115110   1.759   2.727   2.633  0.2942 -1.9817 -0.7467
 1732SOL    HW215111   1.625   2.681   2.715 -0.4675 -0.0288 -0.8629
 1733SOL     OW15112   3.019   8.815   0.368 -0.3421  0.3950  0.0850
 1733SOL    HW115113   2.930   8.852   0.343 -0.9667 -1.7428 -1.0122
 1733SOL    HW215114   3.015   8.778   0.461 -0.1944  1.5548  0.5524
 1734SOL     OW15115   3.083   8.048   2.335  0.1638 -0.0410  0.3448
 1734SOL    HW115116   3.034   8.068   2.251  0.8369 -2.7145 -0.7293
 1734SOL    HW215117   3.177   8.082   2.329  0.4472 -0.9238 -0.3244
 1735SOL     OW15118   1.164   4.891   1.983 -0.7744  0.2762  0.1289
 1735SOL    HW115119   1.088   4.833   1.953  0.3236  0.0748 -2.3661
 1735SOL    HW215120   1.135   4.987   1.983 -1.7856 -0.0073  1.6937
 1736SOL     OW15121   9.712   4.777   1.214  0.0658 -0.5564  0.4443
 1736SOL    HW115122   9.802   4.787   1.256  1.2178 -0.2616 -2.0036
 1736SOL    HW215123   9.712   4.821   1.124 -1.9736 -2.1179 -0.3575
 1737SOL     OW15124   2.685   8.719   0.663 -0.0793  0.2769 -0.1630
 1737SOL    HW115125   2.761   8.753   0.609 -0.5335  2.9378  0.7600
 1737SOL    HW215126   2.695   8.749   0.758 -0.6096 -2.1174  0.6967
 1738SOL     OW15127   2.046   3.690   1.935  0.1655 -0.0848 -0.1537
 1738SOL    HW115128   2.043   3.758   1.863 -0.1582  0.8333  0.7122
 1738SOL    HW215129   2.073   3.601   1.897 -0.1207  0.3600 -1.4058
 1739SOL     OW15130   2.358   2.532   0.537 -0.3149 -0.2774 -0.2077
 1739SOL    HW115131   2.288   2.461   0.534 -0.5461 -0.0444 -0.4298
 1739SOL    HW215132   2.380   2.554   0.632 -1.5863  0.6535 -0.1142
 1740SOL     OW15133   3.304   1.146   1.072  0.2119  0.1806  0.2173
 1740SOL    HW115134   3.236   1.086   1.029 -1.3936  0.8403  1.7673
 1740SOL    HW215135   3.378   1.091   1.109 -0.8525 -0.7974  0.9385
 1741SOL     OW15136   2.798   0.661   0.159 -0.2541  0.7116  0.6127
 1741SOL    HW115137   2.853   0.734   0.199  0.7309 -0.4993  1.5194
 1741SOL    HW215138   2.755   0.694   0.075 -0.5396  2.5951  1.4733
 1742SOL     OW15139   5.254   1.468   1.047 -0.4754 -0.0358 -0.5810
 1742SOL    HW115140   5.307   1.474   0.963 -0.8629  1.0425 -0.7583
 1742SOL    HW215141   5.255   1.557   1.094 -3.5182  0.5104 -1.4597
 1743SOL     OW15142   3.208   0.389   0.332  0.5623 -0.0841 -0.1517
 1743SOL    HW115143   3.213   0.344   0.243  0.1404  0.3105 -0.3752
 1743SOL    HW215144   3.220   0.488   0.321  2.1905 -0.2023  0.4171
 1744SOL     OW15145   5.058   3.157   0.947 -0.4711 -0.4184 -0.2396
 1744SOL    HW115146   5.036   3.065   0.914  1.0565 -0.9343  0.1450
 1744SOL    HW215147   5.056   3.221   0.871 -1.1380 -0.8323 -0.5816
 1745SOL     OW15148   2.238   3.570   1.328 -0.0907  0.3976 -0.4942
 1745SOL    HW115149   2.256   3.484   1.282 -1.6247  0.2650 -0.8726
 1745SOL    HW215150   2.184   3.629   1.268  2.5355  2.3789 -0.9829
 1746SOL     OW15151   2.406   7.359   0.160  0.4310  0.4630  0.3557
 1746SOL    HW115152   2.368   7.300   0.090  1.7616 -1.0711  0.8752
 1746SOL    HW215153   2.425   7.450   0.122  0.2577 -0.0669 -1.0048
 1747SOL     OW15154   2.418   6.902   0.870  0.5247  0.0513 -0.4141
 1747SOL    HW115155   2.480   6.908   0.791 -1.4956 -1.5441 -2.2068
 1747SOL    HW215156   2.347   6.972   0.861  0.0535 -0.4070 -0.2303
 1748SOL     OW15157   3.289   7.594   0.376  0.0003 -0.5738 -0.0738
 1748SOL    HW115158   3.277   7.572   0.473 -1.4542  2.0020  0.3610
 1748SOL    HW215159   3.226   7.539   0.321 -2.0756  0.8666  0.8118
 1749SOL     OW15160   2.693   0.524   2.190  0.3536  0.2872 -0.1209
 1749SOL    HW115161   2.754   0.584   2.138  0.4206  1.2214  1.0087
 1749SOL    HW215162   2.677   0.440   2.139  2.1156  0.2845 -0.6965
 1750SOL     OW15163   4.245   4.482   2.705 -0.3725  0.2224  0.3780
 1750SOL    HW115164   4.198   4.463   2.619  0.3892 -0.1553  0.0366
 1750SOL    HW215165   4.178   4.495   2.778 -1.0743  2.0838 -0.5722
 1751SOL     OW15166   1.520   4.109   2.013  0.0777  0.0746 -0.4322
 1751SOL    HW115167   1.558   4.109   1.920 -2.9241  3.2445 -1.7733
 1751SOL    HW215168   1.423   4.086   2.009  0.2650 -1.3526  2.1721
 1752SOL     OW15169   3.713   4.913   0.735  0.7317 -0.4060 -0.5743
 1752SOL    HW115170   3.777   4.888   0.662 -0.0592 -0.1214 -1.3751
 1752SOL    HW215171   3.624   4.872   0.717  0.7144 -0.9090  0.6071
 1753SOL     OW15172   3.321   2.759   0.528 -0.9018  0.4606  0.2009
 1753SOL    HW115173   3.352   2.724   0.616  1.2872 -1.9414 -1.4338
 1753SOL    HW215174   3.287   2.684   0.472 -0.6484  1.6667 -1.6249
 1754SOL     OW15175   1.796   4.338   2.696  0.3211  0.6119 -0.4571
 1754SOL    HW115176   1.810   4.336   2.597 -1.3188 -0.3460 -0.6942
 1754SOL    HW215177   1.823   4.427   2.732  1.7316  0.6740 -1.6347
 1755SOL     OW15178   0.001   5.519   0.518  0.5696 -0.3606 -0.2335
 1755SOL    HW115179  -0.059   5.578   0.464  1.3443 -0.3465 -1.0926
 1755SOL    HW215180   0.083   5.497   0.465  1.4263 -0.2154  0.9991
 1756SOL     OW15181   3.383   9.775   2.400 -0.3631 -0.2255  0.9392
 1756SOL    HW115182   3.423   9.746   2.314 -0.9132 -1.5573  1.1165
 1756SOL    HW215183   3.455   9.803   2.463  0.2165 -1.4511  0.8361
 1757SOL     OW15184   4.078   0.198   2.209 -0.4007  0.5742 -0.0237
 1757SOL    HW115185   4.092   0.141   2.290 -1.1730 -0.2245 -0.4553
 1757SOL    HW215186   3.991   0.174   2.166 -1.4046  2.9914  0.5608
 1758SOL     OW15187   1.847   2.741   0.275  0.7891 -0.0026  0.2779
 1758SOL    HW115188   1.912   2.688   0.330  0.7713  1.6156  1.9249
 1758SOL    HW215189   1.883   2.752   0.183  0.9474 -2.5574 -0.0016
 1759SOL     OW15190   9.717   5.172   0.859 -0.3413  0.0173 -0.3416
 1759SOL    HW115191   9.789   5.130   0.805 -1.4343 -0.0383 -1.7809
 1759SOL    HW215192   9.657   5.225   0.800 -1.3022  0.3283  0.8796
 1760SOL     OW15193   1.354   4.988   0.177  0.0378  0.3434 -0.0833
 1760SOL    HW115194   1.345   5.087   0.175 -0.5781  0.2856 -0.4222
 1760SOL    HW215195   1.265   4.946   0.157  0.1782 -0.2749  0.5444
 1761SOL     OW15196   5.117   2.692   0.897 -0.6015  0.3903  0.0835
 1761SOL    HW115197   5.060   2.651   0.968 -1.4012  1.0462 -0.1731
 1761SOL    HW215198   5.183   2.754   0.939 -1.6024  1.3902  0.1906
 1762SOL     OW15199   4.639   3.309   1.334  0.4299  0.4715  0.2056
 1762SOL    HW115200   4.737   3.286   1.330  0.8627  1.9874  1.7594
 1762SOL    HW215201   4.625   3.385   1.397 -1.6664  0.8283 -0.6583
 1763SOL     OW15202   3.555   9.863   2.606  0.1498 -0.4089  0.5033
 1763SOL    HW115203   3.655   9.863   2.601  0.1582 -0.2844  0.6758
 1763SOL    HW215204   3.523   9.775   2.642  0.1009 -1.2449 -1.5084
 1764SOL     OW15205   4.763   4.846   1.314 -0.1478 -0.0562 -0.4405
 1764SOL    HW115206   4.768   4.756   1.270 -0.7754  0.1085 -0.8505
 1764SOL    HW215207   4.785   4.917   1.248 -0.5927  0.1586 -0.3624
 1765SOL     OW15208   4.402   3.007   2.330  0.0582 -0.0968 -0.0730
 1765SOL    HW115209   4.435   2.947   2.402 -0.6772  0.1207  0.4502
 1765SOL    HW215210   4.391   3.100   2.366  1.0214  0.3190 -0.8272
 1766SOL     OW15211   2.824   2.244   2.612 -0.6407  0.2813  0.1416
 1766SOL    HW115212   2.799   2.150   2.636  0.8087 -0.2279 -0.2973
 1766SOL    HW215213   2.744   2.303   2.623 -1.8448 -1.1748 -0.5164
 1767SOL     OW15214   3.132   0.122   2.100 -0.9020 -0.1495  0.3796
 1767SOL    HW115215   3.215   0.100   2.150 -0.7901 -1.0922 -0.2185
 1767SOL    HW215216   3.140   0.215   2.062  0.4334 -0.7143 -0.7933
 1768SOL     OW15217   0.644   3.938   2.204  0.1483  0.3467  0.1705
 1768SOL    HW115218   0.654   3.973   2.111  1.7722 -0.1059  0.1636
 1768SOL    HW215219   0.567   3.984   2.249  2.0258  3.7442  0.0750
 1769SOL     OW15220   3.037   2.168   0.648 -0.4018  0.0532 -0.7339
 1769SOL    HW115221   2.956   2.175   0.590  0.5199  1.7270 -1.8545
 1769SOL    HW215222   3.072   2.259   0.668 -0.9072 -0.4540  2.8113
 1770SOL     OW15223   3.303   1.309   1.301 -0.2869  0.1409 -0.2692
 1770SOL    HW115224   3.306   1.244   1.377  0.1906 -0.5391 -0.8602
 1770SOL    HW215225   3.285   1.260   1.216  2.5715  0.4334 -1.0928
 1771SOL     OW15226   2.527   6.762   2.757  0.0077  0.0088 -0.0225
 1771SOL    HW115227   2.625   6.747   2.744  0.0122  0.0139  0.0049
 1771SOL    HW215228   2.499   6.723   2.845 -0.1115 -0.4384 -0.2572
 1772SOL     OW15229   1.076   4.058   1.492 -0.2013  0.3533  1.0444
 1772SOL    HW115230   1.007   4.112   1.540 -1.1691 -0.6956  0.8735
 1772SOL    HW215231   1.120   3.995   1.555 -0.7329 -0.2888  0.7867
 1773SOL     OW15232   2.965   5.466   1.552 -0.2408 -0.4372  0.0986
 1773SOL    HW115233   2.950   5.402   1.476  1.4668 -0.5565 -0.1652
 1773SOL    HW215234   2.984   5.414   1.636 -0.3206 -0.2939  0.2051
 1774SOL     OW15235   1.042   4.196   2.473  0.1931 -0.2196  0.8261
 1774SOL    HW115236   1.033   4.227   2.567  1.0427  0.6688  0.6211
 1774SOL    HW215237   0.969   4.131   2.452 -1.2331  1.1503  1.4468
 1775SOL     OW15238   3.725   7.754   1.146 -0.3298  0.3957  0.4252
 1775SOL    HW115239   3.661   7.829   1.158 -0.6534  0.3639 -0.9990
 1775SOL    HW215240   3.680   7.678   1.099  1.1917  1.0461 -2.2054
 1776SOL     OW15241   4.445   0.896   1.539  0.7246  0.0434 -0.3125
 1776SOL    HW115242   4.466   0.919   1.634  0.8699  1.0686 -0.5875
 1776SOL    HW215243   4.476   0.970   1.479 -0.7643  0.1224 -1.0143
 1777SOL     OW15244   2.242   7.681   1.258  0.4966  0.2093 -0.0258
 1777SOL    HW115245   2.204   7.736   1.184 -0.9260 -0.4976  0.1650
 1777SOL    HW215246   2.341   7.692   1.260  0.4944  0.6348 -1.7001
 1778SOL     OW15247   2.580   4.398   2.268 -0.7440 -0.5620 -0.0715
 1778SOL    HW115248   2.569   4.298   2.276 -0.3235 -0.5820  0.2095
 1778SOL    HW215249   2.519   4.443   2.333  2.1909 -0.7045  2.9155
 1779SOL     OW15250   4.246   2.045   1.338  0.1865  0.2641 -0.2314
 1779SOL    HW115251   4.289   2.091   1.260  0.3221  0.7682  0.1389
 1779SOL    HW215252   4.212   1.956   1.309 -0.7544  0.9109 -1.1537
 1780SOL     OW15253   5.087   2.793   1.693  0.6661 -0.0538 -0.2781
 1780SOL    HW115254   5.048   2.707   1.727 -0.7672  1.2533  1.4684
 1780SOL    HW215255   5.130   2.842   1.768  0.4723  1.3003 -1.0383
 1781SOL     OW15256   2.515   5.814   1.108  0.7737 -1.3645  0.3152
 1781SOL    HW115257   2.522   5.714   1.102  0.1991 -1.4047  0.2967
 1781SOL    HW215258   2.434   5.838   1.161  0.7817 -0.9009  0.1148
 1782SOL     OW15259   1.129   5.608   1.778  0.1011  0.4071  0.5188
 1782SOL    HW115260   1.082   5.694   1.799  0.0364  0.4229  0.3140
 1782SOL    HW215261   1.126   5.548   1.857  2.2081  1.5129  1.4889
 1783SOL     OW15262   0.686   5.042   2.072  0.3897 -0.0723  0.0091
 1783SOL    HW115263   0.735   5.117   2.028  1.1711 -2.2235 -2.9789
 1783SOL    HW215264   0.601   5.024   2.023 -0.0517 -0.8045  1.0152
 1784SOL     OW15265   0.844   5.184   0.163 -0.2977  0.0328  0.5755
 1784SOL    HW115266   0.793   5.150   0.243 -0.3676 -1.1052  0.0523
 1784SOL    HW215267   0.942   5.178   0.181 -0.3173  1.5188  1.2878
 1785SOL     OW15268   1.474   4.476   1.652 -0.2401  0.1129 -0.3872
 1785SOL    HW115269   1.563   4.453   1.613 -0.2218  0.2337 -0.4170
 1785SOL    HW215270   1.471   4.446   1.747  0.7685  2.3365  0.4034
 1786SOL     OW15271   3.092   0.865   2.281  0.0057 -0.6747 -0.2949
 1786SOL    HW115272   3.090   0.899   2.188 -0.1879 -2.1874 -0.8665
 1786SOL    HW215273   3.009   0.892   2.329  0.1066  0.1027 -0.5621
 1787SOL     OW15274   3.922   8.614   1.157  1.0681  0.5204 -0.4600
 1787SOL    HW115275   3.957   8.580   1.244 -1.2031 -0.8248 -0.0240
 1787SOL    HW215276   3.978   8.579   1.082  0.1900 -2.2790  0.1512
 1788SOL     OW15277   2.644   9.437   0.842  0.3750 -0.2214 -0.2160
 1788SOL    HW115278   2.658   9.481   0.753 -2.0272  0.0068 -0.5126
 1788SOL    HW215279   2.595   9.499   0.902 -2.2165 -2.0814 -0.3173
 1789SOL     OW15280   1.521   4.621   2.548  0.3130 -0.1998  0.2571
 1789SOL    HW115281   1.444   4.684   2.541 -1.2811 -2.1279 -0.1819
 1789SOL    HW215282   1.512   4.565   2.630  2.0298  0.5011  0.9653
 1790SOL     OW15283   1.961   5.345   2.693 -0.3275 -0.2275  0.0187
 1790SOL    HW115284   2.007   5.433   2.683  0.0360 -0.5057 -0.7714
 1790SOL    HW215285   1.993   5.282   2.623 -1.9825 -0.4156 -0.5941
 1791SOL     OW15286   0.181   4.295   0.880  0.2802 -0.5343 -0.2342
 1791SOL    HW115287   0.198   4.260   0.789 -0.1487  0.2063 -0.6067
 1791SOL    HW215288   0.223   4.386   0.889 -0.4634 -0.2111 -0.0034
 1792SOL     OW15289   5.133   2.019   2.822  0.4191 -0.2400  0.2724
 1792SOL    HW115290   5.112   1.946   2.887 -0.2955  0.3436  0.7138
 1792SOL    HW215291   5.062   2.090   2.828  0.8412  0.2531 -0.4927
 1793SOL     OW15292   3.089   8.228   1.800 -0.9162 -0.1893 -0.2961
 1793SOL    HW115293   3.077   8.135   1.835 -1.3526 -0.3998 -1.0013
 1793SOL    HW215294   3.187   8.251   1.801 -0.8866 -0.3315  0.6894
 1794SOL     OW15295   3.466   8.942   1.501  0.8074  0.0676  0.3387
 1794SOL    HW115296   3.428   9.021   1.548  1.4011  0.5996 -0.0801
 1794SOL    HW215297   3.392   8.880   1.474  0.4847 -0.4610  2.3486
 1795SOL     OW15298   3.490   3.677   1.823  0.0228  0.2180 -0.4724
 1795SOL    HW115299   3.428   3.622   1.768  1.5011 -2.0407  0.0484
 1795SOL    HW215300   3.457   3.771   1.827 -2.2741 -0.4994 -1.8291
 1796SOL     OW15301   2.429   5.375   1.391 -0.3926 -0.6216 -0.6668
 1796SOL    HW115302   2.515   5.330   1.414 -0.5912  0.6457  2.8423
 1796SOL    HW215303   2.447   5.469   1.363 -0.5593 -0.7214 -1.1225
 1797SOL     OW15304   2.426   4.693   1.377 -0.2395  0.8131 -0.0749
 1797SOL    HW115305   2.377   4.756   1.438 -2.7669 -1.1616 -0.0058
 1797SOL    HW215306   2.368   4.615   1.356  1.9213 -0.2782 -2.2116
 1798SOL     OW15307   3.367   1.640   1.450 -0.3862 -0.5863 -0.3496
 1798SOL    HW115308   3.395   1.709   1.516  3.2219 -1.8814 -0.4467
 1798SOL    HW215309   3.370   1.549   1.492 -2.3509 -1.0176 -1.0552
 1799SOL     OW15310   1.949   5.127   0.601  0.0876 -0.2863 -0.4085
 1799SOL    HW115311   1.969   5.077   0.686 -0.7190  0.6527  0.3413
 1799SOL    HW215312   2.026   5.115   0.538  0.3105 -1.7261  0.0992
 1800SOL     OW15313   0.145   4.133   0.317 -0.2103  0.4404  0.3338
 1800SOL    HW115314   0.096   4.217   0.294 -0.9408 -0.3563 -1.0581
 1800SOL    HW215315   0.176   4.088   0.233  1.2001 -0.0953  1.1107
 1801SOL     OW15316   2.639   8.366   0.467  0.7156  0.2658 -0.1070
 1801SOL    HW115317   2.713   8.403   0.410 -1.2920  1.3990 -2.0887
 1801SOL    HW215318   2.552   8.403   0.435 -0.5665  0.3811  3.3117
 1802SOL     OW15319   4.952   3.033   1.796 -0.4938  0.5806 -0.4048
 1802SOL    HW115320   4.997   3.122   1.790 -2.6498  1.5781 -2.3376
 1802SOL    HW215321   4.971   2.981   1.713  0.9374 -0.8755  0.8166
 1803SOL     OW15322   2.106   5.954   1.569  0.2814  0.2016  0.1970
 1803SOL    HW115323   2.025   5.911   1.608 -0.0479  2.6745  2.3808
 1803SOL    HW215324   2.167   5.985   1.642  2.0283  0.5500 -1.3635
 1804SOL     OW15325   4.075   4.289   0.057 -0.5048  0.0794 -0.2007
 1804SOL    HW115326   4.144   4.232   0.101 -1.1157 -0.8800 -0.4876
 1804SOL    HW215327   4.074   4.271  -0.041 -0.6027  0.6917 -0.3189
 1805SOL     OW15328   0.611   3.655   2.274 -0.4297 -0.3630 -0.0004
 1805SOL    HW115329   0.544   3.643   2.347 -0.7205  0.2265 -0.1748
 1805SOL    HW215330   0.628   3.752   2.259  0.9997 -0.5064  0.5306
 1806SOL     OW15331   4.438   2.884   2.602  0.0760  0.3062  0.3286
 1806SOL    HW115332   4.362   2.821   2.585  0.0681 -0.2287  2.2640
 1806SOL    HW215333   4.525   2.835   2.593  0.1147  0.3744  0.3333
 1807SOL     OW15334   3.811   4.303   2.237  0.4216 -0.1054  0.1224
 1807SOL    HW115335   3.907   4.281   2.222  0.5869 -0.3642  1.5340
 1807SOL    HW215336   3.804   4.391   2.285  0.0701 -1.6138  2.8916
 1808SOL     OW15337   4.212   3.188   0.703 -0.5536  0.1227  0.3272
 1808SOL    HW115338   4.268   3.178   0.620  0.1578 -0.2447  0.8432
 1808SOL    HW215339   4.219   3.282   0.737  0.6491 -0.2096  1.0158
 1809SOL     OW15340   2.825   7.889   1.977 -0.3613  0.4460  0.0523
 1809SOL    HW115341   2.769   7.957   2.024 -0.6683 -0.9422  1.7221
 1809SOL    HW215342   2.876   7.835   2.044  1.2446  0.1755 -1.3399
 1810SOL     OW15343   3.206   5.467   0.301  0.0942  0.0910  0.1311
 1810SOL    HW115344   3.295   5.480   0.257 -0.4582 -1.0727 -1.3829
 1810SOL    HW215345   3.204   5.378   0.346 -0.0973  0.3688  0.6717
 1811SOL     OW15346   3.879   4.130   1.086  0.6052  0.3841  0.0256
 1811SOL    HW115347   3.976   4.115   1.064  0.0249  0.2453 -2.5848
 1811SOL    HW215348   3.838   4.044   1.117  0.9646  0.1162 -0.2435
 1812SOL     OW15349   1.816   2.058   0.715  0.0025  0.1648  0.0180
 1812SOL    HW115350   1.755   1.980   0.729  0.6377 -0.2025  0.7837
 1812SOL    HW215351   1.895   2.028   0.661  0.0212  0.3840 -0.0748
 1813SOL     OW15352   0.913   5.229   2.604 -0.3747  0.3793  0.3318
 1813SOL    HW115353   0.848   5.154   2.599 -0.4617  0.5682 -1.7304
 1813SOL    HW215354   0.867   5.313   2.634 -0.3856 -0.2310  2.0930
 1814SOL     OW15355   1.838   2.916   0.533  0.2760 -0.0599 -0.7316
 1814SOL    HW115356   1.889   2.852   0.590 -0.2385 -0.2004 -0.4212
 1814SOL    HW215357   1.805   2.868   0.451  0.0713 -0.1419 -0.6026
 1815SOL     OW15358   2.272   4.180   2.227 -1.0094 -0.2268  0.0185
 1815SOL    HW115359   2.318   4.237   2.295 -0.9508  0.0930 -0.2902
 1815SOL    HW215360   2.202   4.125   2.272  0.5917 -1.7561  0.7433
 1816SOL     OW15361   2.219   2.417   0.979 -0.4211  0.7013  0.0183
 1816SOL    HW115362   2.283   2.347   1.011  0.0617  1.1542  0.0436
 1816SOL    HW215363   2.136   2.373   0.945  0.0238  0.0938 -0.2931
 1817SOL     OW15364   4.217   1.078   2.397  0.3896 -0.1832  0.0720
 1817SOL    HW115365   4.141   1.013   2.396 -1.2282  1.5841  1.4456
 1817SOL    HW215366   4.265   1.075   2.310 -0.5823 -2.1336 -0.4257
 1818SOL     OW15367   3.307   9.076   0.995 -0.3608 -1.0557  0.6436
 1818SOL    HW115368   3.365   8.995   1.007  0.6062 -0.5947 -0.8445
 1818SOL    HW215369   3.267   9.075   0.904 -1.1907 -0.3884  0.9947
 1819SOL     OW15370   3.815   2.820   0.596 -0.0918  0.0235  0.3988
 1819SOL    HW115371   3.788   2.871   0.515  0.6086  0.2746  0.3204
 1819SOL    HW215372   3.773   2.730   0.594 -1.3800  0.6054  0.5596
 1820SOL     OW15373   2.815   7.343   2.441 -0.3032 -0.0830 -0.6619
 1820SOL    HW115374   2.880   7.268   2.434 -1.3169 -1.0046 -0.3470
 1820SOL    HW215375   2.826   7.389   2.529  0.7814  0.5883 -1.1347
 1821SOL     OW15376   3.064   1.436   1.431  0.3066 -0.4331  0.2475
 1821SOL    HW115377   3.045   1.504   1.359 -1.7321 -1.6798 -0.4325
 1821SOL    HW215378   3.149   1.389   1.410  0.8323  0.7073 -0.2107
 1822SOL     OW15379   2.269   5.614   1.930  0.1835 -0.6877 -0.5494
 1822SOL    HW115380   2.226   5.540   1.878 -1.8257  0.7323 -0.9469
 1822SOL    HW215381   2.363   5.625   1.899 -0.0349 -1.9153 -1.7135
 1823SOL     OW15382   2.065   2.287   2.134 -0.8416  0.1268  0.2785
 1823SOL    HW115383   2.163   2.304   2.139 -0.7217 -0.5421  0.2448
 1823SOL    HW215384   2.016   2.374   2.129 -0.2278  0.4499 -0.1290
 1824SOL     OW15385   1.614   3.710   0.267  0.2030  0.2747  0.0396
 1824SOL    HW115386   1.565   3.751   0.190 -0.1630  1.7730  1.0548
 1824SOL    HW215387   1.571   3.737   0.352  2.1871  0.7879  0.9082
 1825SOL     OW15388   3.811   9.175   0.633 -0.4730  0.2998  0.3395
 1825SOL    HW115389   3.773   9.154   0.723 -1.6443 -1.7761 -0.5856
 1825SOL    HW215390   3.769   9.258   0.598 -1.2757  0.1840  1.0009
 1826SOL     OW15391   3.596   9.111   1.804 -0.3807  0.8820 -0.3356
 1826SOL    HW115392   3.536   9.169   1.749 -0.4475  0.7599 -0.3921
 1826SOL    HW215393   3.676   9.163   1.833 -0.3177  0.9297 -0.5965
 1827SOL     OW15394   3.083   1.125   1.384  0.7811  0.5704  0.3168
 1827SOL    HW115395   3.022   1.095   1.310 -0.0549  1.5691  0.5855
 1827SOL    HW215396   3.031   1.180   1.450  2.5838  3.9830 -0.9762
 1828SOL     OW15397   9.302   4.195   2.341 -0.6949  0.4119 -0.2187
 1828SOL    HW115398   9.399   4.219   2.342 -0.7841  0.7996 -0.6968
 1828SOL    HW215399   9.276   4.155   2.429  0.0282 -0.2142 -0.2900
 1829SOL     OW15400   1.819   3.763   2.703  0.6414  0.2190  0.3762
 1829SOL    HW115401   1.809   3.704   2.784 -0.4421 -0.3702 -0.1772
 1829SOL    HW215402   1.745   3.831   2.703  0.2210 -0.2317 -0.4818
 1830SOL     OW15403   4.718   2.758   2.103  0.0728  0.0125  0.0762
 1830SOL    HW115404   4.662   2.754   2.186  1.4395 -1.2541  0.9743
 1830SOL    HW215405   4.703   2.676   2.048  2.0936 -1.0588  1.0577
 1831SOL     OW15406   3.636   4.881   0.428  0.1416 -0.3752 -0.2186
 1831SOL    HW115407   3.632   4.874   0.328 -0.0628 -1.4714 -0.1378
 1831SOL    HW215408   3.731   4.877   0.458  0.3265  1.5426 -0.4667
 1832SOL     OW15409   9.704   5.185   1.179 -0.4869 -0.1062  0.1855
 1832SOL    HW115410   9.784   5.238   1.209 -0.4550 -0.1168  0.1187
 1832SOL    HW215411   9.702   5.182   1.079 -0.2668 -0.5648  0.1924
 1833SOL     OW15412   3.369   1.469   2.658  0.1466 -0.0253  0.2250
 1833SOL    HW115413   3.453   1.502   2.703  0.2226  0.3810 -0.2049
 1833SOL    HW215414   3.376   1.486   2.560 -1.3624  2.0720  0.4396
 1834SOL     OW15415   4.646   0.503   2.265  0.2811  0.4993  0.1495
 1834SOL    HW115416   4.648   0.424   2.204 -0.2967 -0.0254  0.8062
 1834SOL    HW215417   4.724   0.563   2.245  1.0493 -0.5271  0.0493
 1835SOL     OW15418   1.505   4.401   1.943  0.1802  0.1947 -0.3563
 1835SOL    HW115419   1.593   4.428   1.981  0.5754  0.6420 -1.5652
 1835SOL    HW215420   1.514   4.314   1.895 -0.8762 -1.6783  2.6831
 1836SOL     OW15421   0.149   4.672   1.068 -0.1778  0.1504 -0.1274
 1836SOL    HW115422   0.101   4.710   0.988 -0.1013  0.6648  0.0681
 1836SOL    HW215423   0.218   4.606   1.037 -0.7842 -0.3399 -0.4282
 1837SOL     OW15424   2.827   1.008   2.622 -0.1295 -0.5798 -0.4676
 1837SOL    HW115425   2.810   0.967   2.532 -1.3790  1.1486 -1.0687
 1837SOL    HW215426   2.821   0.938   2.693 -4.0983 -1.2078 -1.2728
 1838SOL     OW15427   2.780   3.788   0.318 -0.3778  0.0816 -0.5276
 1838SOL    HW115428   2.800   3.750   0.408 -0.4140 -1.1180 -1.0229
 1838SOL    HW215429   2.836   3.742   0.249 -0.6961  0.6691 -1.1842
 1839SOL     OW15430   2.605   5.307   2.251  0.1020  0.3442 -0.0447
 1839SOL    HW115431   2.655   5.221   2.235 -1.8524 -0.8922  0.3264
 1839SOL    HW215432   2.667   5.375   2.290  1.1702 -1.6207  1.8030
 1840SOL     OW15433   1.403   4.723   0.161  0.2523 -0.6307  0.2094
 1840SOL    HW115434   1.342   4.794   0.195  0.8231  1.5164 -3.0735
 1840SOL    HW215435   1.498   4.749   0.182  0.3486 -1.4666  0.8260
 1841SOL     OW15436   2.082   6.446   1.334 -0.5107 -0.0853 -0.3504
 1841SOL    HW115437   2.121   6.528   1.291  0.8199 -0.8524 -0.6271
 1841SOL    HW215438   2.124   6.433   1.424 -2.1217  0.6105  0.5172
 1842SOL     OW15439   0.188   4.493   1.371  0.0508  0.1758 -0.1291
 1842SOL    HW115440   0.132   4.465   1.294  0.1815  1.7992 -0.8465
 1842SOL    HW215441   0.258   4.424   1.389 -0.9679 -0.9497 -0.4470
 1843SOL     OW15442   1.781   5.519   1.430  0.5569  0.2673 -0.1573
 1843SOL    HW115443   1.734   5.459   1.495  2.3053 -0.4133  0.5043
 1843SOL    HW215444   1.744   5.503   1.338 -0.4449 -0.3059  0.3344
 1844SOL     OW15445   4.976   1.826   0.244 -0.0009  0.0440 -0.4014
 1844SOL    HW115446   4.960   1.894   0.315 -0.2058 -0.4489  0.0324
 1844SOL    HW215447   4.911   1.751   0.254 -2.2408  1.5380 -3.1725
 1845SOL     OW15448   2.532   1.909   0.311 -0.2966  0.0072  0.0767
 1845SOL    HW115449   2.481   1.937   0.230 -0.5572  0.5646  0.4296
 1845SOL    HW215450   2.541   1.809   0.312  0.9506  0.0820 -1.3869
 1846SOL     OW15451   2.871   7.023   2.554 -0.3824  0.0133 -0.3399
 1846SOL    HW115452   2.890   6.928   2.582  2.6788 -0.5367 -3.9101
 1846SOL    HW215453   2.853   7.026   2.456 -1.7439  3.0033 -0.0452
 1847SOL     OW15454   4.089   8.570   0.959  0.1492 -0.0308  0.1259
 1847SOL    HW115455   4.081   8.481   0.915 -1.1386 -1.3569  2.9788
 1847SOL    HW215456   4.174   8.574   1.011  1.9629  1.7525 -2.8301
 1848SOL     OW15457   2.604   5.536   0.576  0.1613  0.7110 -0.0468
 1848SOL    HW115458   2.657   5.598   0.517 -0.3591 -1.0489 -2.4499
 1848SOL    HW215459   2.665   5.464   0.611  0.1197  0.7801  0.1644
 1849SOL     OW15460   1.872   5.312   2.405 -0.2762 -0.5863 -0.0675
 1849SOL    HW115461   1.910   5.385   2.348  1.2227  0.0859  1.7246
 1849SOL    HW215462   1.789   5.344   2.450 -0.2906 -0.4052 -0.2213
 1850SOL     OW15463   4.815   3.267   1.025  0.1141 -0.1354  0.0835
 1850SOL    HW115464   4.904   3.255   0.980  0.0983  0.6592 -0.1562
 1850SOL    HW215465   4.826   3.251   1.124  0.2001 -1.5951 -0.1457
 1851SOL     OW15466   4.114   1.101   2.688 -0.3770 -0.3489  0.5490
 1851SOL    HW115467   4.161   1.077   2.603 -0.1253 -0.0203  0.5946
 1851SOL    HW215468   4.121   1.025   2.753 -0.9528 -0.7715  0.1145
 1852SOL     OW15469   3.516   1.694   1.898  0.0034  0.2133 -0.2743
 1852SOL    HW115470   3.432   1.731   1.858 -0.7509 -0.4971  0.6279
 1852SOL    HW215471   3.503   1.597   1.920  0.5872  0.4270  1.1027
 1853SOL     OW15472   3.224   4.551   1.852 -0.1954 -0.4965  1.0359
 1853SOL    HW115473   3.192   4.503   1.770  2.1474 -0.3023 -0.0238
 1853SOL    HW215474   3.152   4.549   1.922 -2.5147 -0.0112 -1.2685
 1854SOL     OW15475   2.227   6.510   1.602 -0.0171  0.0618  0.2657
 1854SOL    HW115476   2.257   6.451   1.677  0.5624 -1.5252 -1.1728
 1854SOL    HW215477   2.304   6.527   1.540 -0.7926  0.2662 -0.6622
 1855SOL     OW15478   1.952   6.377   0.923 -0.0918 -0.4111  0.3215
 1855SOL    HW115479   1.998   6.326   0.850  0.3205  0.4206 -0.0119
 1855SOL    HW215480   1.960   6.327   1.009 -0.0444 -1.1029 -0.0787
 1856SOL     OW15481   2.483   3.970   2.692  0.1930  0.3556 -0.1995
 1856SOL    HW115482   2.432   3.974   2.777 -0.2290 -0.6358 -0.4013
 1856SOL    HW215483   2.581   3.971   2.711  0.0957 -0.6791  0.3320
 1857SOL     OW15484   4.142   3.360   0.219  0.3615 -0.4000 -0.5056
 1857SOL    HW115485   4.226   3.345   0.167  0.6300 -2.8236  0.5368
 1857SOL    HW215486   4.159   3.428   0.290  1.7441 -1.5382  0.2952
 1858SOL     OW15487   3.602   4.756   1.025  0.0273 -0.4025  0.0458
 1858SOL    HW115488   3.512   4.725   0.995  0.5748 -2.1424  0.1856
 1858SOL    HW215489   3.655   4.786   0.946  0.2630 -1.8457 -0.3507
 1859SOL     OW15490   1.682   4.981   0.972 -0.3587 -0.1607  0.2774
 1859SOL    HW115491   1.729   4.913   0.915 -0.6263 -1.3450  1.4469
 1859SOL    HW215492   1.600   4.940   1.012 -2.0205  1.6639 -1.1545
 1860SOL     OW15493   3.714   2.822   1.770 -0.1332 -0.4700  0.2343
 1860SOL    HW115494   3.747   2.845   1.679 -1.5800  0.0306 -0.1820
 1860SOL    HW215495   3.739   2.895   1.834  0.9708 -0.8710  0.2712
 1861SOL     OW15496   1.253   6.271   0.663  0.2530  0.4515 -0.1261
 1861SOL    HW115497   1.235   6.310   0.753 -0.2258  0.3279 -0.1710
 1861SOL    HW215498   1.183   6.205   0.640  0.2456  0.6521 -0.6894
 1862SOL     OW15499   3.283   1.941   0.823 -0.3444 -0.2229 -0.0070
 1862SOL    HW115500   3.270   1.922   0.921 -0.5922 -2.0775 -0.3803
 1862SOL    HW215501   3.381   1.948   0.803 -0.2319 -1.5068  0.0807
 1863SOL     OW15502   4.187   1.843   0.304  0.5165 -0.0464 -0.3261
 1863SOL    HW115503   4.171   1.870   0.399 -0.0033  0.9728 -0.6899
 1863SOL    HW215504   4.102   1.854   0.252  0.2513 -2.5770 -0.4638
 1864SOL     OW15505   2.730   5.402   0.990  0.0161  0.4722  0.0116
 1864SOL    HW115506   2.812   5.455   1.010 -0.2559  0.9939 -0.2178
 1864SOL    HW215507   2.746   5.343   0.911  1.4455 -2.4240  2.4181
 1865SOL     OW15508   3.341   0.556   2.147 -0.1453  0.0491 -0.2341
 1865SOL    HW115509   3.381   0.484   2.204 -1.7280  1.1877  2.4204
 1865SOL    HW215510   3.394   0.641   2.159  0.4294 -0.0905 -1.6836
 1866SOL     OW15511   3.593   2.763   2.692 -0.0559 -0.0174  0.2318
 1866SOL    HW115512   3.577   2.861   2.684  0.7159 -0.0072 -1.4837
 1866SOL    HW215513   3.679   2.748   2.742  0.7859  0.2564 -1.0902
 1867SOL     OW15514   2.685   7.390   1.637 -0.2442  0.0466  0.1935
 1867SOL    HW115515   2.691   7.483   1.601 -2.2043 -0.1642 -0.7706
 1867SOL    HW215516   2.589   7.369   1.659  0.5699 -0.6791  3.3255
 1868SOL     OW15517   4.746   2.875   0.007 -0.5361  0.6669 -0.4414
 1868SOL    HW115518   4.682   2.892   0.082 -0.0633  0.7795 -0.0644
 1868SOL    HW215519   4.708   2.804  -0.053  0.3964 -1.5559  1.5253
 1869SOL     OW15520   3.896   2.392   2.249  0.8495 -0.1160  0.2137
 1869SOL    HW115521   3.841   2.310   2.231 -0.0641 -0.1924  3.1431
 1869SOL    HW215522   3.983   2.365   2.291  1.0316  0.3473  0.1394
 1870SOL     OW15523   3.019   0.372   0.536  0.4312  0.1791  0.3433
 1870SOL    HW115524   2.940   0.430   0.523  0.2799 -0.0000  0.4650
 1870SOL    HW215525   3.083   0.384   0.459  0.5011  0.6617  0.4772
 1871SOL     OW15526   0.161   4.384   2.181 -0.1126 -0.3096  0.4300
 1871SOL    HW115527   0.104   4.422   2.108  1.9227  0.9006 -0.5634
 1871SOL    HW215528   0.183   4.456   2.247  1.2876 -0.4539  0.1366
 1872SOL     OW15529   1.944   6.243   2.699  0.5108 -0.0167 -0.3869
 1872SOL    HW115530   1.913   6.334   2.671  2.2393  0.9578  0.7701
 1872SOL    HW215531   2.022   6.252   2.761  1.0793 -2.3176 -0.7191
 1873SOL     OW15532   0.980   5.705   2.811  0.1715 -0.1641  0.0754
 1873SOL    HW115533   1.004   5.687   2.907 -0.5927  0.9283  0.4773
 1873SOL    HW215534   0.894   5.755   2.807  0.8293  0.8952 -1.1363
 1874SOL     OW15535   9.274   4.751   1.928  0.1188  0.0257  0.0199
 1874SOL    HW115536   9.252   4.703   2.014  0.7628  0.3562  0.3755
 1874SOL    HW215537   9.222   4.836   1.923 -0.1833 -0.1630 -0.0869
 1875SOL     OW15538   2.444   2.833   1.373 -0.0005  0.1162  0.2766
 1875SOL    HW115539   2.352   2.848   1.337  0.3728  2.1515  0.1405
 1875SOL    HW215540   2.450   2.740   1.410 -1.9876 -0.1650 -0.0472
 1876SOL     OW15541   0.840   3.972   0.561  0.6058  0.1390  0.1392
 1876SOL    HW115542   0.784   4.036   0.509 -0.0535  0.5877  1.3865
 1876SOL    HW215543   0.912   3.935   0.502 -1.0971 -0.5787 -1.5458
 1877SOL     OW15544   3.581   3.388   1.491 -0.3194 -0.4169 -0.0218
 1877SOL    HW115545   3.636   3.351   1.416 -1.5165  1.3204 -1.7712
 1877SOL    HW215546   3.631   3.463   1.535 -0.6365  0.1427 -0.6178
 1878SOL     OW15547   2.695   2.923   1.441 -0.0156  0.0982  0.6687
 1878SOL    HW115548   2.733   3.003   1.396  0.0284 -1.9346 -3.1053
 1878SOL    HW215549   2.596   2.923   1.431  0.0846 -0.9128 -0.4488
 1879SOL     OW15550   0.196   5.051   2.053  0.3486 -0.1232  0.4228
 1879SOL    HW115551   0.268   5.072   1.988  0.8191 -1.0527  0.6382
 1879SOL    HW215552   0.145   5.134   2.074  1.1396  0.4702  0.0183
 1880SOL     OW15553   4.191   9.119   0.113  0.6932 -0.2830  0.1066
 1880SOL    HW115554   4.107   9.144   0.063 -0.3770  0.3288  2.1663
 1880SOL    HW215555   4.243   9.201   0.133  1.0718 -0.5203  0.0927
 1881SOL     OW15556   3.041   5.656   0.439 -0.0767  0.4003 -0.1877
 1881SOL    HW115557   3.126   5.613   0.410  0.5057  1.6886 -0.4666
 1881SOL    HW215558   2.980   5.588   0.480  0.2678 -0.8898 -1.8108
 1882SOL     OW15559   5.083   4.028   0.520 -0.2262  0.0474  0.1224
 1882SOL    HW115560   5.050   4.118   0.490  0.6146  0.3762  0.1604
 1882SOL    HW215561   5.146   3.991   0.452  0.3755  0.0359  0.6774
 1883SOL     OW15562   3.420   2.278   0.443 -0.3767  0.2741  0.0466
 1883SOL    HW115563   3.485   2.323   0.383  0.0170  0.3310  0.5147
 1883SOL    HW215564   3.344   2.340   0.463  0.9183  1.2918  1.9195
 1884SOL     OW15565   2.558   4.905   1.570 -0.2819  0.4661  0.4940
 1884SOL    HW115566   2.647   4.944   1.598 -0.1074 -0.3596  1.1191
 1884SOL    HW215567   2.545   4.919   1.472  1.1202 -0.5278  0.1461
 1885SOL     OW15568   3.090   9.990   1.223 -0.1253 -0.7543  0.4626
 1885SOL    HW115569   3.082   9.956   1.130  2.8159  0.3046 -0.2421
 1885SOL    HW215570   3.140  10.077   1.223  0.6203 -1.1245  3.0941
 1886SOL     OW15571   0.384   5.666   2.737  0.0140  0.3322 -0.0111
 1886SOL    HW115572   0.297   5.678   2.784  0.2392  1.4121  0.1263
 1886SOL    HW215573   0.450   5.624   2.799 -0.4194 -0.5548 -0.1369
 1887SOL     OW15574   2.685   0.050   1.902 -0.1014  0.3358  0.1821
 1887SOL    HW115575   2.698  -0.021   1.971  0.2763  1.3313  1.1605
 1887SOL    HW215576   2.755   0.042   1.831  0.5157  0.2976  0.7885
 1888SOL     OW15577   3.184   6.229   0.340  0.4682 -0.2910  0.3102
 1888SOL    HW115578   3.253   6.166   0.304  1.1814  0.5772  0.1388
 1888SOL    HW215579   3.218   6.323   0.334 -1.2399  0.2692 -0.9063
 1889SOL     OW15580   2.417   4.849   2.815  0.0784  0.2453  0.2766
 1889SOL    HW115581   2.417   4.925   2.880 -0.9176  0.2930  0.2337
 1889SOL    HW215582   2.325   4.837   2.778  0.8424  0.8608 -1.9056
 1890SOL     OW15583   1.675   3.682   1.146 -0.1108 -0.5090  0.7155
 1890SOL    HW115584   1.658   3.729   1.233  0.5702  0.2117  0.4655
 1890SOL    HW215585   1.615   3.720   1.076 -0.0982 -0.5379  0.6890
 1891SOL     OW15586   4.242   0.610   1.815  0.3127  0.4651  0.6061
 1891SOL    HW115587   4.188   0.538   1.859 -1.0706  1.5287  0.6668
 1891SOL    HW215588   4.303   0.651   1.882 -2.5880  2.8495  1.8987
 1892SOL     OW15589   2.552   2.952   0.602 -0.3236  0.0531  0.7066
 1892SOL    HW115590   2.547   2.890   0.524 -2.7176  0.9696  0.0850
 1892SOL    HW215591   2.569   3.045   0.568 -0.0932  0.2493  1.3668
 1893SOL     OW15592   2.897   5.946   0.012 -0.0592 -0.6116  0.0940
 1893SOL    HW115593   2.987   5.918   0.046 -0.7319 -0.5263  1.9688
 1893SOL    HW215594   2.882   6.042   0.035  0.1951 -0.0309 -2.0207
 1894SOL     OW15595   1.629   4.802   2.132  0.0627 -0.3060  0.1147
 1894SOL    HW115596   1.551   4.818   2.072  0.4700  0.4164 -0.2295
 1894SOL    HW215597   1.628   4.868   2.207  1.5961  1.2145 -1.1626
 1895SOL     OW15598   2.403   5.184   1.654  0.4082  0.2366 -0.2059
 1895SOL    HW115599   2.333   5.256   1.660 -0.7197 -0.9232  0.7830
 1895SOL    HW215600   2.415   5.158   1.558 -2.0586 -1.0046 -0.2249
 1896SOL     OW15601   4.175   3.623   0.345 -0.0327  0.4163 -0.5035
 1896SOL    HW115602   4.191   3.719   0.320  1.9441  0.1384 -0.3790
 1896SOL    HW215603   4.140   3.619   0.439 -0.8609  1.0515 -0.7755
 1897SOL     OW15604   3.106   6.797   1.789  0.0230  0.4043 -1.0089
 1897SOL    HW115605   3.055   6.856   1.851 -1.5002 -0.9140 -0.9941
 1897SOL    HW215606   3.164   6.735   1.842 -1.4079 -0.8391 -0.8855
 1898SOL     OW15607   1.387   5.969   2.299 -0.3888 -0.6695 -0.7418
 1898SOL    HW115608   1.428   5.936   2.214 -1.0426 -0.6594 -1.0641
 1898SOL    HW215609   1.441   6.046   2.333 -0.5143 -0.2337 -1.5096
 1899SOL     OW15610   3.239   0.227   1.198  0.0453  0.7177  0.3990
 1899SOL    HW115611   3.202   0.317   1.176  1.1887  1.2992  0.7855
 1899SOL    HW215612   3.304   0.236   1.273 -0.2622 -0.5235  0.8274
 1900SOL     OW15613   4.090   5.280   2.721  0.2672 -0.6323  0.3288
 1900SOL    HW115614   4.025   5.345   2.680 -0.5632 -2.0053 -0.5821
 1900SOL    HW215615   4.098   5.200   2.662  1.6276 -1.1703  1.2185
 1901SOL     OW15616   1.330   3.706   2.491  0.2114  0.2902  0.1901
 1901SOL    HW115617   1.400   3.777   2.490 -0.1291  0.6750  1.8869
 1901SOL    HW215618   1.241   3.745   2.466  0.2986  0.1296 -0.3891
 1902SOL     OW15619   4.105   3.138   1.421 -0.1808  0.0508  0.7608
 1902SOL    HW115620   4.119   3.040   1.409 -2.1647 -0.0489 -0.9919
 1902SOL    HW215621   4.039   3.154   1.495 -1.1079 -0.0033 -0.0529
 1903SOL     OW15622   3.211   0.525   1.617  0.1388 -0.8794  0.1370
 1903SOL    HW115623   3.209   0.438   1.666 -0.9560 -0.1001  1.5086
 1903SOL    HW215624   3.118   0.561   1.609  0.5437 -0.0070 -0.7306
 1904SOL     OW15625   3.914   0.720   1.762 -0.0906  0.1501  0.1430
 1904SOL    HW115626   3.921   0.753   1.668  1.3287  0.6526  0.4101
 1904SOL    HW215627   4.006   0.709   1.800 -0.6761  0.7445  1.7496
 1905SOL     OW15628   1.294   5.354   2.766  0.0551  0.1948 -0.2187
 1905SOL    HW115629   1.365   5.332   2.699  1.4395 -2.3398  1.9679
 1905SOL    HW215630   1.333   5.410   2.839 -0.5194 -0.1824  0.3792
 1906SOL     OW15631   3.348   6.322   1.908 -0.2595  0.3095  0.5274
 1906SOL    HW115632   3.391   6.293   1.994 -0.7171  1.4121  1.1393
 1906SOL    HW215633   3.407   6.388   1.862 -1.1812  1.6856  1.2781
 1907SOL     OW15634   3.221   7.355   1.798  0.0281  0.1610  0.0065
 1907SOL    HW115635   3.291   7.392   1.737 -0.1430  0.3891 -0.0534
 1907SOL    HW215636   3.153   7.426   1.817  0.1355  0.1253  0.5393
 1908SOL     OW15637   3.589   2.715   1.506  0.4753 -0.0558  0.2177
 1908SOL    HW115638   3.682   2.746   1.482  0.5701 -0.7688 -0.3463
 1908SOL    HW215639   3.527   2.793   1.504  0.7185  0.1094 -1.1718
 1909SOL     OW15640   3.953   2.866   1.192  0.2257 -0.5501 -0.2705
 1909SOL    HW115641   3.889   2.906   1.257 -0.3243 -1.5311 -0.2087
 1909SOL    HW215642   4.021   2.812   1.241 -0.0837 -1.1429 -0.4878
 1910SOL     OW15643   2.776   2.990   2.761 -0.3866 -0.2456 -0.1785
 1910SOL    HW115644   2.799   3.048   2.682 -2.6700 -0.3095 -0.9277
 1910SOL    HW215645   2.814   2.899   2.748  0.3441  0.1124 -0.5893
 1911SOL     OW15646   3.898   4.557   2.581 -0.5105  0.5782 -0.3894
 1911SOL    HW115647   3.933   4.644   2.615  0.9001 -0.1322 -0.0067
 1911SOL    HW215648   3.970   4.508   2.532 -1.9132  0.6047 -2.5574
 1912SOL     OW15649   2.792   4.644   2.752 -0.6552 -0.7068 -0.6087
 1912SOL    HW115650   2.733   4.715   2.712 -1.6261 -0.9443  0.3800
 1912SOL    HW215651   2.817   4.670   2.845 -2.1161 -2.2887  0.2455
 1913SOL     OW15652   1.672   5.588   0.774  0.3013 -0.5289  0.1552
 1913SOL    HW115653   1.723   5.672   0.795  2.0908 -1.8383  1.2126
 1913SOL    HW215654   1.734   5.520   0.735 -1.4079 -0.9198 -1.9611
 1914SOL     OW15655   3.219   9.955   0.016  0.3512 -0.1454 -0.2206
 1914SOL    HW115656   3.201   9.900  -0.066 -1.2436 -1.0211  0.6875
 1914SOL    HW215657   3.132   9.976   0.061  1.3723 -2.2309  2.8971
 1915SOL     OW15658   1.265   5.002   1.500  0.0792 -0.3994  0.7712
 1915SOL    HW115659   1.304   4.910   1.489 -1.2052 -0.9215  0.4959
 1915SOL    HW215660   1.224   5.031   1.413 -2.0669 -0.7663  1.6324
 1916SOL     OW15661   1.394   6.486   1.542  0.3996 -0.2683  0.0754
 1916SOL    HW115662   1.456   6.460   1.616 -0.2928 -0.6625  0.5259
 1916SOL    HW215663   1.427   6.448   1.456  0.7708 -0.4963  0.3170
 1917SOL     OW15664   2.421   2.223   1.080 -0.4810  0.3504  0.2017
 1917SOL    HW115665   2.511   2.226   1.035 -0.6181 -2.0686 -0.2854
 1917SOL    HW215666   2.432   2.190   1.174 -1.1312 -2.3469 -0.6507
 1918SOL     OW15667   3.268   7.837   0.852 -0.5866  0.0714 -0.0103
 1918SOL    HW115668   3.233   7.864   0.762  1.6152 -0.7801 -1.1598
 1918SOL    HW215669   3.323   7.912   0.889 -1.8366  0.5873  0.8556
 1919SOL     OW15670   3.209   5.035   1.675  0.1036 -0.7712  0.7188
 1919SOL    HW115671   3.243   4.944   1.699 -2.5970 -2.3122 -0.9611
 1919SOL    HW215672   3.113   5.043   1.703 -0.0316  1.1235 -0.2007
 1920SOL     OW15673   3.037   4.187   2.182 -0.3811  0.6905 -0.2467
 1920SOL    HW115674   2.981   4.104   2.183  1.5120 -0.6531  3.7793
 1920SOL    HW215675   3.078   4.198   2.092 -0.0986 -3.1422 -0.6638
 1921SOL     OW15676   3.139   3.470   2.820  0.3366  0.3831 -0.1654
 1921SOL    HW115677   3.224   3.472   2.768  1.0145 -1.6714  0.8178
 1921SOL    HW215678   3.157   3.497   2.915 -0.7482  3.3013 -0.7277
 1922SOL     OW15679   3.839   0.481   2.229  0.2611  0.0130  0.5946
 1922SOL    HW115680   3.883   0.404   2.274  0.7139  0.3403  0.7137
 1922SOL    HW215681   3.817   0.552   2.296  3.3319  1.6547 -0.0210
 1923SOL     OW15682   2.468   5.855   1.693  0.6449 -0.3808 -0.2420
 1923SOL    HW115683   2.537   5.896   1.634  1.1144  0.2726  0.7467
 1923SOL    HW215684   2.462   5.757   1.676  1.5375 -0.3695 -0.6080
 1924SOL     OW15685   2.802   3.310   2.228  0.3977  0.8973 -0.3354
 1924SOL    HW115686   2.807   3.322   2.129 -0.3516  1.1025 -0.3524
 1924SOL    HW215687   2.784   3.398   2.272 -2.5969  0.3248 -0.2759
 1925SOL     OW15688   2.694   1.440   2.312  0.7697  0.6438 -0.6439
 1925SOL    HW115689   2.627   1.446   2.387  1.3365  1.7692 -0.2268
 1925SOL    HW215690   2.707   1.344   2.287  0.0384  0.3161  0.2169
 1926SOL     OW15691   1.245   3.591   1.263 -0.5734 -0.0004 -0.1828
 1926SOL    HW115692   1.261   3.571   1.360 -1.1449  0.6435  0.0475
 1926SOL    HW215693   1.266   3.687   1.244  0.3543 -0.3362 -0.8856
 1927SOL     OW15694   2.515   4.245   0.311 -0.3718  0.2661  0.4368
 1927SOL    HW115695   2.559   4.220   0.224  0.9818  1.9452  0.6107
 1927SOL    HW215696   2.420   4.271   0.293 -0.3026 -0.0477 -0.4491
 1928SOL     OW15697   2.221   2.981   0.298  0.4552  0.1614  0.0194
 1928SOL    HW115698   2.220   2.988   0.198  1.4524  0.9092  0.0574
 1928SOL    HW215699   2.138   2.934   0.329  0.8964 -1.4993 -1.2584
 1929SOL     OW15700   4.705   2.374   2.662  0.2903  0.1138  0.0478
 1929SOL    HW115701   4.737   2.281   2.681  3.9933  0.6965 -2.7916
 1929SOL    HW215702   4.627   2.371   2.599  1.2668 -1.0386 -1.1194
 1930SOL     OW15703   3.719   0.496   1.636 -0.3918 -0.1273  0.5223
 1930SOL    HW115704   3.694   0.448   1.720  0.3267 -0.2063  0.6971
 1930SOL    HW215705   3.769   0.579   1.660 -1.4103  0.5838  0.2144
 1931SOL     OW15706   0.101   5.013   1.129 -0.7450 -0.2028  0.1809
 1931SOL    HW115707   0.024   4.949   1.137 -0.3195 -0.6947  0.3601
 1931SOL    HW215708   0.186   4.962   1.123 -0.4051  0.3488  0.2737
 1932SOL     OW15709   9.514   4.915   2.167 -0.8161  0.1832  0.4392
 1932SOL    HW115710   9.449   4.861   2.114 -2.1140  1.8623  0.3007
 1932SOL    HW215711   9.607   4.898   2.132 -1.6152  1.1192 -2.2768
 1933SOL     OW15712   4.331   1.356   1.931  0.1720 -0.0510 -0.0249
 1933SOL    HW115713   4.386   1.398   2.003 -0.4903  0.8067 -0.0175
 1933SOL    HW215714   4.253   1.415   1.909 -0.3840 -0.9430 -0.4956
 1934SOL     OW15715   3.596   0.069   0.426  0.2566  0.2109  0.0921
 1934SOL    HW115716   3.639   0.018   0.500 -0.2080  0.8550  0.8146
 1934SOL    HW215717   3.516   0.119   0.461  2.5588  4.0408  0.1573
 1935SOL     OW15718   1.291   5.837   1.346 -0.0460 -0.3321  0.6334
 1935SOL    HW115719   1.217   5.798   1.402  0.8147 -1.3936  1.0588
 1935SOL    HW215720   1.255   5.912   1.291 -1.4120 -0.7397  0.9425
 1936SOL     OW15721   9.910   4.182   0.036  0.2096 -0.6739 -0.1274
 1936SOL    HW115722   9.893   4.105   0.098  0.0557  1.3170  2.4074
 1936SOL    HW215723   9.824   4.208  -0.009 -0.1361 -0.8040  0.4470
 1937SOL     OW15724   4.560   2.126   1.385  0.7821 -0.3506  0.2040
 1937SOL    HW115725   4.566   2.042   1.440 -0.0943 -0.3150  0.3555
 1937SOL    HW215726   4.482   2.180   1.415 -0.9040 -1.2724 -2.4197
 1938SOL     OW15727   3.856   0.181   2.047 -0.4928 -0.3708  0.2325
 1938SOL    HW115728   3.844   0.169   1.949 -0.7751  2.6251 -0.1504
 1938SOL    HW215729   3.771   0.215   2.087 -0.6654 -2.4621  1.6815
 1939SOL     OW15730   2.136   2.388   2.585  0.1733 -0.1579 -0.0017
 1939SOL    HW115731   2.187   2.311   2.546  0.0769 -0.5413  0.6211
 1939SOL    HW215732   2.042   2.388   2.551  0.5275  0.4420 -1.0096
 1940SOL     OW15733   2.315   5.758   0.457  0.0583 -0.1238 -0.3907
 1940SOL    HW115734   2.218   5.747   0.435  0.0015 -2.5140  0.8698
 1940SOL    HW215735   2.327   5.756   0.556  1.4554 -0.6409 -0.5552
 1941SOL     OW15736   3.339   0.001   1.588 -0.7091 -0.2053 -0.1621
 1941SOL    HW115737   3.395  -0.068   1.543  0.2956  0.6371 -0.2235
 1941SOL    HW215738   3.244  -0.030   1.592 -0.1106 -1.9587  0.5848
 1942SOL     OW15739   3.065   5.565   2.143  0.1849  0.0431  0.3656
 1942SOL    HW115740   3.092   5.661   2.145  3.2340 -0.7604  0.6047
 1942SOL    HW215741   3.014   5.546   2.059  1.6470  1.3469 -0.8351
 1943SOL     OW15742   3.913   9.441   2.719 -0.4581  0.2868  0.0875
 1943SOL    HW115743   3.890   9.504   2.793 -2.7220 -0.4651  0.0726
 1943SOL    HW215744   3.967   9.488   2.650 -1.1474  1.9005  0.6239
 1944SOL     OW15745   9.893   3.987   1.464 -0.4419 -0.0205  0.6020
 1944SOL    HW115746   9.887   4.007   1.366  0.3684 -2.4311  0.0341
 1944SOL    HW215747   9.948   4.058   1.509  0.2093  0.4382 -0.8799
 1945SOL     OW15748   2.336   5.163   0.750  0.5649 -0.0019  0.4293
 1945SOL    HW115749   2.330   5.263   0.740  2.2636 -0.0928 -1.7647
 1945SOL    HW215750   2.428   5.138   0.778  0.3629 -1.0317  0.1927
 1946SOL     OW15751   0.756   5.856   2.789  0.1171  0.3837  0.5413
 1946SOL    HW115752   0.722   5.850   2.883  0.3174  1.5780  0.7057
 1946SOL    HW215753   0.793   5.948   2.773  0.5360  0.0359 -0.5550
 1947SOL     OW15754   3.076   6.350   1.803  0.9711  0.3909  1.1887
 1947SOL    HW115755   3.173   6.344   1.827  1.3170  2.3156  0.3894
 1947SOL    HW215756   3.026   6.396   1.876  0.2086 -2.5530  2.6201
 1948SOL     OW15757   2.761   5.885   1.262 -0.8301  0.0647 -0.2417
 1948SOL    HW115758   2.692   5.845   1.201 -1.4684  2.3783 -1.0818
 1948SOL    HW215759   2.804   5.962   1.217 -2.6364  3.0536  2.9277
 1949SOL     OW15760   9.974   4.778   1.266 -0.6232 -0.6199  0.3488
 1949SOL    HW115761  10.042   4.713   1.231 -0.8718 -0.7147  0.0442
 1949SOL    HW215762   9.997   4.801   1.361  0.2853 -0.0400 -0.0073
 1950SOL     OW15763   2.125   2.949   1.869 -0.3384  0.3791 -0.1690
 1950SOL    HW115764   2.067   2.877   1.832  0.5845 -0.1017 -0.6826
 1950SOL    HW215765   2.078   3.037   1.861 -0.7222  0.0851 -1.1843
 1951SOL     OW15766   1.895   5.747   0.640  0.2255  0.3578  0.2657
 1951SOL    HW115767   1.859   5.838   0.620  0.9957  0.3547 -1.2205
 1951SOL    HW215768   1.874   5.686   0.564 -1.7672 -1.1622  1.9707
 1952SOL     OW15769   2.549   3.796   0.688 -0.2764 -0.3712  0.5367
 1952SOL    HW115770   2.464   3.786   0.636 -1.5163  1.0208  2.2613
 1952SOL    HW215771   2.566   3.892   0.708  1.6732 -0.6353  0.3264
 1953SOL     OW15772   3.088   0.806   0.549 -0.0988  0.0074 -0.2116
 1953SOL    HW115773   2.997   0.773   0.574 -0.2861  0.8781  0.2912
 1953SOL    HW215774   3.157   0.749   0.594 -0.3641 -1.3365 -1.4681
 1954SOL     OW15775   4.031   2.159   1.941 -0.1561  0.1968  0.2530
 1954SOL    HW115776   4.043   2.243   1.889 -1.9759  0.1340 -0.2871
 1954SOL    HW215777   4.116   2.106   1.938 -0.4429 -0.1650 -3.3220
 1955SOL     OW15778   3.863   8.386   1.771 -0.3238  0.2719 -0.0683
 1955SOL    HW115779   3.841   8.483   1.757 -1.0549  0.7593  3.8080
 1955SOL    HW215780   3.821   8.355   1.856  1.4460 -2.9893 -0.3154
 1956SOL     OW15781   2.377   1.749   2.111 -0.4378  0.0135 -0.0750
 1956SOL    HW115782   2.358   1.754   2.013  0.2024 -1.9789 -0.3146
 1956SOL    HW215783   2.475   1.764   2.127 -0.4000 -0.4748  0.1731
 1957SOL     OW15784   4.977   3.708   1.167  0.1383  0.2046 -0.2852
 1957SOL    HW115785   4.955   3.740   1.075  2.0380  0.6621 -0.5991
 1957SOL    HW215786   5.058   3.756   1.201  0.1224 -0.7702  1.1822
 1958SOL     OW15787   3.446   0.468   2.597 -0.4292 -0.1084 -0.2638
 1958SOL    HW115788   3.454   0.564   2.622 -2.4005 -0.4063  1.7634
 1958SOL    HW215789   3.353   0.436   2.618  0.3420 -2.5721 -0.4154
 1959SOL     OW15790   2.818   1.652   0.223 -0.1969 -0.3244  0.3338
 1959SOL    HW115791   2.814   1.621   0.128  1.4031 -0.7509  0.3911
 1959SOL    HW215792   2.905   1.698   0.239 -0.5697 -0.0244  1.5233
 1960SOL     OW15793   2.465   3.371   2.559 -0.3388 -0.3422  0.1513
 1960SOL    HW115794   2.454   3.421   2.473  1.3124 -0.7047 -0.2937
 1960SOL    HW215795   2.422   3.423   2.633 -3.1580 -0.7571 -1.0975
 1961SOL     OW15796   1.210   4.355   1.221  0.0900 -0.3396  0.0216
 1961SOL    HW115797   1.177   4.269   1.258  0.8426 -1.3167 -1.5561
 1961SOL    HW215798   1.188   4.361   1.124  0.4603  1.0472  0.0066
 1962SOL     OW15799   3.847   2.440   1.813  0.2590  0.6071  0.0471
 1962SOL    HW115800   3.861   2.470   1.907 -0.0695 -0.2464  0.3706
 1962SOL    HW215801   3.759   2.394   1.805  2.0250 -2.9770  0.2697
 1963SOL     OW15802   3.165   4.134   0.538 -0.1437  0.4330  0.5028
 1963SOL    HW115803   3.198   4.132   0.444  0.3036  0.9049  0.6510
 1963SOL    HW215804   3.188   4.221   0.581 -0.2196  0.1681  1.0958
 1964SOL     OW15805   1.549   6.095   1.316  0.0765 -0.1576 -0.3704
 1964SOL    HW115806   1.625   6.095   1.251  1.4401  0.8085  1.1539
 1964SOL    HW215807   1.585   6.117   1.407 -2.2191  1.3986  0.1856
 1965SOL     OW15808   2.955   3.578   1.840  0.3110 -0.1183  0.0389
 1965SOL    HW115809   2.955   3.563   1.741  0.2368  0.5625 -0.0710
 1965SOL    HW215810   2.960   3.676   1.858  1.2617 -0.2847  0.7177
 1966SOL     OW15811   3.393   9.369   1.273 -0.6893  0.8703 -0.3893
 1966SOL    HW115812   3.455   9.360   1.195 -2.3106 -0.4178 -1.5702
 1966SOL    HW215813   3.364   9.464   1.283  0.0785  1.1627 -0.9175
 1967SOL     OW15814   1.827   4.073   2.772 -0.5625  0.5669 -0.1319
 1967SOL    HW115815   1.747   4.027   2.735 -0.3615 -0.1087  0.2716
 1967SOL    HW215816   1.814   4.172   2.764 -1.6614  0.4793  0.3939
 1968SOL     OW15817   3.897   2.307   0.463  0.2630  0.2450  0.1482
 1968SOL    HW115818   3.863   2.265   0.547  0.3409 -0.5967 -0.2364
 1968SOL    HW215819   3.954   2.386   0.486 -1.3056  1.2102  0.8196
 1969SOL     OW15820   3.455   4.161   2.530 -0.2141 -0.5741 -0.7058
 1969SOL    HW115821   3.387   4.235   2.525  1.0518  0.5048 -4.0822
 1969SOL    HW215822   3.535   4.193   2.581 -0.3616 -0.1688 -0.7251
 1970SOL     OW15823   1.594   5.070   0.007 -0.8357  0.3738  0.0150
 1970SOL    HW115824   1.510   5.057   0.059  1.3432 -1.4246  3.3168
 1970SOL    HW215825   1.638   5.156   0.035 -1.2264  0.9906 -1.2269
 1971SOL     OW15826   5.158   2.877   1.947  0.1229 -0.0639 -0.0901
 1971SOL    HW115827   5.064   2.909   1.942 -0.1442 -0.9342 -0.6614
 1971SOL    HW215828   5.170   2.822   2.030 -0.1562 -0.8627 -0.5761
 1972SOL     OW15829   2.607   7.085   2.684 -0.2328  0.1448 -0.9614
 1972SOL    HW115830   2.563   7.109   2.598  1.6868  0.2733 -1.9102
 1972SOL    HW215831   2.705   7.070   2.670 -0.1612 -1.3852  0.8958
 1973SOL     OW15832   2.757   0.525   0.418 -0.7938 -0.9011 -0.2590
 1973SOL    HW115833   2.718   0.436   0.395 -1.4010 -0.1764 -2.1997
 1973SOL    HW215834   2.775   0.576   0.333  1.6702 -0.0710  0.7269
 1974SOL     OW15835   3.680   3.808   1.065  0.1729 -0.1394  0.3110
 1974SOL    HW115836   3.645   3.752   1.141  1.4035 -0.8011  0.4043
 1974SOL    HW215837   3.604   3.833   1.005 -0.3755 -2.2028  0.0808
 1975SOL     OW15838   3.422   4.571   0.041  0.0281 -0.4345 -0.2650
 1975SOL    HW115839   3.447   4.477   0.019 -0.8596 -1.0847  1.4450
 1975SOL    HW215840   3.474   4.602   0.121  0.4733  0.6010 -0.9491
 1976SOL     OW15841   4.684   1.240   0.225  0.5192 -0.0881 -0.1380
 1976SOL    HW115842   4.660   1.173   0.295  1.0125 -0.7817 -0.6216
 1976SOL    HW215843   4.668   1.200   0.134  1.8780  0.0372 -0.4383
 1977SOL     OW15844   2.402   2.505   0.129 -0.3031  0.7695  0.4758
 1977SOL    HW115845   2.413   2.430   0.063 -0.9647  0.1935  1.0176
 1977SOL    HW215846   2.318   2.492   0.181  0.4871  0.9244  1.8180
 1978SOL     OW15847   3.117   5.631   0.003  0.1983 -0.1908  0.8686
 1978SOL    HW115848   3.138   5.726   0.025  0.0320 -0.4643  2.2492
 1978SOL    HW215849   3.100   5.580   0.087  0.6386 -1.5274  0.1744
 1979SOL     OW15850   5.260   3.511   1.655 -0.6660  0.4059  0.6495
 1979SOL    HW115851   5.308   3.551   1.576  0.0876  0.8217  1.3134
 1979SOL    HW215852   5.170   3.552   1.664 -1.4000 -0.8009 -0.9688
 1980SOL     OW15853   3.259   1.126   2.288 -0.2092 -0.0748 -0.5007
 1980SOL    HW115854   3.295   1.044   2.332  0.8531  0.2442 -0.7487
 1980SOL    HW215855   3.188   1.167   2.345  0.0453 -0.5450  0.1528
 1981SOL     OW15856   2.964   4.770   1.755 -0.1410  0.3435 -0.2076
 1981SOL    HW115857   3.015   4.784   1.840 -0.5113 -3.6292  0.8174
 1981SOL    HW215858   3.019   4.798   1.677  3.0470 -2.2653  0.9764
 1982SOL     OW15859   4.964   3.549   1.629  0.3371  0.0497 -0.1203
 1982SOL    HW115860   4.900   3.613   1.673  0.3233 -1.3303  1.8859
 1982SOL    HW215861   4.943   3.545   1.531 -0.4371  2.2024 -0.0804
 1983SOL     OW15862   3.814   0.542   0.133  0.4593 -0.5246 -0.2116
 1983SOL    HW115863   3.783   0.536   0.228  0.7391  0.8874 -0.0309
 1983SOL    HW215864   3.897   0.487   0.122  0.8649 -0.0647  0.5381
 1984SOL     OW15865   3.457   8.937   2.002  0.6804 -0.0244 -0.5603
 1984SOL    HW115866   3.494   8.980   2.084 -0.0216 -0.8365  0.2090
 1984SOL    HW215867   3.497   8.978   1.920 -1.8707  3.9032  0.0239
 1985SOL     OW15868   5.013   3.508   1.342  0.7075  0.2666  0.2085
 1985SOL    HW115869   5.112   3.500   1.336  0.6355  0.4708 -1.4808
 1985SOL    HW215870   4.982   3.580   1.280 -0.6983 -1.1599 -0.7574
 1986SOL     OW15871   1.811   5.626   2.690 -0.2539 -0.6204 -0.2350
 1986SOL    HW115872   1.887   5.617   2.625  0.4460 -0.0907  0.5033
 1986SOL    HW215873   1.725   5.631   2.640  0.2105 -1.0417 -1.0907
 1987SOL     OW15874   4.693   9.253   2.357 -0.2917 -0.0111  0.2108
 1987SOL    HW115875   4.786   9.283   2.374 -1.1594  2.2030  1.2538
 1987SOL    HW215876   4.661   9.198   2.435 -0.3024  0.3085  0.4305
 1988SOL     OW15877   1.611   5.319   2.644 -0.0974 -0.1020  0.3705
 1988SOL    HW115878   1.642   5.297   2.736  0.6678  0.5074  0.2623
 1988SOL    HW215879   1.614   5.418   2.630 -1.8216 -0.0426  0.2546
 1989SOL     OW15880   8.988   5.786   0.247  0.7549 -0.2523  0.2437
 1989SOL    HW115881   9.047   5.742   0.179 -0.2596 -0.0902 -0.7569
 1989SOL    HW215882   9.045   5.828   0.318  1.8955  0.6329 -1.1471
 1990SOL     OW15883   2.737   1.651   1.761 -0.1357  0.8015  0.2608
 1990SOL    HW115884   2.727   1.564   1.714 -2.7365  0.5820  1.1000
 1990SOL    HW215885   2.732   1.636   1.860 -2.9714  2.0836  0.3754
 1991SOL     OW15886   0.172   5.214   0.889 -0.0811 -0.8655 -0.1673
 1991SOL    HW115887   0.115   5.241   0.966  3.7804  0.8580  2.2326
 1991SOL    HW215888   0.204   5.120   0.902  0.5425 -0.5863  0.3659
 1992SOL     OW15889   2.056   1.672   1.931 -0.1237  0.2634  0.0058
 1992SOL    HW115890   2.010   1.715   1.853 -0.1518 -1.0188 -0.7067
 1992SOL    HW215891   2.154   1.693   1.928  0.0055 -0.4155 -0.8290
 1993SOL     OW15892   2.712   4.762   0.192 -0.1663 -0.1493  0.3159
 1993SOL    HW115893   2.708   4.666   0.222 -0.0858  0.4573  2.3298
 1993SOL    HW215894   2.625   4.788   0.153 -0.8206 -0.5259  1.4827
 1994SOL     OW15895   2.754   6.172   1.699 -0.0987  0.1471 -0.0892
 1994SOL    HW115896   2.764   6.117   1.782 -1.8238 -0.1946 -0.1002
 1994SOL    HW215897   2.703   6.255   1.720  0.4078  0.5959 -0.5914
 1995SOL     OW15898   3.088   1.023   0.985 -0.1161 -0.0154  0.3349
 1995SOL    HW115899   3.014   1.057   1.042 -0.5014 -1.5781  0.8062
 1995SOL    HW215900   3.059   1.023   0.889 -0.2704  0.5376  0.3801
 1996SOL     OW15901   3.421   2.673   1.968 -0.1646 -0.1917  0.4557
 1996SOL    HW115902   3.344   2.611   1.978 -0.2795 -0.3904 -1.4915
 1996SOL    HW215903   3.390   2.768   1.980 -1.0848 -0.1404 -2.0771
 1997SOL     OW15904   1.841   2.780   2.055  0.4235  0.2630  0.1884
 1997SOL    HW115905   1.767   2.832   2.098 -0.9149 -0.8703 -0.7119
 1997SOL    HW215906   1.902   2.744   2.126  0.8950  2.3091  0.8697
 1998SOL     OW15907   0.472   4.112   0.698  0.1957 -0.1017 -0.8280
 1998SOL    HW115908   0.515   4.109   0.788 -1.2284 -0.4785 -0.1478
 1998SOL    HW215909   0.490   4.026   0.650 -0.6096 -0.6637 -0.1496
 1999SOL     OW15910   2.094   6.810   2.016 -0.4336 -0.0333  0.2341
 1999SOL    HW115911   2.073   6.862   2.099 -1.0254  1.5532 -0.8756
 1999SOL    HW215912   2.034   6.730   2.010 -0.1839 -0.3188  1.4706
 2000SOL     OW15913   2.891   0.765   1.303  0.6573  0.1333 -0.4260
 2000SOL    HW115914   2.973   0.815   1.276 -1.4661  3.0237 -1.7844
 2000SOL    HW215915   2.862   0.705   1.229  0.9231 -0.0454 -0.3829
 2001SOL     OW15916   3.527   3.931   1.374  0.0099 -0.1447 -0.2309
 2001SOL    HW115917   3.551   3.839   1.345 -0.6586 -1.4907  3.1745
 2001SOL    HW215918   3.432   3.951   1.349 -0.5046 -1.2048  0.8459
 2002SOL     OW15919   3.417   3.709   0.094 -0.0191  0.4433  0.5153
 2002SOL    HW115920   3.380   3.740   0.181  0.4041  2.7811 -0.0794
 2002SOL    HW215921   3.490   3.771   0.065  0.4726 -0.8259 -1.0501
 2003SOL     OW15922   4.582   2.095   2.411 -0.3364 -0.1391  0.2438
 2003SOL    HW115923   4.626   2.143   2.334  0.2277 -0.7708  0.1597
 2003SOL    HW215924   4.637   2.107   2.493 -0.3409 -0.3993  0.2866
 2004SOL     OW15925   4.074   8.617   2.312  0.4315  0.0872 -0.3096
 2004SOL    HW115926   4.040   8.543   2.371 -0.5269  0.3584 -0.5137
 2004SOL    HW215927   4.159   8.589   2.269  2.0021  0.4830  2.4640
 2005SOL     OW15928   2.824   5.482   2.030 -0.3099 -0.1647  0.1951
 2005SOL    HW115929   2.801   5.392   1.992 -0.2169  0.3506 -1.1073
 2005SOL    HW215930   2.821   5.478   2.130 -1.4323 -1.3251  0.1268
 2006SOL     OW15931   9.476   4.552   1.887 -0.0251 -0.0653  0.1732
 2006SOL    HW115932   9.411   4.627   1.896  0.8880  0.6634  0.7454
 2006SOL    HW215933   9.429   4.471   1.851 -0.8413  0.9888 -1.1385
 2007SOL     OW15934   0.813   5.066   0.447  0.3077  0.3272  0.1233
 2007SOL    HW115935   0.854   5.007   0.517 -0.0706  0.6155  0.5892
 2007SOL    HW215936   0.817   5.161   0.477  0.6244  0.5073 -0.4852
 2008SOL     OW15937   4.087   0.461   0.927  0.3006  0.9123 -0.2344
 2008SOL    HW115938   4.048   0.385   0.875  2.2445 -0.9036  0.8783
 2008SOL    HW215939   4.143   0.517   0.866  1.6162 -0.5288 -0.3906
 2009SOL     OW15940   3.983   4.294   1.545  0.0642 -0.4407  0.0157
 2009SOL    HW115941   3.945   4.386   1.537 -0.8141 -1.0018 -2.6757
 2009SOL    HW215942   4.082   4.298   1.534  0.1163  0.2437  0.6412
 2010SOL     OW15943   4.741   0.902   1.313  0.3887 -0.0505 -0.3353
 2010SOL    HW115944   4.694   0.990   1.321 -2.5586 -1.7722  2.9265
 2010SOL    HW215945   4.713   0.857   1.227 -1.5404  0.3376  0.0582
 2011SOL     OW15946   2.731   0.419   2.607 -0.1381 -0.3495 -0.0780
 2011SOL    HW115947   2.802   0.457   2.547  0.8295 -0.9366  0.6776
 2011SOL    HW215948   2.742   0.320   2.612 -1.9832 -0.6335 -1.1797
 2012SOL     OW15949   4.886   2.023   0.424  0.3388 -0.2578 -0.1692
 2012SOL    HW115950   4.949   2.037   0.500  0.4128  0.8263 -0.4272
 2012SOL    HW215951   4.859   2.111   0.385  1.1584 -0.8277 -2.0997
 2013SOL     OW15952   0.095   4.865   1.511 -0.1840  0.1312 -0.1576
 2013SOL    HW115953   0.008   4.902   1.546 -0.3529 -0.5467  0.1413
 2013SOL    HW215954   0.160   4.940   1.498 -0.1381  0.4177  1.5483
 2014SOL     OW15955   3.204   8.719   0.951 -0.0305  0.1767 -0.2603
 2014SOL    HW115956   3.125   8.773   0.922 -0.0107 -0.3976 -1.4146
 2014SOL    HW215957   3.199   8.628   0.910  0.8767 -0.0967  0.2178
 2015SOL     OW15958   2.993   3.131   0.424 -0.1730  0.3473  0.0952
 2015SOL    HW115959   3.092   3.135   0.429 -0.0891  1.1512 -1.6904
 2015SOL    HW215960   2.954   3.133   0.516  1.4194  1.0494  0.7698
 2016SOL     OW15961   3.129   7.428   1.521 -0.2521  0.5347  0.3430
 2016SOL    HW115962   3.170   7.458   1.434 -0.5618  0.3808  0.1458
 2016SOL    HW215963   3.113   7.330   1.519 -0.4234  0.5587  0.5100
 2017SOL     OW15964   2.814   2.375   1.332  0.3886 -0.4926  0.3490
 2017SOL    HW115965   2.906   2.412   1.345  0.8573 -1.6568  0.3747
 2017SOL    HW215966   2.820   2.288   1.283 -0.7528 -0.2242 -0.2741
 2018SOL     OW15967   9.863   5.511   0.047 -0.9764 -0.3895 -0.7155
 2018SOL    HW115968   9.890   5.602   0.079 -1.3906 -0.9334  1.2152
 2018SOL    HW215969   9.883   5.503  -0.051 -0.8833  1.7495 -0.8859
 2019SOL     OW15970   3.582   8.412   1.175  0.2690  0.0665 -0.1223
 2019SOL    HW115971   3.614   8.423   1.081  0.3775  1.5591  0.0805
 2019SOL    HW215972   3.648   8.452   1.239 -0.3969  0.1672  0.5127
 2020SOL     OW15973   3.291   3.092   2.638 -0.2130  0.4949  0.1189
 2020SOL    HW115974   3.331   3.056   2.722  0.4421  2.9128  0.8900
 2020SOL    HW215975   3.363   3.101   2.568 -1.0109 -2.8272 -1.2179
 2021SOL     OW15976   3.731   8.344   2.017 -0.2690 -0.3015  0.6491
 2021SOL    HW115977   3.644   8.385   2.046 -0.0451 -0.9529  2.2949
 2021SOL    HW215978   3.807   8.398   2.052 -0.0045 -0.4194  0.2568
 2022SOL     OW15979   3.179   7.928   0.619  0.3197  0.5832 -0.1169
 2022SOL    HW115980   3.230   7.902   0.538 -0.8606 -2.7583  0.1520
 2022SOL    HW215981   3.083   7.942   0.595  0.2453  1.1162  0.4506
 2023SOL     OW15982   2.521   2.788   0.974  0.1199  0.0808 -0.1321
 2023SOL    HW115983   2.449   2.820   1.036  0.1737 -0.1604  0.0580
 2023SOL    HW215984   2.611   2.809   1.014  0.1561  0.6195 -0.4927
 2024SOL     OW15985   4.464   9.430   1.412  0.1233  0.2653  0.3882
 2024SOL    HW115986   4.435   9.497   1.344 -1.2849 -1.1964 -0.4886
 2024SOL    HW215987   4.398   9.428   1.487 -0.7065 -1.2383 -0.3572
 2025SOL     OW15988   1.946   5.166   1.308  0.1417 -0.3593 -0.2682
 2025SOL    HW115989   1.936   5.148   1.210 -0.9114  3.8468 -1.0052
 2025SOL    HW215990   2.028   5.221   1.324  0.1175 -0.7232  1.2066
 2026SOL     OW15991   3.196   9.500   0.424  0.8663  0.4932 -0.3772
 2026SOL    HW115992   3.128   9.545   0.366  0.0841  1.3779  1.1926
 2026SOL    HW215993   3.157   9.416   0.461  1.1861  0.1945 -0.7112
 2027SOL     OW15994   4.686   1.910   0.572 -0.2544 -0.2468 -0.5428
 2027SOL    HW115995   4.619   1.846   0.534  0.7487 -3.0255  2.1826
 2027SOL    HW215996   4.759   1.926   0.505 -1.0705 -1.1098 -1.6594
 2028SOL     OW15997   2.571   3.389   1.792 -0.6717 -0.5917 -0.3449
 2028SOL    HW115998   2.671   3.380   1.792 -0.6575 -0.5289 -1.7335
 2028SOL    HW215999   2.530   3.298   1.791 -0.6315 -0.6212  0.6476
 2029SOL     OW16000   4.411   1.582   2.329 -0.1280 -0.4921 -0.8805
 2029SOL    HW116001   4.432   1.679   2.341 -0.2103 -0.7556  1.7045
 2029SOL    HW216002   4.316   1.571   2.302 -1.1599  0.0136  2.3757
 2030SOL     OW16003   4.451   4.810   2.639  0.7124  0.3740 -0.3841
 2030SOL    HW116004   4.403   4.867   2.705  0.5587  1.2175 -1.2182
 2030SOL    HW216005   4.394   4.797   2.557  0.8573 -0.7422 -0.3264
 2031SOL     OW16006   4.152   3.913   0.851 -0.2674  0.1174 -0.6861
 2031SOL    HW116007   4.124   3.979   0.921  0.8532 -0.0583 -0.0565
 2031SOL    HW216008   4.125   3.821   0.879 -0.5320  0.1398 -0.8679
 2032SOL     OW16009   3.639   4.207   0.958 -0.3968  0.5161 -0.0154
 2032SOL    HW116010   3.713   4.143   0.980 -0.9504 -0.2446 -0.3170
 2032SOL    HW216011   3.653   4.293   1.006  1.2030  0.7162 -0.8173
 2033SOL     OW16012   9.051   4.781   0.662  0.6262  0.3927  0.1396
 2033SOL    HW116013   8.973   4.799   0.602  1.1227  0.7436 -0.4118
 2033SOL    HW216014   9.122   4.849   0.644 -0.3409  2.3278  3.1456
 2034SOL     OW16015   9.422   4.828   0.540 -0.1766 -0.4726 -0.1415
 2034SOL    HW116016   9.468   4.742   0.515  0.0628  0.8086 -4.5541
 2034SOL    HW216017   9.483   4.905   0.519 -1.6361  0.9388  0.7186
 2035SOL     OW16018   3.806   7.746   1.400 -0.3651  0.0579  0.8143
 2035SOL    HW116019   3.773   7.755   1.307  0.4032 -1.2385  0.4025
 2035SOL    HW216020   3.903   7.772   1.404 -0.5104  0.5289  1.3316
 2036SOL     OW16021   3.169   1.923   2.016  0.0693  0.0629 -0.1063
 2036SOL    HW116022   3.194   2.020   2.013 -1.4724  0.4516 -0.5331
 2036SOL    HW216023   3.196   1.878   1.931 -2.4414  0.9378 -1.4208
 2037SOL     OW16024   3.046   2.417   0.170 -0.0663  0.2600  0.2991
 2037SOL    HW116025   2.981   2.444   0.099  1.0294 -1.0788 -1.2336
 2037SOL    HW216026   3.091   2.332   0.144  1.1327  0.3131  2.1089
 2038SOL     OW16027   0.480   4.508   1.542 -0.2868 -0.6897 -0.0348
 2038SOL    HW116028   0.417   4.537   1.614 -1.8462 -0.0704 -1.5989
 2038SOL    HW216029   0.445   4.426   1.498 -1.0299  0.7284 -2.1762
 2039SOL     OW16030   1.832   3.607   0.093  0.1418  0.4971  0.2194
 2039SOL    HW116031   1.772   3.649   0.160 -1.0053  1.0774 -1.1380
 2039SOL    HW216032   1.880   3.530   0.134  1.2736  2.2973  2.3745
 2040SOL     OW16033   1.399   6.394   2.569  0.5552  1.0565 -0.2293
 2040SOL    HW116034   1.371   6.388   2.473 -1.0804  0.7170  0.2516
 2040SOL    HW216035   1.380   6.306   2.614 -1.7400  2.2466  1.1882
 2041SOL     OW16036   1.685   5.321   0.072 -0.0095 -0.3972 -0.1259
 2041SOL    HW116037   1.611   5.354   0.131 -1.1996  2.4481 -3.0439
 2041SOL    HW216038   1.772   5.354   0.108 -0.4523 -0.8803  1.4393
 2042SOL     OW16039   2.093   2.763   2.350 -0.5038  0.7007  0.6682
 2042SOL    HW116040   2.164   2.795   2.412  1.0480  0.1608 -0.7832
 2042SOL    HW216041   2.030   2.703   2.399  0.2825  0.8457  1.8725
 2043SOL     OW16042   2.051   3.155   1.134 -0.4911 -0.2029 -0.0383
 2043SOL    HW116043   2.064   3.139   1.036 -0.6672 -1.5890  0.1541
 2043SOL    HW216044   1.956   3.134   1.158 -0.2434 -0.6237  0.5714
 2044SOL     OW16045   3.226   9.557   2.299 -0.1375 -0.6626 -0.0544
 2044SOL    HW116046   3.138   9.596   2.270  1.7822  2.6095 -1.6617
 2044SOL    HW216047   3.272   9.620   2.361  0.4017 -3.0926  2.0853
 2045SOL     OW16048   2.503   4.068   0.524  0.0895  0.0778 -0.0530
 2045SOL    HW116049   2.501   4.142   0.457  0.2620 -0.7401 -0.9909
 2045SOL    HW216050   2.482   3.982   0.478  2.2886 -0.8110  0.5208
 2046SOL     OW16051   4.259   9.202   1.198  0.1216  0.3151  0.2542
 2046SOL    HW116052   4.168   9.170   1.222  0.2418 -0.7680 -0.7263
 2046SOL    HW216053   4.323   9.178   1.271 -0.3283  0.8917  0.8473
 2047SOL     OW16054   2.265   1.717   0.972 -0.0783  0.4522 -0.3592
 2047SOL    HW116055   2.274   1.726   1.071  0.4314 -1.4561 -0.2034
 2047SOL    HW216056   2.274   1.807   0.929  0.8771  1.1484  1.2480
 2048SOL     OW16057   4.210   4.504   1.855 -0.1603 -0.5995 -0.3909
 2048SOL    HW116058   4.114   4.528   1.869 -0.4575 -1.9756 -0.0449
 2048SOL    HW216059   4.255   4.495   1.944 -0.2603 -2.1515 -0.4852
 2049SOL     OW16060   1.060   5.272   0.624 -0.1602 -0.4666  0.1961
 2049SOL    HW116061   1.138   5.278   0.562 -1.2291  1.2470 -1.0444
 2049SOL    HW216062   1.078   5.203   0.694  1.0545 -2.5265 -2.0569
 2050SOL     OW16063   4.317   8.476   0.154 -0.2247 -0.1308  0.0958
 2050SOL    HW116064   4.264   8.392   0.163 -1.4186  0.3207 -2.2374
 2050SOL    HW216065   4.259   8.554   0.179 -0.5986  0.3283 -2.0695
 2051SOL     OW16066   4.355   8.815   0.012  0.2202 -0.0291  0.5826
 2051SOL    HW116067   4.360   8.860   0.101  1.8897  0.6289  0.1598
 2051SOL    HW216068   4.438   8.762  -0.004 -0.1892 -0.3673 -0.4864
 2052SOL     OW16069   3.669   8.214   1.482  0.1676 -0.5602  0.1515
 2052SOL    HW116070   3.709   8.304   1.466  0.3646 -0.8042 -0.7681
 2052SOL    HW216071   3.707   8.149   1.417 -1.5180 -0.8587 -0.5596
 2053SOL     OW16072   2.033   3.981   1.792  0.1289  0.4040 -0.1065
 2053SOL    HW116073   2.062   4.072   1.823  0.5271  0.3936 -0.4572
 2053SOL    HW216074   1.939   3.964   1.824  0.1218  0.8590  0.1215
 2054SOL     OW16075   0.302   5.228   0.023  0.2524 -0.3781 -0.0768
 2054SOL    HW116076   0.388   5.214  -0.026 -0.0555  0.9537 -1.0311
 2054SOL    HW216077   0.247   5.145   0.020  0.9035 -0.7871 -0.6663
 2055SOL     OW16078   2.599   4.600   0.648 -0.2703  0.1411  0.8249
 2055SOL    HW116079   2.535   4.670   0.680 -0.6659  0.8241 -1.3347
 2055SOL    HW216080   2.610   4.530   0.718 -0.9444  1.6467  2.4739
 2056SOL     OW16081   4.712   3.566   0.322  0.1744 -0.3569  0.3905
 2056SOL    HW116082   4.720   3.511   0.238 -1.1739 -0.7064  0.4878
 2056SOL    HW216083   4.689   3.506   0.399 -1.8463  0.4009  0.4049
 2057SOL     OW16084   2.753   1.476   2.003  0.1344  0.4074  0.0866
 2057SOL    HW116085   2.708   1.482   2.092 -2.6648 -1.5776 -1.0997
 2057SOL    HW216086   2.790   1.384   1.990 -0.3212  0.3867 -1.1753
 2058SOL     OW16087   3.814   2.773   0.034  0.0095 -0.1690  0.6607
 2058SOL    HW116088   3.863   2.859   0.026 -3.4078  1.7941 -0.0846
 2058SOL    HW216089   3.735   2.784   0.095 -2.3456 -1.8328 -1.9322
 2059SOL     OW16090   3.067   0.124   0.728  0.0675 -0.3303 -0.3810
 2059SOL    HW116091   3.144   0.118   0.792 -0.1549  0.8436  0.0151
 2059SOL    HW216092   3.038   0.219   0.720 -1.2455 -0.7435 -0.6522
 2060SOL     OW16093   3.526   0.161   1.767 -0.3794  0.2166  0.2992
 2060SOL    HW116094   3.619   0.134   1.793 -0.4900 -0.1541  0.3127
 2060SOL    HW216095   3.480   0.084   1.723 -0.4343  0.6209 -0.3624
 2061SOL     OW16096   3.326   8.065   2.078  0.1366  0.2352 -0.5529
 2061SOL    HW116097   3.411   8.079   2.027 -0.0444 -0.6872 -1.1058
 2061SOL    HW216098   3.285   7.978   2.053  0.0140 -0.2075  1.1455
 2062SOL     OW16099   2.791   8.325   2.334  0.0685  0.5902  0.1504
 2062SOL    HW116100   2.701   8.343   2.372 -0.8864 -0.6450 -1.4414
 2062SOL    HW216101   2.848   8.281   2.403 -0.9026  0.4170  0.8537
 2063SOL     OW16102   1.809   6.194   2.369  0.2270  0.1429 -0.0710
 2063SOL    HW116103   1.850   6.254   2.437  2.7086 -1.2784 -0.2583
 2063SOL    HW216104   1.864   6.111   2.360 -0.7551 -0.2634 -2.8923
 2064SOL     OW16105   4.443   4.600   0.217 -0.0688 -0.5339  0.1315
 2064SOL    HW116106   4.381   4.675   0.194 -0.0828 -0.6557 -0.2205
 2064SOL    HW216107   4.395   4.535   0.278 -0.4472 -0.8825 -0.5341
 2065SOL     OW16108   2.383   4.387   2.057  0.0364  0.8565  0.4865
 2065SOL    HW116109   2.320   4.335   2.114 -0.7076 -0.6436 -1.6424
 2065SOL    HW216110   2.477   4.366   2.083 -0.2878  0.3264  1.2552
 2066SOL     OW16111   1.275   4.767   0.592  0.2152 -0.3509  0.0464
 2066SOL    HW116112   1.314   4.684   0.554 -3.2337 -1.3051 -1.5611
 2066SOL    HW216113   1.248   4.751   0.687 -1.5135 -1.4566 -0.6200
 2067SOL     OW16114   4.489   3.127   2.694  1.1402  0.5194  0.1914
 2067SOL    HW116115   4.449   3.038   2.670  1.3143 -0.1804  2.3748
 2067SOL    HW216116   4.580   3.134   2.653  1.0774 -0.2532 -0.0963
 2068SOL     OW16117   2.166   5.562   1.202 -0.3270 -0.4827  0.5567
 2068SOL    HW116118   2.146   5.466   1.224 -1.7025 -0.2826  0.2134
 2068SOL    HW216119   2.180   5.571   1.104 -0.1221 -0.3419  0.5985
 2069SOL     OW16120   2.268   5.226   2.663  0.5250 -0.6984  0.5717
 2069SOL    HW116121   2.250   5.324   2.671  1.0236 -0.5981  0.4341
 2069SOL    HW216122   2.299   5.205   2.570 -2.6743 -1.4707 -0.4087
 2070SOL     OW16123   3.042   1.880   0.625  0.4465  0.5664 -0.1113
 2070SOL    HW116124   3.059   1.978   0.615  2.2130  0.5012  1.9065
 2070SOL    HW216125   3.127   1.830   0.608 -0.4385 -0.6377 -1.1312
 2071SOL     OW16126   2.263   6.863   0.251 -0.5359 -0.4385  0.2451
 2071SOL    HW116127   2.278   6.868   0.152  0.4016 -0.5216  0.3728
 2071SOL    HW216128   2.237   6.770   0.277 -0.5065 -0.4840  0.1098
 2072SOL     OW16129   2.752   5.096   2.231 -0.0859 -0.0118  0.1288
 2072SOL    HW116130   2.701   5.035   2.293  0.0624 -1.2006 -0.8875
 2072SOL    HW216131   2.847   5.102   2.261 -0.4212  0.8718  1.0569
 2073SOL     OW16132   4.064   1.711   0.659 -1.0903 -0.8142 -0.4800
 2073SOL    HW116133   4.106   1.646   0.722  1.3796  0.7955 -0.4250
 2073SOL    HW216134   4.028   1.662   0.579  0.5429 -2.2665 -0.3365
 2074SOL     OW16135   3.298   4.919   0.865 -0.0060 -0.0361  0.1597
 2074SOL    HW116136   3.210   4.910   0.818 -0.0152 -1.0836  0.3668
 2074SOL    HW216137   3.355   4.840   0.844  1.0790  0.8600 -0.3583
 2075SOL     OW16138   4.774   2.174   1.153 -0.5109  0.2102  0.3307
 2075SOL    HW116139   4.731   2.261   1.177 -0.7185 -0.2397  1.6075
 2075SOL    HW216140   4.705   2.102   1.148 -0.3321  0.1001 -0.6640
 2076SOL     OW16141   9.564   4.696   0.804  0.0174 -0.1403 -0.6029
 2076SOL    HW116142   9.541   4.792   0.784 -0.7559 -0.5161 -1.6052
 2076SOL    HW216143   9.662   4.682   0.792  0.4658  0.9811  1.5152
 2077SOL     OW16144   2.217   2.771   0.067 -0.1492  0.4121 -0.4132
 2077SOL    HW116145   2.309   2.756   0.030  0.1153  0.1316  0.3636
 2077SOL    HW216146   2.217   2.755   0.165 -1.0178  0.4770 -0.3985
 2078SOL     OW16147   3.828   9.716   0.762  0.0812 -0.0144  0.0422
 2078SOL    HW116148   3.818   9.764   0.849  0.8337  0.6425 -0.2305
 2078SOL    HW216149   3.925   9.698   0.745 -0.2987 -3.8970  1.3709
 2079SOL     OW16150   4.762   1.534   2.521  0.1136  0.2850  0.0768
 2079SOL    HW116151   4.810   1.601   2.464 -2.9603  2.7332  0.1895
 2079SOL    HW216152   4.764   1.565   2.616  0.2271 -0.7496  0.4123
 2080SOL     OW16153   2.887   8.156   2.546  0.4460 -0.2671  0.1020
 2080SOL    HW116154   2.858   8.210   2.625  0.6067 -1.2672  0.8482
 2080SOL    HW216155   2.961   8.094   2.573 -0.6476 -1.8189 -0.4242
 2081SOL     OW16156   1.149   5.071   2.630  0.1393 -0.3199 -0.7583
 2081SOL    HW116157   1.088   5.149   2.642 -1.1152 -1.2106 -1.2268
 2081SOL    HW216158   1.237   5.103   2.596  0.4876  1.1599  1.3924
 2082SOL     OW16159   1.194   5.118   0.398  0.1449 -0.1798  0.2397
 2082SOL    HW116160   1.170   5.023   0.415  1.0435 -0.6579 -1.0644
 2082SOL    HW216161   1.170   5.142   0.304  0.6132  0.6716  0.3313
 2083SOL     OW16162   2.705   7.231   0.050 -0.3321 -0.6579 -0.2934
 2083SOL    HW116163   2.649   7.171  -0.008 -0.0356 -1.6403  0.4297
 2083SOL    HW216164   2.646   7.293   0.102 -0.8071 -2.2024  1.0380
 2084SOL     OW16165   2.458   3.084   2.602  0.2368  0.5318  0.5199
 2084SOL    HW116166   2.441   3.179   2.579 -0.2178  0.0546 -1.2290
 2084SOL    HW216167   2.556   3.066   2.597  0.1223  0.3294 -1.6624
 2085SOL     OW16168   3.910   4.265   0.428  0.3822 -0.1107  0.0118
 2085SOL    HW116169   3.955   4.336   0.482  0.8396 -0.8537  0.6234
 2085SOL    HW216170   3.851   4.210   0.487 -0.6161  0.2785 -0.6166
 2086SOL     OW16171   4.676   1.724   1.916  0.0454  0.2567  0.2852
 2086SOL    HW116172   4.717   1.636   1.941 -1.7793 -0.0595  2.3138
 2086SOL    HW216173   4.698   1.793   1.985  1.0236  1.2864 -1.0254
 2087SOL     OW16174   5.528   2.778   1.424  0.4705 -0.0355  0.5727
 2087SOL    HW116175   5.503   2.859   1.478  0.1628  0.3437 -0.1227
 2087SOL    HW216176   5.529   2.803   1.327  1.1182 -0.6855  0.4160
 2088SOL     OW16177   3.815   8.494   0.620 -0.0924  0.3806 -0.1658
 2088SOL    HW116178   3.866   8.428   0.675  0.3575  1.5493  0.8561
 2088SOL    HW216179   3.837   8.480   0.523 -0.6768 -1.5072 -0.0324
 2089SOL     OW16180   3.649   3.529   0.962  0.1181 -0.1963 -0.0786
 2089SOL    HW116181   3.606   3.578   1.038  1.4502 -1.8993  1.8481
 2089SOL    HW216182   3.722   3.584   0.923  0.2320  0.2052  0.6933
 2090SOL     OW16183   3.384   8.980   0.148  0.3337 -0.0923  0.0608
 2090SOL    HW116184   3.317   9.038   0.104 -3.0695 -1.3442  3.2755
 2090SOL    HW216185   3.407   9.017   0.238  0.6939 -1.9091  0.7519
 2091SOL     OW16186   3.667   3.146   2.764  0.6544 -0.0851  0.2578
 2091SOL    HW116187   3.749   3.101   2.799  0.8248 -0.2193 -0.3134
 2091SOL    HW216188   3.646   3.112   2.673  0.6822  0.8577 -0.1138
 2092SOL     OW16189   5.264   4.304   0.699 -0.0243  0.1449  0.8193
 2092SOL    HW116190   5.245   4.365   0.775  0.0777 -0.4221  1.3000
 2092SOL    HW216191   5.291   4.214   0.733  0.0443 -0.1083  0.1190
 2093SOL     OW16192   2.009   5.774   1.156 -0.5037  0.0495 -0.4392
 2093SOL    HW116193   2.057   5.697   1.197  0.2462  1.6208  1.7224
 2093SOL    HW216194   1.910   5.760   1.164 -0.3771 -0.8356 -0.3540
 2094SOL     OW16195   0.313   4.008   2.669  0.1391  0.1028  0.0980
 2094SOL    HW116196   0.228   4.044   2.631 -1.3479 -1.3118  2.0123
 2094SOL    HW216197   0.341   3.927   2.618  0.7707  1.0054 -1.0118
 2095SOL     OW16198   0.988   5.827   0.311 -0.1058  0.3181  0.5301
 2095SOL    HW116199   1.052   5.841   0.387  0.1058  1.2287  0.1936
 2095SOL    HW216200   1.003   5.898   0.242  1.6648 -2.1735 -1.7243
 2096SOL     OW16201   9.704   5.457   0.459  0.6981  0.2352  0.3107
 2096SOL    HW116202   9.748   5.380   0.412 -1.6439 -1.5386  0.9231
 2096SOL    HW216203   9.770   5.501   0.520  1.8167 -1.9473  0.7345
 2097SOL     OW16204   4.231   4.342   1.641 -0.4218 -0.6409  0.1895
 2097SOL    HW116205   4.206   4.407   1.714  0.0045  0.0181 -0.2479
 2097SOL    HW216206   4.288   4.389   1.573  0.9854 -1.8082  0.5444
 2098SOL     OW16207   9.744   5.467   2.564 -0.7683  0.2061  0.2909
 2098SOL    HW116208   9.767   5.555   2.522 -2.9067  0.2240 -0.8950
 2098SOL    HW216209   9.747   5.395   2.495  0.2252 -0.5448  1.1038
 2099SOL     OW16210   2.957   2.866   1.839 -0.1933  0.3336  0.1311
 2099SOL    HW116211   3.009   2.935   1.890 -1.0114  1.4710 -0.5413
 2099SOL    HW216212   2.931   2.792   1.900 -0.7652  1.4544  1.2888
 2100SOL     OW16213   4.357   9.322   0.126  0.4768  0.6647  0.5897
 2100SOL    HW116214   4.305   9.353   0.046 -0.4992 -0.9917  0.5661
 2100SOL    HW216215   4.451   9.303   0.099  0.0420 -0.3196 -0.2813
 2101SOL     OW16216   3.818   3.269   0.472 -0.5515 -0.2249  0.2605
 2101SOL    HW116217   3.879   3.221   0.536 -2.0795 -2.0297  0.4203
 2101SOL    HW216218   3.740   3.305   0.523  0.1054  1.6514 -0.0223
 2102SOL     OW16219   1.253   5.930   0.373 -0.5738  0.0254  0.0755
 2102SOL    HW116220   1.266   5.916   0.275  1.2793  0.5116  0.2334
 2102SOL    HW216221   1.331   5.979   0.411 -1.6151  0.5047  1.6704
 2103SOL     OW16222   3.253   2.213   1.571  0.4811 -0.6060 -0.7856
 2103SOL    HW116223   3.175   2.260   1.530  0.6899  0.0681 -0.4182
 2103SOL    HW216224   3.287   2.266   1.649 -0.8517 -2.6471  1.2182
 2104SOL     OW16225   2.375   3.298   2.025 -0.6932 -0.0635  0.2689
 2104SOL    HW116226   2.447   3.340   2.080 -0.2177  0.2915 -0.6110
 2104SOL    HW216227   2.404   3.295   1.929 -1.0722 -1.6273  0.1837
 2105SOL     OW16228   9.558   4.299   2.307  0.0413 -0.0204  0.2078
 2105SOL    HW116229   9.656   4.310   2.324  0.3950  1.2194 -2.3661
 2105SOL    HW216230   9.544   4.275   2.211 -2.2256  0.8129  0.3176
 2106SOL     OW16231   1.714   4.770   0.165  0.1118 -0.7684  0.1916
 2106SOL    HW116232   1.664   4.775   0.079  1.5718 -0.0005 -0.6225
 2106SOL    HW216233   1.692   4.850   0.221  0.8665 -0.1433 -0.4052
 2107SOL     OW16234   0.712   4.367   0.937 -0.0446  0.0089 -0.5781
 2107SOL    HW116235   0.718   4.438   1.006  1.1689 -2.2797  1.7702
 2107SOL    HW216236   0.763   4.395   0.855  1.9609  1.0673  0.9903
 2108SOL     OW16237   1.475   5.326   1.277  0.3569  0.3295 -0.2987
 2108SOL    HW116238   1.553   5.265   1.294 -0.1735 -1.1328 -2.8507
 2108SOL    HW216239   1.482   5.365   1.186 -2.2169 -0.3410 -0.8242
 2109SOL     OW16240   0.577   5.862   0.194  0.1209  0.6120 -0.2044
 2109SOL    HW116241   0.568   5.770   0.233  2.2191 -0.1739 -1.4535
 2109SOL    HW216242   0.575   5.930   0.267 -1.2613 -0.4316  0.7525
 2110SOL     OW16243   1.827   6.382   1.766  0.2750  0.7102  0.3264
 2110SOL    HW116244   1.729   6.398   1.752  0.3719  0.5728 -0.5233
 2110SOL    HW216245   1.868   6.352   1.680  0.5659 -1.7159  1.2734
 2111SOL     OW16246   4.335   4.312   2.365 -0.4139 -0.0151 -0.3103
 2111SOL    HW116247   4.331   4.214   2.345 -0.0757  0.3217 -2.1212
 2111SOL    HW216248   4.427   4.337   2.394 -0.5630 -0.2728  0.3912
 2112SOL     OW16249   3.030   9.010   1.407  0.1203  0.0204  0.0135
 2112SOL    HW116250   3.090   8.986   1.484  0.1462  1.9286  0.6032
 2112SOL    HW216251   3.082   9.063   1.340 -0.7700  1.2287  0.2779
 2113SOL     OW16252   3.364   5.139   0.621  0.0206  0.0239 -0.7441
 2113SOL    HW116253   3.354   5.059   0.680  1.9277 -0.5108 -1.0884
 2113SOL    HW216254   3.456   5.176   0.631 -0.8567  2.2140 -0.5698
 2114SOL     OW16255   0.435   4.060   2.338  0.1768 -0.1828 -0.1976
 2114SOL    HW116256   0.460   4.143   2.387  0.1790  0.0205 -0.5471
 2114SOL    HW216257   0.341   4.069   2.304  0.2020 -0.2970 -0.2967
 2115SOL     OW16258   2.704   6.726   0.892 -0.0604 -0.2211 -0.4472
 2115SOL    HW116259   2.633   6.664   0.924 -0.5295 -0.5005 -1.9806
 2115SOL    HW216260   2.731   6.788   0.966 -1.1319 -0.8173  0.4521
 2116SOL     OW16261   4.464   1.641   2.671  0.1401  0.0038  0.2695
 2116SOL    HW116262   4.368   1.665   2.679 -0.2658 -1.7921  1.1323
 2116SOL    HW216263   4.478   1.579   2.594 -0.1221 -2.9983  2.5183
 2117SOL     OW16264   2.751   5.101   2.672 -0.3135  0.1895  0.0628
 2117SOL    HW116265   2.663   5.136   2.639 -1.2093 -1.1883  0.9238
 2117SOL    HW216266   2.786   5.161   2.744 -1.5305 -0.2876  1.0856
 2118SOL     OW16267   3.069   1.259   2.425  0.6976 -0.1216  0.0673
 2118SOL    HW116268   2.977   1.230   2.453  0.7625 -1.5527 -1.1522
 2118SOL    HW216269   3.070   1.358   2.411 -1.4865 -0.4375 -2.8767
 2119SOL     OW16270   2.003   2.480   0.327  0.0430 -0.3423 -0.7921
 2119SOL    HW116271   1.970   2.449   0.238 -0.8931 -0.6246 -0.3585
 2119SOL    HW216272   1.959   2.426   0.399 -0.3936  0.9416 -0.0896
 2120SOL     OW16273   9.755   4.881   0.939 -0.1253 -0.3722  0.1520
 2120SOL    HW116274   9.819   4.829   0.882  0.6197  0.6272  0.0601
 2120SOL    HW216275   9.728   4.964   0.891  0.5233  0.4877  1.2416
 2121SOL     OW16276   3.847   1.080   2.265  0.2016  0.3707  0.4272
 2121SOL    HW116277   3.764   1.134   2.274 -0.1864 -0.4188  1.7969
 2121SOL    HW216278   3.921   1.138   2.231 -0.1461  1.8378  2.0600
 2122SOL     OW16279   3.786   4.020   1.994 -0.0517 -0.1008  0.2928
 2122SOL    HW116280   3.886   4.018   1.989 -0.0886 -1.7074 -0.2423
 2122SOL    HW216281   3.756   4.102   2.043  1.4485  1.5684 -1.4982
 2123SOL     OW16282   2.909   1.261   0.971 -0.2145 -0.1588  0.5415
 2123SOL    HW116283   2.840   1.300   0.909 -0.8909  0.2629  1.5497
 2123SOL    HW216284   2.999   1.294   0.944 -0.6628  1.2290  0.6772
 2124SOL     OW16285   2.988   6.055   1.937  0.0058  0.0475  0.4260
 2124SOL    HW116286   3.041   6.001   1.871  2.2592  2.8737 -0.2127
 2124SOL    HW216287   2.895   6.019   1.943 -0.0808 -0.7457 -3.7952
 2125SOL     OW16288   3.075   3.049   1.996 -0.1148  0.0999 -0.0674
 2125SOL    HW116289   3.042   3.045   2.091 -1.7168 -0.0112 -0.6150
 2125SOL    HW216290   3.174   3.034   1.995 -0.2297 -0.9436  1.4923
 2126SOL     OW16291   2.415   4.656   0.309 -0.0857  0.1947 -0.6310
 2126SOL    HW116292   2.424   4.648   0.210  1.3954 -1.0306 -0.4103
 2126SOL    HW216293   2.475   4.591   0.354 -1.6759 -0.1524  1.0858
 2127SOL     OW16294   2.480   2.736   2.800  0.8150  0.3454 -0.5903
 2127SOL    HW116295   2.558   2.724   2.739  1.0773 -0.0782 -0.1807
 2127SOL    HW216296   2.469   2.655   2.857 -1.0001 -0.3339 -1.8498
 2128SOL     OW16297   4.617   3.510   1.537 -0.4218 -0.0089 -0.6794
 2128SOL    HW116298   4.526   3.547   1.523  0.4886  1.7186 -2.2466
 2128SOL    HW216299   4.627   3.481   1.633 -1.5264  2.9150  0.3945
 2129SOL     OW16300   0.068   5.165   1.662 -0.3083 -0.2464 -0.7749
 2129SOL    HW116301  -0.011   5.121   1.619  0.0275  0.2348 -1.9049
 2129SOL    HW216302   0.119   5.098   1.715 -2.0050 -0.3620  0.7709
 2130SOL     OW16303   0.781   3.827   1.788  0.4159  0.3913  0.0963
 2130SOL    HW116304   0.724   3.797   1.711 -0.3553 -0.5442  1.0102
 2130SOL    HW216305   0.741   3.794   1.873  1.3837  1.2348  0.8870
 2131SOL     OW16306   3.129   9.067   0.351  0.1181  0.0967  1.0015
 2131SOL    HW116307   3.180   9.080   0.266 -0.9976  0.9297  0.4341
 2131SOL    HW216308   3.113   8.969   0.366  1.7408 -0.1535  1.1173
 2132SOL     OW16309   5.056   1.426   2.829 -0.1013 -0.3870  0.2895
 2132SOL    HW116310   5.004   1.417   2.914 -1.2116 -3.2293 -0.6082
 2132SOL    HW216311   5.153   1.433   2.849 -0.5012  0.9421  1.8521
 2133SOL     OW16312   4.230   8.927   1.878 -0.5949 -0.3918  0.0417
 2133SOL    HW116313   4.139   8.947   1.915 -0.6988 -1.5842  0.4244
 2133SOL    HW216314   4.298   8.982   1.926 -0.9892 -0.2654  0.4581
 2134SOL     OW16315   0.973   5.779   1.905 -0.1454  0.1889  0.3185
 2134SOL    HW116316   1.026   5.825   1.976  1.5932 -1.0476 -0.1396
 2134SOL    HW216317   0.882   5.757   1.941  0.9521 -1.1003  2.4746
 2135SOL     OW16318   3.217   7.079   2.743  0.1841 -1.1036 -0.0374
 2135SOL    HW116319   3.132   7.125   2.769  0.0078 -0.7922 -1.1560
 2135SOL    HW216320   3.295   7.123   2.789 -0.1258 -0.5838 -0.0102
 2136SOL     OW16321   0.629   4.817   2.792 -0.3659  0.8353  0.2116
 2136SOL    HW116322   0.607   4.803   2.889  0.2298  0.8405  0.3520
 2136SOL    HW216323   0.619   4.731   2.743 -0.2750  0.7431  0.3552
 2137SOL     OW16324   4.295   3.572   2.823  0.0277  0.3526 -0.7567
 2137SOL    HW116325   4.234   3.582   2.902 -0.9511 -1.8189 -1.2081
 2137SOL    HW216326   4.378   3.626   2.839 -0.3760  0.3631  1.5203
 2138SOL     OW16327   4.967   2.504   0.244 -0.3055  0.3835  0.4705
 2138SOL    HW116328   4.963   2.599   0.214 -1.7417  0.2643  0.2779
 2138SOL    HW216329   5.029   2.497   0.323  0.6347  1.2883 -0.1689
 2139SOL     OW16330   1.676   3.717   1.627  0.1430 -0.0928  0.2340
 2139SOL    HW116331   1.653   3.622   1.646  1.2813 -0.4267 -0.0499
 2139SOL    HW216332   1.592   3.769   1.611 -0.5521 -0.7946  1.5329
 2140SOL     OW16333   2.472   6.940   1.159  0.1039 -0.0880  0.5729
 2140SOL    HW116334   2.565   6.917   1.188  0.1203 -0.4935  0.2095
 2140SOL    HW216335   2.454   6.900   1.069 -0.2557  0.3987  0.4243
 2141SOL     OW16336   5.476   3.263   1.047 -0.1763 -0.0392 -0.3774
 2141SOL    HW116337   5.559   3.207   1.042 -0.8175 -1.0068 -0.3406
 2141SOL    HW216338   5.399   3.204   1.071 -1.0596  0.6757 -1.4688
 2142SOL     OW16339   3.141   8.942   1.667 -0.1598 -0.4210 -0.1126
 2142SOL    HW116340   3.183   8.859   1.704  0.3084 -0.3398 -0.4525
 2142SOL    HW216341   3.059   8.964   1.720 -0.2136 -1.0231  0.0620
 2143SOL     OW16342   1.346   5.950   0.897 -0.0026 -0.1375  0.0969
 2143SOL    HW116343   1.443   5.973   0.902  0.0547 -0.6870  1.9716
 2143SOL    HW216344   1.336   5.850   0.901 -0.7041 -0.0284  1.5528
 2144SOL     OW16345   4.453   1.660   1.785  0.4008  0.5302 -0.8209
 2144SOL    HW116346   4.400   1.738   1.751 -0.6560  0.4208  0.5244
 2144SOL    HW216347   4.525   1.692   1.846 -0.5640  0.4250  0.4054
 2145SOL     OW16348   4.528   2.422   1.001  0.2492  0.0815  0.0306
 2145SOL    HW116349   4.570   2.510   0.979 -2.7810  1.1629 -1.7874
 2145SOL    HW216350   4.511   2.371   0.916  1.2426 -1.9114  1.0105
 2146SOL     OW16351   3.372   5.337   1.362 -0.6190 -0.8696  0.0236
 2146SOL    HW116352   3.419   5.426   1.361  0.2115 -1.1963  3.1764
 2146SOL    HW216353   3.307   5.333   1.287  1.0869  1.4473 -1.6594
 2147SOL     OW16354   4.393   3.269   1.213  0.0276  0.3581 -0.1499
 2147SOL    HW116355   4.488   3.286   1.240 -0.0713  0.5971  0.0446
 2147SOL    HW216356   4.332   3.323   1.271 -0.3024 -0.8892  0.6863
 2148SOL     OW16357   4.752   1.729   1.403  0.6701  0.0209 -0.3006
 2148SOL    HW116358   4.780   1.754   1.311 -0.7630 -2.7002 -1.5555
 2148SOL    HW216359   4.797   1.644   1.430 -2.5854 -1.8616 -0.4947
 2149SOL     OW16360   3.598   3.643   1.276  0.3278 -0.2396  0.7876
 2149SOL    HW116361   3.504   3.609   1.275  0.5482 -0.8561  0.9148
 2149SOL    HW216362   3.642   3.616   1.362  1.0910 -1.2426  0.0991
 2150SOL     OW16363   3.728   3.879   0.467  0.5096  0.9309  0.0525
 2150SOL    HW116364   3.819   3.900   0.434  0.4405 -0.6493 -1.2344
 2150SOL    HW216365   3.663   3.948   0.435  1.0554  1.4086 -0.0160
 2151SOL     OW16366   2.437   1.481   0.223  0.3731  0.5543 -0.4311
 2151SOL    HW116367   2.502   1.449   0.155 -1.5281 -1.1717 -1.4755
 2151SOL    HW216368   2.412   1.406   0.285 -0.2714  1.3131  0.2533
 2152SOL     OW16369   4.360   2.562   2.408  0.0071 -0.1599  0.0986
 2152SOL    HW116370   4.404   2.606   2.330 -0.8732 -0.2317 -0.4550
 2152SOL    HW216371   4.311   2.631   2.462  1.8694  0.1190  1.4561
 2153SOL     OW16372   4.134   1.095   1.701 -0.1381 -0.4946  0.2790
 2153SOL    HW116373   4.063   1.059   1.761 -0.3134  0.1380  0.4573
 2153SOL    HW216374   4.222   1.093   1.749 -0.2868  0.0553  0.5704
 2154SOL     OW16375   2.694   8.272   0.160  0.4091  0.5348 -0.4298
 2154SOL    HW116376   2.660   8.199   0.219 -1.1367  0.2818 -1.5808
 2154SOL    HW216377   2.764   8.324   0.208  1.5207 -1.6843  0.4125
 2155SOL     OW16378   3.187   0.660   0.302  0.0832 -0.2990 -0.0056
 2155SOL    HW116379   3.278   0.698   0.317  0.7337 -0.8791 -2.3759
 2155SOL    HW216380   3.119   0.734   0.306  0.8137  0.3745  0.1215
 2156SOL     OW16381   3.694   4.271   0.581  0.2853 -0.7227 -0.3750
 2156SOL    HW116382   3.643   4.192   0.616  0.5200 -0.4875  0.5202
 2156SOL    HW216383   3.670   4.352   0.633 -0.2944 -0.0979 -1.5973
 2157SOL     OW16384   2.600   6.890   0.359  0.3851 -0.3455 -0.1423
 2157SOL    HW116385   2.540   6.946   0.416  1.8971  1.4503 -0.2665
 2157SOL    HW216386   2.674   6.947   0.323  1.1662 -2.1333 -1.4177
 2158SOL     OW16387   1.794   3.970   1.093 -0.5941 -1.1327  0.2020
 2158SOL    HW116388   1.840   3.892   1.049 -1.4712 -2.3088  1.3381
 2158SOL    HW216389   1.808   3.965   1.192  0.5583  0.9678  0.1780
 2159SOL     OW16390   1.913   2.635   2.604 -0.1531  0.5741 -0.1480
 2159SOL    HW116391   1.912   2.540   2.636 -0.4376  1.1965  1.7511
 2159SOL    HW216392   1.936   2.695   2.680 -0.2116  2.0550 -1.2913
 2160SOL     OW16393   3.307   9.908   1.944 -0.1064  0.0081 -0.5958
 2160SOL    HW116394   3.347   9.984   1.994 -1.1294  0.2567 -0.1575
 2160SOL    HW216395   3.366   9.827   1.953  0.8423  0.6654 -0.8462
 2161SOL     OW16396   3.567   1.195   2.318  0.0220 -0.1742  0.0814
 2161SOL    HW116397   3.476   1.194   2.275 -0.5476 -2.3554  1.2530
 2161SOL    HW216398   3.556   1.186   2.417  1.4343  2.0008  0.4562
 2162SOL     OW16399   0.832   5.025   1.768  0.6002 -0.7064 -0.7128
 2162SOL    HW116400   0.779   5.101   1.807  0.1727 -0.8769 -0.9508
 2162SOL    HW216401   0.877   4.975   1.841 -0.9317 -1.5729 -0.3340
 2163SOL     OW16402   1.959   3.008   2.286 -0.3354 -0.1347  0.3257
 2163SOL    HW116403   2.019   3.082   2.314 -0.4537  1.1426 -2.6255
 2163SOL    HW216404   2.001   2.920   2.308  2.2446  0.7380 -0.9496
 2164SOL     OW16405   2.275   6.964   2.272 -0.4979 -0.3681 -0.1690
 2164SOL    HW116406   2.285   6.877   2.223 -1.5433  1.2002 -3.2270
 2164SOL    HW216407   2.257   7.038   2.207  0.3554  2.1720  2.3911
 2165SOL     OW16408   2.982   5.090   1.822  0.4407  0.3058  0.1846
 2165SOL    HW116409   2.895   5.122   1.860  0.3183  2.3099 -1.6544
 2165SOL    HW216410   3.023   5.022   1.883 -2.2811 -0.4824  1.2106
 2166SOL     OW16411   3.071   0.421   0.801 -0.1903  0.1689 -0.3153
 2166SOL    HW116412   3.162   0.462   0.799  0.7216 -1.8307  0.0438
 2166SOL    HW216413   3.037   0.410   0.707  0.8114 -1.0167 -0.5400
 2167SOL     OW16414   3.209   7.592   2.476 -0.3839  0.9214  0.3526
 2167SOL    HW116415   3.176   7.543   2.557  0.2121  0.0172  0.0540
 2167SOL    HW216416   3.249   7.679   2.504 -1.6036  1.3272  0.8695
 2168SOL     OW16417   4.749   8.945   0.492  0.6493  0.1549 -0.4510
 2168SOL    HW116418   4.670   8.889   0.468 -0.9913  1.1269  2.4850
 2168SOL    HW216419   4.758   9.020   0.427 -0.9563  0.1359 -0.7125
 2169SOL     OW16420   2.427   5.511   0.384 -0.0449 -0.1232  0.3949
 2169SOL    HW116421   2.392   5.605   0.379 -0.0948 -0.1476  0.2825
 2169SOL    HW216422   2.497   5.506   0.455  1.4338  0.4673 -0.9783
 2170SOL     OW16423   3.289   8.653   0.660 -0.2762 -0.3183  0.1295
 2170SOL    HW116424   3.357   8.699   0.718 -0.2023  0.6625 -0.7330
 2170SOL    HW216425   3.326   8.642   0.568 -1.1970 -0.0166 -0.2753
 2171SOL     OW16426   2.425   6.012   1.387 -0.0401  0.3207 -0.5217
 2171SOL    HW116427   2.514   5.980   1.420  0.7875  0.4256 -2.6153
 2171SOL    HW216428   2.367   6.032   1.466  1.2344 -1.2286  0.8696
 2172SOL     OW16429   2.382   5.701   1.363 -0.9996  0.0751  0.2004
 2172SOL    HW116430   2.346   5.794   1.369  1.9085  1.3876 -1.1116
 2172SOL    HW216431   2.315   5.642   1.320 -1.7460  2.3378 -1.9101
 2173SOL     OW16432   4.560   2.737   0.232  0.6007 -0.6100 -0.1758
 2173SOL    HW116433   4.566   2.831   0.200  2.0763 -0.5981  0.0811
 2173SOL    HW216434   4.533   2.677   0.157  1.0370 -0.1667 -0.6913
 2174SOL     OW16435   3.392   0.537   1.333  0.1736 -0.5773 -0.0316
 2174SOL    HW116436   3.345   0.509   1.417 -0.4119 -2.2602 -0.9047
 2174SOL    HW216437   3.330   0.591   1.276  0.1079 -0.6874 -0.0630
 2175SOL     OW16438   3.332   2.656   0.001 -0.5488 -0.3679 -0.1795
 2175SOL    HW116439   3.239   2.679   0.029  0.3908  0.8067  2.1034
 2175SOL    HW216440   3.389   2.738   0.005  0.9615 -1.4112  0.0471
 2176SOL     OW16441   3.543   9.596   0.682  0.5201  0.2807  0.0947
 2176SOL    HW116442   3.589   9.674   0.725  3.1496 -0.3716 -1.4082
 2176SOL    HW216443   3.611   9.538   0.636 -2.0002  0.2152 -3.7814
 2177SOL     OW16444   2.175   4.784   2.669 -0.2531 -0.9764 -0.5545
 2177SOL    HW116445   2.104   4.716   2.651 -0.1817 -0.7066 -1.9068
 2177SOL    HW216446   2.163   4.862   2.609  1.3691 -1.0581 -1.0156
 2178SOL     OW16447   1.431   3.279   2.609 -0.2124 -0.4455  0.4769
 2178SOL    HW116448   1.455   3.326   2.524 -1.3874 -1.2641 -0.3261
 2178SOL    HW216449   1.464   3.185   2.606 -1.2593 -0.8182  0.4331
 2179SOL     OW16450   3.053   0.008   1.848 -0.2739  0.6368 -0.2119
 2179SOL    HW116451   3.103  -0.064   1.800 -1.3986 -1.4424  1.6501
 2179SOL    HW216452   3.103   0.035   1.930 -0.8753  0.4932  0.2060
 2180SOL     OW16453   0.753   3.957   1.101 -0.1400 -0.5194  0.1147
 2180SOL    HW116454   0.843   3.917   1.085 -0.0828 -0.4305  0.2106
 2180SOL    HW216455   0.747   3.987   1.197 -0.0749 -0.0232 -0.0378
 2181SOL     OW16456   3.118   5.763   0.682  0.7150 -0.1540  0.1842
 2181SOL    HW116457   3.082   5.741   0.592 -0.7244  0.1408  0.6882
 2181SOL    HW216458   3.187   5.836   0.673 -0.0724  0.5081 -0.5676
 2182SOL     OW16459   4.739   3.689   1.759  0.2065  0.0645  0.0917
 2182SOL    HW116460   4.655   3.654   1.801  0.4877  0.6061  1.1341
 2182SOL    HW216461   4.744   3.788   1.775  0.9816  0.0494 -0.0832
 2183SOL     OW16462   2.825   7.187   0.448  0.4126 -0.2596  0.4752
 2183SOL    HW116463   2.838   7.129   0.367  1.3930 -0.2070  0.5859
 2183SOL    HW216464   2.760   7.259   0.427  1.6693  0.5569 -0.6950
 2184SOL     OW16465   2.830   3.394   1.980 -0.5765  0.5638 -0.2586
 2184SOL    HW116466   2.834   3.317   1.917 -0.0978  0.0550  0.3852
 2184SOL    HW216467   2.880   3.471   1.942 -0.7620  0.4451 -0.7483
 2185SOL     OW16468   1.409   5.421   2.217  0.2473 -0.1266  0.6086
 2185SOL    HW116469   1.367   5.511   2.229 -0.8790 -0.6526  0.6817
 2185SOL    HW216470   1.340   5.350   2.233  0.8335 -0.9844 -0.6243
 2186SOL     OW16471   0.586   4.545   2.389 -0.3752  0.4192  0.1821
 2186SOL    HW116472   0.609   4.450   2.412  1.4534  1.3134  2.2433
 2186SOL    HW216473   0.612   4.563   2.294 -2.4822 -1.6516 -0.8326
 2187SOL     OW16474   4.020   8.939   1.522 -0.7840  0.6287 -0.0185
 2187SOL    HW116475   3.947   8.932   1.589 -1.0509 -2.0372 -0.5563
 2187SOL    HW216476   4.066   8.851   1.512 -0.0405  1.2417 -2.5503
 2188SOL     OW16477   0.618   5.662   0.915  0.6391  0.7539  0.1407
 2188SOL    HW116478   0.602   5.588   0.850  3.5466  0.1006  0.0905
 2188SOL    HW216479   0.707   5.649   0.960 -0.2455  2.4611  2.5237
 2189SOL     OW16480   3.701   4.493   0.361 -0.1881 -0.4598 -0.2381
 2189SOL    HW116481   3.746   4.421   0.414 -0.8623 -1.2757 -0.7637
 2189SOL    HW216482   3.603   4.492   0.379 -0.0500  1.0848  0.6299
 2190SOL     OW16483   2.367   5.776   0.713 -0.0277  0.3034 -0.2419
 2190SOL    HW116484   2.320   5.849   0.764  1.0986  0.4003  0.6751
 2190SOL    HW216485   2.448   5.747   0.764 -0.4352 -1.5545 -0.6464
 2191SOL     OW16486   3.386   2.688   0.778 -0.1945 -0.2796  0.1828
 2191SOL    HW116487   3.348   2.673   0.870 -0.2807  1.5932  0.4866
 2191SOL    HW216488   3.464   2.750   0.785  0.1688 -0.6097 -0.9457
 2192SOL     OW16489   3.295   6.034   2.502  0.0860 -0.1998 -0.2253
 2192SOL    HW116490   3.333   5.998   2.417  0.3602 -1.0559  0.2467
 2192SOL    HW216491   3.366   6.081   2.554  0.2273 -0.7939  0.1219
 2193SOL     OW16492   3.737   8.482   1.404  0.2069  0.1270 -0.7782
 2193SOL    HW116493   3.680   8.552   1.449 -1.1370  0.4484 -2.9349
 2193SOL    HW216494   3.830   8.517   1.395  0.0510  0.8022  0.0436
 2194SOL     OW16495   3.014   4.400   0.647 -0.3805 -0.0792 -0.2016
 2194SOL    HW116496   2.957   4.330   0.691 -0.2122 -0.4450 -0.5573
 2194SOL    HW216497   2.973   4.425   0.559  0.7248 -1.3315 -1.0829
 2195SOL     OW16498   9.056   5.281   1.051  0.1165 -0.5714  0.2844
 2195SOL    HW116499   9.107   5.201   1.082 -0.1685 -1.4998 -1.5876
 2195SOL    HW216500   8.991   5.254   0.981  1.5102  1.6168 -1.9286
 2196SOL     OW16501   3.221   9.955   2.551  0.5240  0.0424 -0.1101
 2196SOL    HW116502   3.263   9.894   2.484 -0.2274 -0.7039  0.0927
 2196SOL    HW216503   3.293  10.009   2.597  1.1495 -0.3847 -0.5850
 2197SOL     OW16504   5.232   3.009   0.239 -0.2461  0.1443  0.1835
 2197SOL    HW116505   5.284   2.934   0.198 -0.6640 -0.1886  0.2685
 2197SOL    HW216506   5.296   3.078   0.273  0.1393 -0.1802  0.1239
 2198SOL     OW16507   3.001   9.445   0.086  0.2527  0.7248  0.4787
 2198SOL    HW116508   3.037   9.532   0.121 -0.4063  0.6135  1.4445
 2198SOL    HW216509   2.984   9.383   0.163 -0.1584  0.0740 -0.1353
 2199SOL     OW16510   1.364   3.012   0.406 -0.4119 -0.0326  0.2514
 2199SOL    HW116511   1.398   3.033   0.498  0.6319  0.2958 -0.1939
 2199SOL    HW216512   1.389   3.087   0.344 -1.3327 -0.1342 -0.2472
 2200SOL     OW16513   3.464   4.539   0.510 -0.1806 -0.7360  0.5507
 2200SOL    HW116514   3.396   4.480   0.553 -0.0247  0.0532  1.9053
 2200SOL    HW216515   3.545   4.544   0.567  0.2945 -0.1904 -0.1597
 2201SOL     OW16516   2.569   5.096   0.867 -0.1409 -0.3957  0.1661
 2201SOL    HW116517   2.610   5.146   0.943  1.9011 -0.1049 -1.0826
 2201SOL    HW216518   2.592   4.999   0.875  0.8526 -0.2344 -0.5258
 2202SOL     OW16519   4.242   1.302   1.103 -0.3039 -0.0573 -0.3907
 2202SOL    HW116520   4.246   1.223   1.165 -0.5516  0.1270 -0.1370
 2202SOL    HW216521   4.174   1.286   1.032 -0.3722 -0.0604 -0.3244
 2203SOL     OW16522   3.907   1.945   2.049  0.1337  1.1948 -0.2219
 2203SOL    HW116523   3.944   2.036   2.027  3.9117 -0.1402  0.2270
 2203SOL    HW216524   3.896   1.937   2.148  1.0720  0.7376 -0.1472
 2204SOL     OW16525   4.309   2.885   0.760 -0.2986  0.1986 -0.2491
 2204SOL    HW116526   4.272   2.823   0.829  1.0266 -0.3028  0.0321
 2204SOL    HW216527   4.234   2.928   0.710 -1.2519 -1.1424 -0.0169
 2205SOL     OW16528   0.758   4.948   2.586  0.7098  0.0642 -0.6077
 2205SOL    HW116529   0.722   4.937   2.493  0.0372  0.6023 -0.4075
 2205SOL    HW216530   0.714   4.882   2.647  0.7265  0.1061 -0.5500
 2206SOL     OW16531   3.774   5.446   1.938 -0.6221  0.5072 -0.1984
 2206SOL    HW116532   3.707   5.499   1.886  0.8567 -0.1980 -2.8909
 2206SOL    HW216533   3.791   5.359   1.892  1.0024  0.0109  1.2850
 2207SOL     OW16534   1.606   3.934   2.665  0.8441 -0.3088  0.5197
 2207SOL    HW116535   1.572   3.924   2.571  1.5491 -0.0198  0.2261
 2207SOL    HW216536   1.549   3.881   2.727 -0.8376  1.0720  0.2057
 2208SOL     OW16537   1.458   6.307   0.046  0.6536  0.2456  0.2629
 2208SOL    HW116538   1.557   6.304   0.040  0.6480 -1.3282  0.5869
 2208SOL    HW216539   1.430   6.367   0.120  1.3756  0.4624  0.3574
 2209SOL     OW16540   2.801   6.766   2.396 -0.5298  0.0694 -0.1618
 2209SOL    HW116541   2.711   6.806   2.413 -0.7164  0.2861 -1.5647
 2209SOL    HW216542   2.851   6.757   2.482 -2.4103 -1.3241  0.8095
 2210SOL     OW16543   2.864   5.652   1.380  0.2205  0.2412  0.2610
 2210SOL    HW116544   2.859   5.640   1.479 -0.9177  0.6188  0.2560
 2210SOL    HW216545   2.840   5.746   1.357  0.3646  0.1223 -0.3864
 2211SOL     OW16546   2.820   8.307   2.739 -0.7335  0.3529 -0.7045
 2211SOL    HW116547   2.759   8.359   2.800  0.5247  0.2868  0.6508
 2211SOL    HW216548   2.914   8.313   2.774 -0.0961 -0.2469 -2.2930
 2212SOL     OW16549   3.476   9.610   2.741 -0.2739  0.1666 -0.2576
 2212SOL    HW116550   3.388   9.561   2.740 -0.5668  0.6953 -0.7959
 2212SOL    HW216551   3.507   9.621   2.835  0.0777 -1.5505 -0.1587
 2213SOL     OW16552   3.115   7.968   2.622 -0.0507  0.3036  0.0307
 2213SOL    HW116553   3.198   8.018   2.645 -0.4140  1.2565 -0.6822
 2213SOL    HW216554   3.096   7.979   2.524 -0.7424 -0.3208  0.0918
 2214SOL     OW16555   9.629   4.045   1.493  0.6355 -0.5772 -0.3552
 2214SOL    HW116556   9.711   3.989   1.499  2.3598  1.7998 -1.0639
 2214SOL    HW216557   9.626   4.109   1.569 -0.5058 -0.5597 -0.4007
 2215SOL     OW16558   4.132   3.138   1.046 -0.1945  1.1359  0.2629
 2215SOL    HW116559   4.105   3.052   1.089  0.9095  0.8066  0.3257
 2215SOL    HW216560   4.224   3.163   1.077 -1.3218  3.4263  1.8511
 2216SOL     OW16561   1.643   3.472   1.742  0.0852  0.0915  0.0239
 2216SOL    HW116562   1.718   3.409   1.724  0.0957  0.2248 -0.4079
 2216SOL    HW216563   1.656   3.515   1.831  0.3646 -0.1098  0.0808
 2217SOL     OW16564   3.445   1.865   1.608  0.2250  0.1330  0.4779
 2217SOL    HW116565   3.545   1.865   1.613  0.3205  1.7289 -0.9458
 2217SOL    HW216566   3.409   1.936   1.669  0.0254  0.3407  0.1214
 2218SOL     OW16567   0.026   4.543   1.974 -0.0838  0.2184 -0.2498
 2218SOL    HW116568   0.069   4.512   1.889  0.1663  0.7790 -0.3286
 2218SOL    HW216569  -0.066   4.578   1.954  0.8409  2.5304 -0.6607
 2219SOL     OW16570   4.191   0.323   1.355  0.1166  0.2964 -0.0537
 2219SOL    HW116571   4.195   0.226   1.330  0.8371  0.1345  0.6649
 2219SOL    HW216572   4.096   0.350   1.371 -0.2151  0.0358 -1.5142
 2220SOL     OW16573   2.962   9.886   0.305  0.6985  0.8522 -0.2220
 2220SOL    HW116574   2.947   9.974   0.259  0.4344  1.7132  1.4822
 2220SOL    HW216575   3.020   9.899   0.385  0.6112 -0.5322  0.0823
 2221SOL     OW16576   2.211   3.023   1.298 -0.2254 -0.3476  0.3816
 2221SOL    HW116577   2.150   3.070   1.235 -0.1929 -1.9345 -0.8737
 2221SOL    HW216578   2.158   2.964   1.359 -0.1236 -0.0373  0.7730
 2222SOL     OW16579   2.562   7.883   0.198 -0.1964  0.2338 -0.0986
 2222SOL    HW116580   2.645   7.902   0.145 -0.4781 -0.6652 -0.8754
 2222SOL    HW216581   2.561   7.939   0.281  1.3826 -0.0729  0.1248
 2223SOL     OW16582   2.476   4.211   1.780  0.1950 -0.0874 -0.1411
 2223SOL    HW116583   2.424   4.157   1.846  0.7425 -0.5358 -0.0758
 2223SOL    HW216584   2.440   4.305   1.777 -1.7662 -0.8400 -1.3802
 2224SOL     OW16585   3.631   8.822   2.330 -0.2780 -0.2680  0.3580
 2224SOL    HW116586   3.546   8.790   2.371 -0.3744  0.0305  0.3960
 2224SOL    HW216587   3.616   8.911   2.287 -0.1336 -0.4929 -0.1626
 2225SOL     OW16588   5.300   3.944   0.340 -0.1915  0.9880  0.4092
 2225SOL    HW116589   5.304   3.971   0.244 -1.2448 -0.9978 -0.2004
 2225SOL    HW216590   5.385   3.971   0.385  1.0740  0.2737 -1.5113
 2226SOL     OW16591   3.524   9.833   1.434  0.0393 -0.1139 -0.1475
 2226SOL    HW116592   3.554   9.912   1.380 -0.2035  1.6105  2.1638
 2226SOL    HW216593   3.596   9.764   1.435  0.7184  0.5584 -1.2698
 2227SOL     OW16594   3.830   8.204   0.422 -0.5861  0.6479 -0.4200
 2227SOL    HW116595   3.915   8.186   0.472 -0.3910 -1.9217 -1.5728
 2227SOL    HW216596   3.753   8.164   0.471 -0.6927  0.1324 -0.9988
 2228SOL     OW16597   3.911   2.228   0.195 -0.4762 -0.6897  0.0958
 2228SOL    HW116598   3.904   2.287   0.276 -0.5216 -2.4767  1.4387
 2228SOL    HW216599   3.819   2.210   0.159 -0.3955  0.8786 -0.9669
 2229SOL     OW16600   0.024   5.295   1.178 -0.2452  0.0541 -0.1789
 2229SOL    HW116601   0.068   5.206   1.171  0.6678  0.4068  0.8573
 2229SOL    HW216602   0.035   5.330   1.272 -0.5094  1.2889 -0.5985
 2230SOL     OW16603   3.750   5.136   2.076 -0.0747 -0.3520 -0.4269
 2230SOL    HW116604   3.656   5.157   2.048  0.0283  2.9336  1.5162
 2230SOL    HW216605   3.810   5.142   1.996 -1.0179  0.7221 -1.0709
 2231SOL     OW16606   3.813   0.752   1.360  0.6582 -0.2106  0.0726
 2231SOL    HW116607   3.759   0.681   1.315  1.6946  0.2263 -1.9343
 2231SOL    HW216608   3.907   0.720   1.371  1.5460  1.4387 -2.3829
 2232SOL     OW16609   3.152   5.266   0.806  0.7628 -0.0496  0.0744
 2232SOL    HW116610   3.216   5.223   0.742 -0.1938 -0.5821 -0.5400
 2232SOL    HW216611   3.067   5.213   0.809  1.4681 -1.1259  3.2167
 2233SOL     OW16612   4.597   3.390   2.386  0.0761  0.1983  0.5330
 2233SOL    HW116613   4.499   3.372   2.396  0.2162 -2.1792 -1.6089
 2233SOL    HW216614   4.626   3.367   2.293  3.0796 -1.3598  1.7388
 2234SOL     OW16615   4.476   2.292   0.095  0.2868  0.6030 -0.0506
 2234SOL    HW116616   4.391   2.265   0.141  0.1277 -1.1756 -1.2932
 2234SOL    HW216617   4.551   2.232   0.125  0.6691  0.9014 -0.4045
 2235SOL     OW16618   3.597   8.498   0.815 -0.8933 -0.1433 -0.0530
 2235SOL    HW116619   3.660   8.515   0.739 -1.3047  0.6508 -0.2223
 2235SOL    HW216620   3.647   8.456   0.891 -0.1641  0.4954 -0.1779
 2236SOL     OW16621   3.291   1.588   1.176  0.0219  0.3391  0.3705
 2236SOL    HW116622   3.344   1.627   1.251 -0.4310  0.8047  0.4482
 2236SOL    HW216623   3.280   1.490   1.192  0.3287  0.3500  0.6699
 2237SOL     OW16624   3.391   2.518   2.598 -0.0786  0.3499  0.5295
 2237SOL    HW116625   3.390   2.576   2.680  0.4005  0.9941  0.0923
 2237SOL    HW216626   3.472   2.540   2.543 -1.3620  1.2465 -1.0465
 2238SOL     OW16627   4.990   3.357   0.760 -0.0508  0.1843 -0.9888
 2238SOL    HW116628   4.980   3.450   0.795 -4.4235  0.3149 -2.2933
 2238SOL    HW216629   4.976   3.356   0.661  0.3476 -1.7962 -1.0605
 2239SOL     OW16630   1.596   5.144   2.057 -0.4271  0.3977 -0.3464
 2239SOL    HW116631   1.565   5.058   2.016 -0.5025  0.2174  0.0915
 2239SOL    HW216632   1.536   5.168   2.133  0.2574  0.2680  0.2343
 2240SOL     OW16633   4.428   9.039   1.044 -0.1415  0.0060 -0.2075
 2240SOL    HW116634   4.486   9.097   0.987  1.2000 -0.2477  0.8880
 2240SOL    HW216635   4.398   9.091   1.124 -2.3407  0.4870 -1.3023
 2241SOL     OW16636   9.558   4.397   0.657 -0.3593 -0.2515 -0.0454
 2241SOL    HW116637   9.472   4.443   0.679  0.4761  1.6661 -0.6668
 2241SOL    HW216638   9.617   4.395   0.738 -0.2710  0.0646 -0.1019
 2242SOL     OW16639   3.206   7.556   2.220 -0.3111 -0.2491  0.2207
 2242SOL    HW116640   3.283   7.491   2.216 -0.1278 -0.1407  1.5899
 2242SOL    HW216641   3.188   7.580   2.316  1.1431  3.5459 -0.3799
 2243SOL     OW16642   2.804   7.055   0.227  0.1595  0.3169 -0.4244
 2243SOL    HW116643   2.748   7.110   0.165 -0.9123  0.3888  0.5847
 2243SOL    HW216644   2.898   7.051   0.193  0.0341  1.9998 -0.9985
 2244SOL     OW16645   4.450   3.828   0.003 -0.1433 -0.0218 -0.4900
 2244SOL    HW116646   4.498   3.825  -0.085  0.0377 -1.5324 -0.3434
 2244SOL    HW216647   4.389   3.908   0.004  2.4335  2.0168 -0.6302
 2245SOL     OW16648   2.974   4.768   2.396  0.0922  0.1074 -0.1476
 2245SOL    HW116649   2.939   4.841   2.455  0.1767  0.6953 -0.8229
 2245SOL    HW216650   3.066   4.791   2.365 -0.2209  0.1301 -1.0730
 2246SOL     OW16651   3.994   2.566   0.494 -0.4505 -0.0265  0.2388
 2246SOL    HW116652   3.949   2.556   0.583 -1.8405  0.7084 -0.3663
 2246SOL    HW216653   3.999   2.663   0.469  2.2753 -0.0236  0.6782
 2247SOL     OW16654   2.362   3.535   2.749 -0.6147  0.3651  0.1940
 2247SOL    HW116655   2.264   3.553   2.763 -0.6002  1.8977 -1.4752
 2247SOL    HW216656   2.415   3.590   2.814 -0.8655 -0.7369  1.3392
 2248SOL     OW16657   3.390   2.822   1.151  0.4913  0.5644 -0.0526
 2248SOL    HW116658   3.387   2.909   1.201 -1.8472  0.4431  0.0588
 2248SOL    HW216659   3.413   2.748   1.214 -2.1482  0.4538  0.8314
 2249SOL     OW16660   9.806   4.696   2.512  0.1108 -0.3212 -1.1644
 2249SOL    HW116661   9.821   4.787   2.472 -0.3041 -0.2390 -1.1358
 2249SOL    HW216662   9.736   4.648   2.459  0.3046 -0.6115 -1.1574
 2250SOL     OW16663   3.665   1.918   1.934 -0.0734  0.2415  0.6326
 2250SOL    HW116664   3.764   1.922   1.949  0.2577  0.3068 -1.3457
 2250SOL    HW216665   3.630   1.828   1.959  0.8704 -0.4987 -0.6297
 2251SOL     OW16666   4.453   4.763   0.442 -0.5678  0.3459  0.1306
 2251SOL    HW116667   4.462   4.706   0.360  0.3312  1.4733 -0.5731
 2251SOL    HW216668   4.358   4.762   0.473 -0.6913 -0.9909 -0.2613
 2252SOL     OW16669   3.279   1.845   2.573  0.0779 -0.4792 -0.2856
 2252SOL    HW116670   3.180   1.844   2.565 -0.0804  0.2863  1.2776
 2252SOL    HW216671   3.319   1.774   2.515 -1.3504 -0.4998 -1.2540
 2253SOL     OW16672   2.466   3.164   1.712  0.1890  0.7394 -0.2343
 2253SOL    HW116673   2.528   3.087   1.720  1.8845  1.9484 -1.5216
 2253SOL    HW216674   2.392   3.141   1.649  0.4588  0.0345 -0.2925
 2254SOL     OW16675   4.106   8.644   1.918 -0.6970  0.5886 -0.4912
 2254SOL    HW116676   4.146   8.728   1.881  1.0923 -0.1574 -0.3115
 2254SOL    HW216677   4.144   8.565   1.869 -2.2305 -0.1453 -0.5466
 2255SOL     OW16678   4.681   1.097   2.689 -0.2725 -0.2791  0.3471
 2255SOL    HW116679   4.745   1.171   2.668 -0.5649 -0.6010 -1.8366
 2255SOL    HW216680   4.593   1.116   2.645 -1.4782 -0.1857  2.7213
 2256SOL     OW16681   3.138   7.544   1.236 -0.0854  0.2237 -0.0134
 2256SOL    HW116682   3.193   7.627   1.246  0.4113 -0.0766 -0.2710
 2256SOL    HW216683   3.042   7.570   1.223  0.4065  0.8724 -2.8153
 2257SOL     OW16684   0.491   4.890   1.958  0.3511 -0.2302 -0.9462
 2257SOL    HW116685   0.558   4.826   1.996  0.6378  1.2074  1.0318
 2257SOL    HW216686   0.399   4.858   1.979  0.4540 -0.9557 -1.5818
 2258SOL     OW16687   0.634   5.848   2.507  0.6320  0.4218 -0.2144
 2258SOL    HW116688   0.547   5.884   2.541  0.2525 -1.6804  1.0905
 2258SOL    HW216689   0.694   5.827   2.584  1.0637 -1.1899 -0.9704
 2259SOL     OW16690   4.828   8.631   0.818 -0.4243  0.6589 -0.0303
 2259SOL    HW116691   4.838   8.718   0.769 -1.1847  0.4998 -0.4759
 2259SOL    HW216692   4.913   8.578   0.809 -1.3234 -0.3422 -3.0983
 2260SOL     OW16693   4.273   9.140   2.250  0.5802 -0.0347  0.5490
 2260SOL    HW116694   4.290   9.043   2.266  3.0187  0.1576 -0.6256
 2260SOL    HW216695   4.187   9.152   2.201  1.0728 -1.7162 -0.7423
 2261SOL     OW16696   2.794   3.364   2.815  0.1094  0.6398 -0.4416
 2261SOL    HW116697   2.766   3.276   2.775  0.7517  0.9058 -1.4910
 2261SOL    HW216698   2.849   3.347   2.896 -1.8981  0.1006  0.8440
 2262SOL     OW16699   3.091   3.943   1.871  0.5650  0.5455  0.3953
 2262SOL    HW116700   3.075   4.041   1.868 -1.2306  0.3034  1.2680
 2262SOL    HW216701   3.004   3.895   1.879  1.3894 -1.1465 -0.4218
 2263SOL     OW16702   1.874   3.471   1.195 -0.4542  0.1674  0.3854
 2263SOL    HW116703   1.887   3.518   1.282  1.0153  1.6077 -0.5852
 2263SOL    HW216704   1.789   3.501   1.153 -0.5426  0.4164  0.7395
 2264SOL     OW16705   0.232   5.542   0.254 -0.2770 -0.3731  0.2917
 2264SOL    HW116706   0.256   5.629   0.210 -1.5887  0.4259  1.1197
 2264SOL    HW216707   0.296   5.524   0.329 -1.3107  1.0079  1.5409
 2265SOL     OW16708   0.482   5.505   0.108 -0.2695 -0.2567 -0.1261
 2265SOL    HW116709   0.406   5.451   0.145 -0.7532 -0.6059 -1.5902
 2265SOL    HW216710   0.560   5.445   0.091 -0.3279 -0.2426 -0.4414
 2266SOL     OW16711   0.179   4.280   2.820  0.2715 -0.1271  0.0596
 2266SOL    HW116712   0.084   4.250   2.834 -0.5140  2.3780  0.3798
 2266SOL    HW216713   0.241   4.203   2.833 -1.5721 -1.3407  2.0546
 2267SOL     OW16714   2.913   6.106   2.345  0.4316 -0.1482 -0.6121
 2267SOL    HW116715   2.814   6.091   2.341  0.8238 -3.1574 -0.1344
 2267SOL    HW216716   2.946   6.087   2.438  1.5669  0.0564 -0.9662
 2268SOL     OW16717   4.282   8.920   0.260  0.1449 -0.1646 -0.0015
 2268SOL    HW116718   4.256   8.930   0.356  0.6922 -0.3033  0.1670
 2268SOL    HW216719   4.250   8.999   0.208  0.7726  0.4394  0.5037
 2269SOL     OW16720   3.290   9.666   1.652  0.1193  0.3844 -0.0896
 2269SOL    HW116721   3.201   9.627   1.674  1.0034 -1.6013  0.0777
 2269SOL    HW216722   3.298   9.676   1.553 -0.5579  1.2199 -0.0595
 2270SOL     OW16723   3.568   1.186   2.602  0.7555 -0.0630 -0.2447
 2270SOL    HW116724   3.592   1.115   2.668  2.3474  0.6012 -0.0799
 2270SOL    HW216725   3.513   1.257   2.647 -1.2844 -1.4072 -0.5311
 2271SOL     OW16726   3.579   5.798   2.120  0.2048 -0.9090 -0.0154
 2271SOL    HW116727   3.515   5.790   2.044 -0.2197 -1.6820  0.4173
 2271SOL    HW216728   3.620   5.708   2.138 -2.8972 -1.7483  3.4443
 2272SOL     OW16729   3.314   2.198   1.090  0.1417 -0.8765  0.6601
 2272SOL    HW116730   3.243   2.139   1.052  0.7994 -1.2624  0.0111
 2272SOL    HW216731   3.325   2.178   1.188 -1.4184 -0.0173  1.0321
 2273SOL     OW16732   0.644   5.869   0.695  0.6285  0.1282  0.9150
 2273SOL    HW116733   0.567   5.838   0.751  0.1788  4.0276  2.6243
 2273SOL    HW216734   0.707   5.792   0.680 -2.1345 -2.4158  1.8876
 2274SOL     OW16735   4.320   8.618   2.173 -0.1338  0.0300  0.5752
 2274SOL    HW116736   4.263   8.659   2.101  0.9455 -2.0446 -1.5421
 2274SOL    HW216737   4.339   8.523   2.149  2.6543  0.1374  2.1853
 2275SOL     OW16738   9.817   4.592   2.168  0.0462 -0.9523  0.5578
 2275SOL    HW116739   9.802   4.686   2.138  0.4999 -1.0919 -0.1000
 2275SOL    HW216740   9.913   4.566   2.153  0.2243 -1.0981  1.9072
 2276SOL     OW16741   3.027   1.771   0.908  0.0902 -0.3808 -0.7883
 2276SOL    HW116742   3.082   1.807   0.983 -2.0615  0.4790  0.3931
 2276SOL    HW216743   3.043   1.825   0.826  1.3907 -0.4723 -0.6153
 2277SOL     OW16744   2.449   3.848   0.378  0.1371 -0.3151 -0.0553
 2277SOL    HW116745   2.357   3.856   0.341 -0.4516 -0.0640  1.4371
 2277SOL    HW216746   2.499   3.777   0.328 -0.7721 -0.2758 -1.0331
 2278SOL     OW16747   3.739   1.869   0.411 -0.3056 -0.0558 -0.4153
 2278SOL    HW116748   3.718   1.885   0.314  2.9647 -4.0757 -1.8942
 2278SOL    HW216749   3.690   1.788   0.443 -0.7175  0.7793  1.1415
 2279SOL     OW16750   3.381   1.867   0.382 -0.0670  0.4589  0.0244
 2279SOL    HW116751   3.331   1.951   0.404 -0.0891  0.8986 -1.6218
 2279SOL    HW216752   3.429   1.834   0.463 -1.0402  1.3960  0.9908
 2280SOL     OW16753   9.826   5.425   0.959 -0.2496  0.2029 -0.1047
 2280SOL    HW116754   9.901   5.403   1.020  0.4729  1.9019 -0.3410
 2280SOL    HW216755   9.793   5.342   0.914 -0.7257 -1.0493  2.4857
 2281SOL     OW16756   2.247   3.175   1.522  0.5692  0.4968  0.2666
 2281SOL    HW116757   2.162   3.225   1.535  1.9575  3.3756 -1.3672
 2281SOL    HW216758   2.246   3.128   1.434  1.1893  1.6100 -0.3368
 2282SOL     OW16759   2.987   9.322   2.223  0.8028  0.6236 -0.2622
 2282SOL    HW116760   3.044   9.243   2.245  1.6052  1.7588  1.7727
 2282SOL    HW216761   2.964   9.320   2.125 -0.4421 -2.9132  0.0537
 2283SOL     OW16762   2.277   3.856   1.641 -0.3109 -0.3212  0.3338
 2283SOL    HW116763   2.257   3.824   1.734 -0.1701 -2.4273 -0.3544
 2283SOL    HW216764   2.373   3.883   1.635 -0.7311  1.5284  1.2524
 2284SOL     OW16765   3.899   9.347   1.219  0.1882  0.1457  0.2838
 2284SOL    HW116766   3.811   9.347   1.171 -0.1230 -0.7362  0.8545
 2284SOL    HW216767   3.908   9.263   1.272  1.8454 -0.2637 -0.6210
 2285SOL     OW16768   4.235   2.672   0.930  0.5029  0.5827  0.6009
 2285SOL    HW116769   4.161   2.620   0.888  1.7566  0.3332 -1.3672
 2285SOL    HW216770   4.253   2.637   1.022 -2.2287  1.0694  1.3666
 2286SOL     OW16771   3.383   8.848   1.097 -0.7830  0.0517  0.3841
 2286SOL    HW116772   3.474   8.869   1.060 -1.1094 -1.5159 -1.3802
 2286SOL    HW216773   3.334   8.788   1.033 -1.7760 -1.8882  2.8677
 2287SOL     OW16774   2.076   2.175   0.178 -0.4520  0.1458 -0.2888
 2287SOL    HW116775   2.073   2.270   0.147  0.6293 -0.1716 -1.4156
 2287SOL    HW216776   2.023   2.118   0.115  0.9776 -0.3592 -1.0665
 2288SOL     OW16777   0.911   4.527   2.078  0.0627 -0.1524  1.1397
 2288SOL    HW116778   0.984   4.484   2.131  1.2040  0.9886  0.5284
 2288SOL    HW216779   0.948   4.606   2.029 -0.9419 -1.1655 -1.3671
 2289SOL     OW16780   1.971   4.001   0.750  0.0886  0.3974 -0.2181
 2289SOL    HW116781   1.954   4.060   0.671 -1.5854 -0.0496 -0.2165
 2289SOL    HW216782   2.068   4.002   0.772  0.1723  2.7497 -0.5373
 2290SOL     OW16783   3.214   2.684   1.021 -0.5126 -0.5210 -0.1550
 2290SOL    HW116784   3.283   2.748   1.057 -0.9491 -0.3038  0.3004
 2290SOL    HW216785   3.130   2.734   1.000 -0.4812 -0.7596 -0.8593
 2291SOL     OW16786   1.582   6.097   0.228  0.2875 -0.3251  0.6587
 2291SOL    HW116787   1.630   6.182   0.206  0.2544 -0.2454  0.8993
 2291SOL    HW216788   1.522   6.111   0.306 -0.2522 -0.3846  0.2554
 2292SOL     OW16789   0.145   4.238   0.577 -1.1697  0.1265 -0.3518
 2292SOL    HW116790   0.058   4.216   0.622  0.5446 -2.4881  1.8839
 2292SOL    HW216791   0.146   4.199   0.485 -1.8401 -1.0752  0.1414
 2293SOL     OW16792   1.621   4.417   1.290  0.3488 -0.5856 -0.1855
 2293SOL    HW116793   1.706   4.416   1.238  0.5686  0.4988  0.1305
 2293SOL    HW216794   1.641   4.400   1.387  0.7191  3.2152  0.5245
 2294SOL     OW16795   0.949   3.878   0.311 -0.4750  0.2180  0.3899
 2294SOL    HW116796   0.932   3.792   0.359 -0.2949  0.2570  0.5202
 2294SOL    HW216797   0.982   3.858   0.219 -0.6680  0.1455  0.3358
 2295SOL     OW16798   0.819   5.345   0.484 -0.0826 -0.3561  0.9803
 2295SOL    HW116799   0.916   5.345   0.509  0.3809  0.3683 -0.7690
 2295SOL    HW216800   0.806   5.392   0.397 -1.9347 -0.9549  0.8948
 2296SOL     OW16801   2.881   9.247   2.752 -0.4486 -0.2578  0.3036
 2296SOL    HW116802   2.971   9.245   2.709 -0.9838  1.1241 -0.9240
 2296SOL    HW216803   2.881   9.313   2.828 -0.9293  1.1490 -0.8968
 2297SOL     OW16804   3.009   3.063   2.296 -0.9445 -1.2379 -0.1289
 2297SOL    HW116805   2.909   3.055   2.292 -1.0347 -0.9089  1.4853
 2297SOL    HW216806   3.043   3.021   2.380  0.0578  0.8508  0.5452
 2298SOL     OW16807   0.571   3.863   0.564  0.2775  0.3079  0.2533
 2298SOL    HW116808   0.657   3.872   0.615  0.4801 -1.8294  0.3070
 2298SOL    HW216809   0.537   3.770   0.573 -0.1176  0.1259 -2.8545
 2299SOL     OW16810   4.086   9.251   0.600 -0.2867 -0.0089 -0.2418
 2299SOL    HW116811   4.150   9.259   0.677  0.3696 -2.3720 -0.5098
 2299SOL    HW216812   3.992   9.265   0.633  0.0428 -0.4238  0.8856
 2300SOL     OW16813   3.072   2.826   0.708  0.0131  0.1820  0.0112
 2300SOL    HW116814   3.133   2.879   0.767 -0.6233  1.1077 -0.1478
 2300SOL    HW216815   3.069   2.732   0.739 -0.0245  0.5820  1.2337
 2301SOL     OW16816   4.526   4.535   2.687 -0.1357 -0.0204 -0.1742
 2301SOL    HW116817   4.523   4.631   2.661 -0.4023  0.4886  1.7135
 2301SOL    HW216818   4.433   4.503   2.707  0.3064  0.1833  2.2488
 2302SOL     OW16819   3.838   8.900   0.340 -0.2244  0.5916  0.1782
 2302SOL    HW116820   3.747   8.894   0.381 -0.4763  0.8299 -0.3396
 2302SOL    HW216821   3.902   8.936   0.408 -0.2286 -0.8841  0.9808
 2303SOL     OW16822   3.650   4.516   0.700 -1.0934 -0.4182  0.3609
 2303SOL    HW116823   3.583   4.555   0.763 -1.5165  0.6528 -0.7339
 2303SOL    HW216824   3.740   4.514   0.743 -1.7324 -1.4285  1.6726
 2304SOL     OW16825   3.999   9.302   1.658  0.5020 -0.4368 -0.3052
 2304SOL    HW116826   4.012   9.367   1.583  0.7965 -1.0531 -0.7955
 2304SOL    HW216827   3.974   9.212   1.621 -1.3080 -0.2674  0.4297
 2305SOL     OW16828   0.779   4.777   1.582 -0.2864 -0.6490 -0.4172
 2305SOL    HW116829   0.803   4.863   1.628 -0.1227 -1.5224  1.1881
 2305SOL    HW216830   0.686   4.784   1.546 -0.6274 -0.1007  0.5272
 2306SOL     OW16831   9.602   4.923   1.475  0.2014  0.3762 -0.0283
 2306SOL    HW116832   9.511   4.927   1.515  0.2263  0.5149  0.0159
 2306SOL    HW216833   9.595   4.900   1.378  0.2096 -1.1428  0.3225
 2307SOL     OW16834   0.124   5.338   2.111  0.6165  0.4071 -0.2128
 2307SOL    HW116835   0.148   5.428   2.075 -0.5665  1.2081  0.9486
 2307SOL    HW216836   0.142   5.336   2.210  2.7280 -1.3775 -0.6022
 2308SOL     OW16837   3.483   4.732   2.481 -0.3771 -0.4994 -0.1126
 2308SOL    HW116838   3.534   4.814   2.507  0.4862 -0.8537 -0.6588
 2308SOL    HW216839   3.439   4.694   2.562 -1.9127  1.2612 -0.0894
 2309SOL     OW16840   1.207   4.103   1.996  0.0794 -0.0459 -0.3106
 2309SOL    HW116841   1.202   4.081   2.093  1.2847  1.3470  0.0876
 2309SOL    HW216842   1.133   4.165   1.971 -0.7331 -1.0688 -0.4804
 2310SOL     OW16843   3.319   9.896   0.303  0.1849 -0.1384  0.0936
 2310SOL    HW116844   3.246   9.916   0.368  1.7860  2.7911  1.0472
 2310SOL    HW216845   3.302   9.945   0.217 -0.0787 -1.2102 -0.4838
 2311SOL     OW16846   0.716   3.766   2.816  0.2126 -0.4356  0.5400
 2311SOL    HW116847   0.631   3.769   2.870 -0.5205 -1.4747 -0.5580
 2311SOL    HW216848   0.752   3.859   2.806 -2.2534  0.3683 -1.2738
 2312SOL     OW16849   4.616   4.759   0.691 -0.2773  0.0697  0.6428
 2312SOL    HW116850   4.570   4.736   0.605 -1.3935 -0.7966  1.4695
 2312SOL    HW216851   4.690   4.695   0.707 -1.2757 -0.9356  1.2758
 2313SOL     OW16852   4.786   2.884   0.834  0.2711 -0.3802 -0.5405
 2313SOL    HW116853   4.764   2.911   0.928 -0.9582  0.8839 -1.1642
 2313SOL    HW216854   4.706   2.841   0.792  0.0738  1.0963 -1.7178
 2314SOL     OW16855   2.774   7.977   0.043 -0.2210 -0.0165  0.4789
 2314SOL    HW116856   2.769   8.077   0.043  1.8541  0.1033  1.6909
 2314SOL    HW216857   2.751   7.943  -0.048 -0.7874  1.5656  0.0096
 2315SOL     OW16858   3.747   2.021   1.306 -0.8104 -0.2805 -0.0987
 2315SOL    HW116859   3.800   2.104   1.320 -2.0529  0.5150  0.0106
 2315SOL    HW216860   3.721   1.982   1.394 -2.4206  0.6674 -0.1320
 2316SOL     OW16861   2.599   8.490   0.955 -1.2331 -0.0743  0.6340
 2316SOL    HW116862   2.682   8.452   0.996 -1.0567  0.2923  0.6184
 2316SOL    HW216863   2.609   8.495   0.856 -0.4407  1.9374  0.7914
 2317SOL     OW16864   2.409   5.412   2.066 -0.0340  0.3064  0.1017
 2317SOL    HW116865   2.324   5.362   2.048 -0.3187  0.7858  0.0961
 2317SOL    HW216866   2.476   5.351   2.108  0.0490 -0.3983 -1.0460
 2318SOL     OW16867   4.020   4.370   1.115 -0.3120  0.1566  0.7218
 2318SOL    HW116868   3.956   4.296   1.135  0.3781 -0.2562  1.4151
 2318SOL    HW216869   4.013   4.440   1.187 -0.0143  0.1364  0.7684
 2319SOL     OW16870   2.887   6.959   1.433 -0.0684 -0.5551 -0.3877
 2319SOL    HW116871   2.803   6.977   1.484  0.7963  1.3843  0.4314
 2319SOL    HW216872   2.925   6.871   1.460 -1.6858 -1.3141 -0.5611
 2320SOL     OW16873   9.832   4.972   1.629 -0.8062  0.1170 -0.1087
 2320SOL    HW116874   9.751   4.950   1.575 -1.1767 -1.4883  1.0502
 2320SOL    HW216875   9.805   5.010   1.717 -0.2422  1.3283 -0.4468
 2321SOL     OW16876   3.645   8.156   1.021 -0.0355 -0.1005  0.1572
 2321SOL    HW116877   3.668   8.249   1.047 -1.7069  1.1931 -2.8067
 2321SOL    HW216878   3.716   8.118   0.963 -0.6883  0.3588 -0.9503
 2322SOL     OW16879   3.396   2.408   0.827  0.1276  0.3581 -0.3223
 2322SOL    HW116880   3.301   2.396   0.801 -0.3514  0.8880  1.1289
 2322SOL    HW216881   3.425   2.502   0.806 -0.2819  0.8104  1.0309
 2323SOL     OW16882   2.373   1.496   2.239 -0.5459  0.2844  0.2158
 2323SOL    HW116883   2.342   1.587   2.210 -0.5076  0.4134  0.5728
 2323SOL    HW216884   2.356   1.430   2.166  0.0622  0.7072 -0.3108
 2324SOL     OW16885   3.126   2.571   1.904 -0.2117 -0.5350  0.2421
 2324SOL    HW116886   3.174   2.561   1.817  0.8048  0.5822  0.6588
 2324SOL    HW216887   3.051   2.505   1.908  1.8510 -2.9669 -0.0283
 2325SOL     OW16888   4.026   1.258   0.559 -0.3795 -0.7089 -0.5066
 2325SOL    HW116889   3.945   1.285   0.508  1.0231  1.5957 -1.5935
 2325SOL    HW216890   4.040   1.320   0.636  1.7304  0.4392 -1.7956
 2326SOL     OW16891   1.994   2.746   0.691  0.1845  0.6129  0.1392
 2326SOL    HW116892   2.080   2.795   0.677  1.2055 -1.1133  0.1706
 2326SOL    HW216893   1.964   2.757   0.785  1.1050  0.0992  0.4996
 2327SOL     OW16894   3.059   2.705   2.799 -0.1041  0.2053 -0.1206
 2327SOL    HW116895   3.013   2.616   2.804 -0.9451  0.6561  0.2954
 2327SOL    HW216896   3.018   2.760   2.725 -1.2742  1.1702  1.2025
 2328SOL     OW16897   1.052   5.502   0.232 -0.5972  0.1585 -0.1331
 2328SOL    HW116898   1.041   5.439   0.155 -0.4909 -1.2932  0.9977
 2328SOL    HW216899   0.967   5.551   0.248 -1.3277 -1.1877  0.2127
 2329SOL     OW16900   4.099   9.976   2.382 -0.0684  0.4560  0.4125
 2329SOL    HW116901   4.098  10.017   2.473 -1.7142  2.2593 -0.3714
 2329SOL    HW216902   4.069   9.881   2.388 -1.6214  1.0021  1.5768
 2330SOL     OW16903   3.070   7.980   1.927  0.1070 -0.4157  0.2109
 2330SOL    HW116904   3.120   7.897   1.950 -0.0613 -0.8098 -0.7974
 2330SOL    HW216905   2.972   7.962   1.929  0.0798 -0.3821 -0.4830
 2331SOL     OW16906   3.683   0.254   1.531 -0.9077 -0.4046  0.0356
 2331SOL    HW116907   3.708   0.349   1.550  1.5503 -1.0640  0.2652
 2331SOL    HW216908   3.646   0.212   1.614  1.0507 -0.5506  0.8788
 2332SOL     OW16909   3.648   2.866   0.882  0.0515 -0.1767  0.1271
 2332SOL    HW116910   3.722   2.910   0.932  0.2006  0.3449 -0.5480
 2332SOL    HW216911   3.680   2.838   0.792  0.2416 -2.5681  0.8945
 2333SOL     OW16912   3.606   2.258   2.401 -0.7552 -0.0764  0.5525
 2333SOL    HW116913   3.527   2.197   2.402 -1.4567  0.7450 -1.1901
 2333SOL    HW216914   3.623   2.292   2.493 -0.8098 -2.2971  1.4089
 2334SOL     OW16915   3.659   5.510   2.180 -0.1536 -0.2177 -0.6246
 2334SOL    HW116916   3.570   5.467   2.192 -0.2954  0.2418 -0.0117
 2334SOL    HW216917   3.700   5.478   2.095 -0.6767 -0.8232 -0.6513
 2335SOL     OW16918   3.112   2.936   2.525  0.0977  0.1731 -0.6454
 2335SOL    HW116919   3.178   3.006   2.555 -1.1346  0.4154  1.5837
 2335SOL    HW216920   3.152   2.845   2.536  0.1330  0.3286  0.5293
 2336SOL     OW16921   2.601   2.533   2.436  0.2251  0.1263  0.1056
 2336SOL    HW116922   2.507   2.563   2.419 -0.4068 -0.3401  2.5614
 2336SOL    HW216923   2.614   2.441   2.399 -1.3453 -1.1696  2.6110
 2337SOL     OW16924   1.023   4.287   1.867 -0.1319 -0.3667 -0.3539
 2337SOL    HW116925   1.048   4.384   1.857  1.0451 -0.6277 -0.0392
 2337SOL    HW216926   0.934   4.271   1.824 -0.0821  0.7479 -0.8979
 2338SOL     OW16927   1.431   2.806   0.238 -0.4224  0.1654 -0.2815
 2338SOL    HW116928   1.453   2.867   0.161 -0.8366 -0.0974 -0.6121
 2338SOL    HW216929   1.396   2.860   0.314  0.6700  0.5073 -0.0137
 2339SOL     OW16930   0.550   4.555   2.647 -0.5285  0.1861  0.2230
 2339SOL    HW116931   0.544   4.552   2.547 -0.2625  0.4453  0.1999
 2339SOL    HW216932   0.604   4.477   2.679 -2.8238 -1.3948  0.3428
 2340SOL     OW16933   1.241   5.467   0.975  0.4686  0.4854 -0.4270
 2340SOL    HW116934   1.159   5.522   0.962  0.0509  0.1579  0.7696
 2340SOL    HW216935   1.233   5.381   0.924  0.8616  1.2469 -1.7997
 2341SOL     OW16936   1.793   3.161   1.313  0.0313  0.6616  0.3513
 2341SOL    HW116937   1.770   3.226   1.240 -2.9933 -0.2521  0.4365
 2341SOL    HW216938   1.715   3.150   1.374  0.9139 -2.1268  1.0653
 2342SOL     OW16939   5.011   2.842   2.257  0.2300  0.0974 -0.6609
 2342SOL    HW116940   5.108   2.829   2.233  0.3773 -1.0455  0.4900
 2342SOL    HW216941   4.968   2.902   2.190  1.5351 -0.0613 -1.6670
 2343SOL     OW16942   9.025   5.353   1.316  0.3833 -0.3082 -0.1722
 2343SOL    HW116943   9.080   5.436   1.326  2.1194 -1.4017 -0.5885
 2343SOL    HW216944   9.015   5.331   1.219 -0.2687 -0.4771 -0.0711
 2344SOL     OW16945   9.832   5.028   0.078 -0.0657  0.3840  0.7219
 2344SOL    HW116946   9.842   5.004   0.174 -0.4870  0.1899  0.7181
 2344SOL    HW216947   9.739   5.007   0.047  0.5110 -1.0217 -0.1261
 2345SOL     OW16948   2.260   3.481   1.579 -0.0201  0.4378  0.2769
 2345SOL    HW116949   2.228   3.388   1.558 -2.1145  0.8962  1.2902
 2345SOL    HW216950   2.248   3.539   1.498  0.5436  0.0192 -0.1102
 2346SOL     OW16951   2.566   6.562   1.051  0.5823 -0.6557  0.4870
 2346SOL    HW116952   2.637   6.503   1.088  0.1626 -1.0902  0.6044
 2346SOL    HW216953   2.514   6.603   1.126 -0.0993 -1.3321  0.3991
 2347SOL     OW16954   5.523   4.065   0.505 -0.6709 -0.1775  0.7792
 2347SOL    HW116955   5.460   4.046   0.581  0.2944  0.6362  1.8071
 2347SOL    HW216956   5.610   4.020   0.522 -0.9065 -1.1705 -0.5645
 2348SOL     OW16957   9.084   4.653   0.325 -0.0994 -0.2115 -0.6331
 2348SOL    HW116958   9.161   4.716   0.319 -0.1422 -0.2386 -1.4948
 2348SOL    HW216959   9.115   4.564   0.359 -0.1025  0.3734  0.9373
 2349SOL     OW16960   3.923   1.933   0.789 -0.2062  0.3395 -0.9884
 2349SOL    HW116961   3.965   1.858   0.737  0.9921  1.7658 -2.1302
 2349SOL    HW216962   3.986   1.962   0.861  0.3965  1.8332 -2.0843
 2350SOL     OW16963   1.132   4.109   0.873 -0.0550  0.4719 -0.1981
 2350SOL    HW116964   1.146   4.186   0.935  1.3185  0.2838 -0.2794
 2350SOL    HW216965   1.060   4.050   0.910  0.9972  0.1680  1.4152
 2351SOL     OW16966   5.163   2.606   2.471 -0.4251  0.2946 -0.3270
 2351SOL    HW116967   5.192   2.592   2.566  1.0966 -0.3039 -0.8731
 2351SOL    HW216968   5.122   2.696   2.463  0.6172  0.8791  0.6376
 2352SOL     OW16969   2.747   5.848   2.538  0.4272  0.1716 -0.3339
 2352SOL    HW116970   2.716   5.899   2.458  1.2944 -2.9459 -2.7138
 2352SOL    HW216971   2.840   5.815   2.523 -0.7464 -3.6368  0.3429
 2353SOL     OW16972   2.598   4.126   1.546  0.3626  0.0184 -0.0666
 2353SOL    HW116973   2.564   4.178   1.625 -0.4094 -0.8158  0.1663
 2353SOL    HW216974   2.586   4.028   1.563 -0.2396 -0.1617 -1.3994
 2354SOL     OW16975   3.074   8.948   2.059  0.2149 -0.6139  0.1925
 2354SOL    HW116976   3.098   8.922   2.153 -0.2665 -0.5318  0.3369
 2354SOL    HW216977   3.137   9.019   2.027  0.1995 -0.4355  0.5546
 2355SOL     OW16978   9.229   5.493   2.684 -0.6350 -0.1110  0.8457
 2355SOL    HW116979   9.329   5.482   2.688 -0.2747  1.8456 -1.4611
 2355SOL    HW216980   9.197   5.536   2.768  0.3378 -1.6058  1.9918
 2356SOL     OW16981   1.688   6.364   0.874 -0.1528  0.2275 -0.1994
 2356SOL    HW116982   1.681   6.335   0.778 -0.8802  0.8768 -0.3460
 2356SOL    HW216983   1.783   6.385   0.895 -0.0816  0.6803 -0.9533
 2357SOL     OW16984   4.062   8.245   0.585 -0.0539 -0.6934  0.3725
 2357SOL    HW116985   4.152   8.203   0.600  0.6924  0.4800 -0.7121
 2357SOL    HW216986   4.069   8.314   0.513 -2.5651 -3.1225 -2.3307
 2358SOL     OW16987   2.346   3.357   0.779  0.0521 -0.1658 -0.1811
 2358SOL    HW116988   2.355   3.425   0.705 -0.1752  0.0687  0.0052
 2358SOL    HW216989   2.325   3.404   0.864  0.0697 -0.4602 -0.0163
 2359SOL     OW16990   0.328   4.538   1.801  0.3409  0.2406 -0.5321
 2359SOL    HW116991   0.397   4.486   1.851  0.1974  1.1373  0.6279
 2359SOL    HW216992   0.298   4.616   1.857 -1.2760  0.1218 -1.2042
 2360SOL     OW16993   2.425   1.694   0.649  0.5252  0.3395  0.0521
 2360SOL    HW116994   2.502   1.728   0.704 -0.4131  0.6569  1.1917
 2360SOL    HW216995   2.455   1.680   0.555  1.7202  1.4051  0.2627
 2361SOL     OW16996   2.080   5.579   0.005  0.0767  0.3000 -0.2116
 2361SOL    HW116997   1.981   5.588  -0.005  0.0044 -1.2286 -0.9797
 2361SOL    HW216998   2.122   5.670  -0.000 -1.2958  0.9791  0.3434
 2362SOL     OW16999   2.221   7.087   0.888 -0.2639  0.1814 -0.2730
 2362SOL    HW117000   2.143   7.095   0.949  0.0844  0.8543  0.0915
 2362SOL    HW217001   2.294   7.148   0.918  0.1482  0.0609 -0.9970
 2363SOL     OW17002   4.269   2.993   0.178 -0.1507 -0.2733 -0.8682
 2363SOL    HW117003   4.211   3.004   0.097 -3.2009 -0.4930  1.1984
 2363SOL    HW217004   4.266   2.897   0.208 -1.4616  0.3816  1.1940
 2364SOL     OW17005   3.120   7.119   0.946  0.7843  0.6190  0.3350
 2364SOL    HW117006   3.051   7.102   0.876  0.5378  1.3074  0.4033
 2364SOL    HW217007   3.141   7.034   0.995  0.9884  0.1286 -0.5995
 2365SOL     OW17008   2.549   2.646   0.337 -0.0068 -0.0118 -0.5632
 2365SOL    HW117009   2.542   2.603   0.247  0.8432  2.3960 -1.8118
 2365SOL    HW217010   2.472   2.616   0.394 -0.3948 -1.7799 -1.9753
 2366SOL     OW17011   4.072   2.528   1.345 -0.5299  0.3590 -0.2014
 2366SOL    HW117012   4.069   2.531   1.445 -0.3482  1.1906 -0.2167
 2366SOL    HW217013   3.982   2.505   1.310 -1.4596  3.4702  0.0434
 2367SOL     OW17014   0.828   5.450   2.005 -0.5145  0.4812 -0.6091
 2367SOL    HW117015   0.796   5.389   1.932  1.2481 -0.2045 -0.8391
 2367SOL    HW217016   0.806   5.410   2.094  1.2950 -0.9204 -0.7464
 2368SOL     OW17017   0.998   3.790   0.053 -0.4213 -0.6302 -0.1749
 2368SOL    HW117018   1.000   3.864  -0.015 -0.7554 -0.4773 -0.0207
 2368SOL    HW217019   0.908   3.746   0.051 -1.0223  0.4854  1.3495
 2369SOL     OW17020   3.775   9.348   0.324  0.2242  0.7229  0.1375
 2369SOL    HW117021   3.867   9.311   0.315  0.4556  1.7292 -1.8382
 2369SOL    HW217022   3.758   9.372   0.419  2.0051  0.5345  0.5189
 2370SOL     OW17023   2.445   3.753   1.392  0.0613  0.0538  0.0971
 2370SOL    HW117024   2.375   3.694   1.352  1.8120 -0.2349 -2.6809
 2370SOL    HW217025   2.495   3.703   1.463 -0.4498 -0.7722 -0.1286
 2371SOL     OW17026   4.474   4.283   0.465  0.3695  0.2713 -1.0511
 2371SOL    HW117027   4.568   4.273   0.498  0.9967 -0.0315 -2.8560
 2371SOL    HW217028   4.465   4.236   0.378 -0.7075  2.6570 -2.2656
 2372SOL     OW17029   4.496   0.385   1.932 -0.7469  0.5308  0.3855
 2372SOL    HW117030   4.586   0.361   1.968  1.1806  2.5371 -2.8375
 2372SOL    HW217031   4.426   0.366   2.001  2.2189 -0.1369  3.3304
 2373SOL     OW17032   1.017   6.096   0.661  0.3634 -0.2916  0.0266
 2373SOL    HW117033   0.970   6.122   0.576 -2.4892 -1.1333  1.2832
 2373SOL    HW217034   1.041   5.999   0.657  1.3881 -0.0349 -0.3066
 2374SOL     OW17035   2.693   4.747   1.783 -0.2655  0.0679 -0.2743
 2374SOL    HW117036   2.789   4.767   1.763 -0.2317  0.1077 -0.0703
 2374SOL    HW217037   2.637   4.769   1.703 -0.1214  0.1620 -0.3496
 2375SOL     OW17038   4.195   4.681   0.528  0.2833 -0.0859 -0.7211
 2375SOL    HW117039   4.113   4.679   0.471  0.8327 -0.4799 -1.5015
 2375SOL    HW217040   4.212   4.589   0.565 -0.9857  0.4952  1.4122
 2376SOL     OW17041   2.999   6.033   2.594  0.2366  1.4409 -0.6657
 2376SOL    HW117042   3.097   6.018   2.586  0.1336  0.6519 -0.5213
 2376SOL    HW217043   2.963   5.977   2.668  0.0646  3.5234  0.8813
 2377SOL     OW17044   2.754   4.603   2.033  0.1075 -0.1215 -0.1182
 2377SOL    HW117045   2.748   4.674   1.964 -1.8762 -0.6384 -0.5015
 2377SOL    HW217046   2.702   4.631   2.114  1.1730 -0.1811  0.6102
 2378SOL     OW17047   3.594   1.663   0.550  0.1512 -0.0066 -0.2441
 2378SOL    HW117048   3.531   1.592   0.579  1.5916 -0.7431  1.1551
 2378SOL    HW217049   3.587   1.742   0.611  0.0417  0.2328 -0.5581
 2379SOL     OW17050   3.434   8.318   1.554  0.2252 -0.0903 -0.4645
 2379SOL    HW117051   3.390   8.331   1.465 -0.5643 -0.6363 -0.1514
 2379SOL    HW217052   3.521   8.270   1.541 -0.8687 -2.0362 -0.7198
 2380SOL     OW17053   3.316   4.938   1.353 -0.5760  0.0150 -0.4646
 2380SOL    HW117054   3.372   5.017   1.378 -0.4910 -0.1178 -0.2360
 2380SOL    HW217055   3.238   4.969   1.299 -1.4185  0.4466  0.9793
 2381SOL     OW17056   3.126   2.178   0.066 -0.6700 -0.2249  0.4673
 2381SOL    HW117057   3.073   2.135   0.140 -0.6308 -2.2277 -0.6236
 2381SOL    HW217058   3.092   2.145  -0.022  0.3728  0.8711 -0.3481
 2382SOL     OW17059   4.791   4.070   0.346  0.3422  0.4584 -0.4301
 2382SOL    HW117060   4.752   3.978   0.336  1.1844  0.1432 -0.8616
 2382SOL    HW217061   4.787   4.117   0.258  0.1127  0.7624 -0.2596
 2383SOL     OW17062   9.261   4.611   2.172  0.0912 -0.4940 -0.1164
 2383SOL    HW117063   9.277   4.671   2.251 -0.0879  0.2994 -0.6805
 2383SOL    HW217064   9.335   4.544   2.167  1.0360  0.5390 -0.2734
 2384SOL     OW17065   4.437   8.753   1.112 -0.1047  0.0280  0.6616
 2384SOL    HW117066   4.460   8.701   1.030 -3.5220  0.5768 -0.7692
 2384SOL    HW217067   4.416   8.847   1.085  0.4419  0.6574  2.4264
 2385SOL     OW17068   3.589   9.943   0.190 -0.9967  0.5364 -0.2091
 2385SOL    HW117069   3.578   9.976   0.284  1.9420  0.0718  0.3778
 2385SOL    HW217070   3.543   9.855   0.180 -2.2528  1.1068  0.4710
 2386SOL     OW17071   3.103   5.833   1.810  0.3783 -0.0599 -0.9232
 2386SOL    HW117072   3.024   5.805   1.863  0.0903  0.7926 -0.8857
 2386SOL    HW217073   3.124   5.764   1.740 -0.7033 -0.0522 -1.2552
 2387SOL     OW17074   3.195   5.995   1.032  0.2042  0.2444  0.4462
 2387SOL    HW117075   3.224   5.902   1.010  0.0148  0.1236  0.7103
 2387SOL    HW217076   3.200   6.052   0.949  1.5801  0.3269  0.5818
 2388SOL     OW17077   3.045   0.399   1.067  0.2300 -0.1053  0.2118
 2388SOL    HW117078   2.981   0.473   1.088 -0.0671  0.5248 -2.6015
 2388SOL    HW217079   3.072   0.406   0.971  0.3967 -3.5180 -0.0355
 2389SOL     OW17080   2.148   6.241   0.028  0.4592  0.3793  0.3732
 2389SOL    HW117081   2.206   6.321   0.039 -0.0804  0.9423 -0.7913
 2389SOL    HW217082   2.197   6.159   0.060  3.1545  0.3592 -3.4701
 2390SOL     OW17083   0.009   4.607   1.523  0.8993  0.1767 -0.1099
 2390SOL    HW117084   0.035   4.704   1.528  2.1602 -0.1742  0.1126
 2390SOL    HW217085   0.074   4.557   1.468 -0.2544 -0.3978 -0.9755
 2391SOL     OW17086   4.108   8.981   2.519 -0.1743 -0.6097  0.2649
 2391SOL    HW117087   4.069   8.910   2.577  0.1888 -0.3712  0.8101
 2391SOL    HW217088   4.099   8.955   2.423 -0.7397 -1.0266  0.4295
 2392SOL     OW17089   4.274   1.862   0.606 -0.1333  0.2133 -0.0919
 2392SOL    HW117090   4.195   1.814   0.642  0.4421 -0.6386  0.0518
 2392SOL    HW217091   4.251   1.958   0.591 -0.9708  0.1267  0.6283
 2393SOL     OW17092   3.601   7.794   2.814  0.8173  0.2312 -0.2027
 2393SOL    HW117093   3.661   7.779   2.893  0.2337 -1.0552  0.0208
 2393SOL    HW217094   3.508   7.765   2.838  0.6386 -0.1732 -1.3662
 2394SOL     OW17095   2.351   4.474   1.717  0.0799  0.0611  0.0396
 2394SOL    HW117096   2.274   4.514   1.766  0.3715  0.0287  0.5254
 2394SOL    HW217097   2.321   4.444   1.626 -0.2431  0.9646 -0.1519
 2395SOL     OW17098   4.426   2.771   2.206 -0.1903  0.3868  0.8370
 2395SOL    HW117099   4.431   2.867   2.233  1.1047  0.0062  2.0295
 2395SOL    HW217100   4.384   2.763   2.116  2.1989  2.3105 -0.5042
 2396SOL     OW17101   2.461   6.390   2.542  0.3472 -0.1384 -0.2563
 2396SOL    HW117102   2.367   6.369   2.514  0.5377 -1.9971  0.4111
 2396SOL    HW217103   2.470   6.488   2.557 -0.9836  0.3016 -2.1572
 2397SOL     OW17104   5.507   3.475   1.201 -0.7425 -0.4612  0.3605
 2397SOL    HW117105   5.563   3.449   1.280  1.6430  1.4363 -0.6682
 2397SOL    HW217106   5.524   3.411   1.126  0.0159  0.0778  0.0695
 2398SOL     OW17107   2.882   1.971   1.942  0.2845  0.3401 -0.6279
 2398SOL    HW117108   2.967   1.938   1.984 -0.1068  0.1753  0.0450
 2398SOL    HW217109   2.899   2.058   1.896  0.5262  0.9784  0.6394
 2399SOL     OW17110   3.097   8.627   1.514 -0.3708  0.4704 -0.4431
 2399SOL    HW117111   3.153   8.697   1.469 -1.5147  0.4473 -1.9324
 2399SOL    HW217112   3.064   8.562   1.446 -2.3064  0.5510  0.3917
 2400SOL     OW17113   2.864   7.670   1.221  0.1628 -0.0200 -0.0458
 2400SOL    HW117114   2.808   7.688   1.140 -0.5792  0.1864  0.5105
 2400SOL    HW217115   2.841   7.736   1.293 -0.6211 -1.4763  1.0571
 2401SOL     OW17116   3.042   0.198   2.543 -0.2079 -0.1590 -0.7290
 2401SOL    HW117117   2.973   0.135   2.577 -0.3613 -0.4469 -1.5502
 2401SOL    HW217118   3.122   0.145   2.511  0.3520  0.1618  0.1264
 2402SOL     OW17119   2.806   7.931   0.615  0.1790 -0.8080 -0.8120
 2402SOL    HW117120   2.803   7.855   0.680  0.7676  1.6150  2.1879
 2402SOL    HW217121   2.713   7.954   0.586 -0.3440 -0.4796  1.0231
 2403SOL     OW17122   3.064   9.490   1.719  0.4301  0.1262 -0.2883
 2403SOL    HW117123   2.968   9.479   1.692  0.1678  1.3334  0.0911
 2403SOL    HW217124   3.122   9.435   1.659 -0.3901  0.4506 -1.4054
 2404SOL     OW17125   1.182   3.503   0.864 -0.4791 -0.2869  0.4270
 2404SOL    HW117126   1.203   3.456   0.779 -1.7891 -2.6505  1.3895
 2404SOL    HW217127   1.246   3.473   0.935 -1.5032 -0.8585  1.1192
 2405SOL     OW17128   3.393   6.565   1.736  0.2006 -0.2392 -0.3971
 2405SOL    HW117129   3.398   6.659   1.702  2.5612  1.4822  4.1685
 2405SOL    HW217130   3.321   6.559   1.805 -0.4112 -2.0207 -1.1675
 2406SOL     OW17131   3.508   8.758   0.811 -0.6021  0.0151 -0.3938
 2406SOL    HW117132   3.531   8.662   0.799  0.5194  0.3013 -0.6022
 2406SOL    HW217133   3.584   8.806   0.854  0.1893  1.4726 -3.2504
 2407SOL     OW17134   2.854   6.216   1.435 -0.1061 -0.0784 -0.0771
 2407SOL    HW117135   2.847   6.208   1.535 -0.3395  0.3127 -0.0634
 2407SOL    HW217136   2.923   6.151   1.402  1.8669  1.6268  0.6022
 2408SOL     OW17137   1.350   4.858   2.576  0.3177 -0.1869 -0.1874
 2408SOL    HW117138   1.305   4.792   2.516  0.6497  2.2623 -3.3355
 2408SOL    HW217139   1.284   4.928   2.604  0.9483  0.6288 -0.6781
 2409SOL     OW17140   2.511   4.607   0.041 -0.1554 -0.5882  0.3117
 2409SOL    HW117141   2.481   4.698   0.011 -0.6007 -1.0429 -0.6549
 2409SOL    HW217142   2.568   4.566  -0.030  0.3652 -0.9192  0.9119
 2410SOL     OW17143   3.899   2.541   2.682 -0.0181  0.0879 -0.1114
 2410SOL    HW117144   3.846   2.457   2.697  0.3548 -0.1090  0.1076
 2410SOL    HW217145   3.870   2.609   2.749 -0.4815  0.2133 -0.4333
 2411SOL     OW17146   3.150   4.243   0.933  0.4414  0.4888 -0.2485
 2411SOL    HW117147   3.108   4.321   0.981 -0.9196  0.1813 -0.9062
 2411SOL    HW217148   3.135   4.160   0.986 -0.7358  0.2094 -0.9915
 2412SOL     OW17149   3.051   0.555   0.057  0.4261  0.5289  0.4697
 2412SOL    HW117150   3.090   0.573   0.148  0.2977  0.7819  0.4760
 2412SOL    HW217151   2.955   0.584   0.056 -0.1932 -1.4396  0.9035
 2413SOL     OW17152   3.520   0.441   2.335 -0.3402  0.3128  0.0039
 2413SOL    HW117153   3.493   0.434   2.431 -0.0769 -1.1328 -0.0240
 2413SOL    HW217154   3.590   0.511   2.326  0.2807 -0.1672  1.0065
  10.00000  10.00000   2.83200
